INSANE! Membrane UpperLeaflet>loPI:POPI:DPPI:PYPI:ERGO=80.0:5.0:3.0:2.0:10.0 LowerLeaflet>PSPI:POPI:POPS:YOPS:POPE:YOPE:POPC:YOPC:ERGO=6.0:14.0:21.0:9.0:9.0:21.0:12.0:48.0:60.0
49377
    1loPI    C1    1  14.782   3.089   9.928 -0.2659 -0.1554 -0.0958
    1loPI    C2    2  14.717   3.392  10.180  0.0848 -0.1871  0.0387
    1loPI    C3    3  14.737   3.018  10.320 -0.1987 -0.2593 -0.1066
    1loPI   PO4    4  14.755   3.203   9.721 -0.0361 -0.0882  0.0329
    1loPI   GL1    5  14.710   3.194   9.276  0.0072 -0.0689  0.1662
    1loPI   GL2    6  14.613   3.498   9.127  0.3375 -0.3103  0.0771
    1loPI   C1A    7  14.769   3.064   8.921  0.1304  0.1282  0.1202
    1loPI   C2A    8  14.733   3.041   8.443  0.1257 -0.1280 -0.0021
    1loPI   C3A    9  14.767   3.013   8.050 -0.0017  0.3098 -0.0276
    1loPI   C4A   10  14.697   2.843   7.696  0.0159 -0.3659 -0.0531
    1loPI   C5A   11  14.397   2.573   7.569  0.0754  0.2039 -0.2546
    1loPI   C6A   12  14.133   2.472   7.170 -0.3817 -0.0710 -0.0789
    1loPI   C1B   13  14.819   3.764   8.766 -0.0531  0.2181  0.2022
    1loPI   C2B   14  14.972   3.642   8.443  0.0318 -0.0309 -0.0362
    1loPI   C3B   15  15.048   3.421   8.048  0.0859 -0.1928 -0.0453
    1loPI   C4B   16  15.097   3.386   7.668  0.0828 -0.0075 -0.1769
    2loPI    C1   17  16.017  14.243  10.010 -0.0446 -0.1156 -0.0305
    2loPI    C2   18  15.799  14.537  10.169  0.0549 -0.0926  0.0646
    2loPI    C3   19  15.766  14.165  10.312  0.2106 -0.0551  0.2017
    2loPI   PO4   20  16.194  14.448   9.822 -0.1373 -0.0872  0.0016
    2loPI   GL1   21  16.096  14.391   9.348  0.2485  0.3757 -0.3303
    2loPI   GL2   22  16.266  14.415   9.035 -0.0884 -0.1692  0.0887
    2loPI   C1A   23  15.765  14.420   8.876 -0.0461 -0.2024  0.0120
    2loPI   C2A   24  15.684  14.451   8.447 -0.1725  0.1082  0.1688
    2loPI   C3A   25  15.410  14.338   8.033 -0.0504  0.3642 -0.0749
    2loPI   C4A   26  15.130  14.398   7.745 -0.1121 -0.2296  0.0990
    2loPI   C5A   27  14.799  14.506   7.447  0.1988 -0.0638 -0.1475
    2loPI   C6A   28  14.679  14.346   7.082 -0.0014  0.1741 -0.1663
    2loPI   C1B   29  16.499  14.819   8.933  0.2121  0.2399 -0.0344
    2loPI   C2B   30  16.478  15.046   8.490 -0.1603 -0.1978  0.2267
    2loPI   C3B   31  16.449  15.364   8.087  0.0516  0.0671  0.1908
    2loPI   C4B   32  16.381  15.714   7.949  0.1624 -0.0230  0.2631
    3loPI    C1   33  18.173   6.903  10.232  0.0431  0.0712 -0.2565
    3loPI    C2   34  18.555   6.895  10.350  0.0325 -0.2967 -0.2350
    3loPI    C3   35  18.277   7.065  10.582  0.1504 -0.2115 -0.1548
    3loPI   PO4   36  18.150   6.633  10.201  0.0994  0.0334  0.0476
    3loPI   GL1   37  18.440   6.563   9.880 -0.1052  0.1059  0.3434
    3loPI   GL2   38  18.512   6.900   9.808 -0.1328  0.1915 -0.0782
    3loPI   C1A   39  18.493   6.347   9.493  0.0507  0.0684  0.2667
    3loPI   C2A   40  18.198   6.117   9.253  0.2850  0.0707 -0.0529
    3loPI   C3A   41  18.177   5.989   8.791  0.0561 -0.1192  0.0898
    3loPI   C4A   42  18.107   6.221   8.486 -0.0930  0.0858  0.1210
    3loPI   C5A   43  18.204   6.391   8.066  0.1349  0.0665  0.1740
    3loPI   C6A   44  18.179   6.546   7.641  0.2258 -0.3091 -0.0874
    3loPI   C1B   45  18.646   6.900   9.440  0.0971 -0.0055 -0.0240
    3loPI   C2B   46  18.765   7.101   9.090  0.1236  0.1428  0.1358
    3loPI   C3B   47  18.821   7.183   8.593 -0.2514 -0.1016  0.1155
    3loPI   C4B   48  18.830   7.261   8.129  0.0235  0.0148  0.1378
    4loPI    C1   49   4.218  14.682  10.456  0.0760 -0.0749 -0.0529
    4loPI    C2   50   4.601  14.773  10.527  0.0667 -0.0067 -0.0892
    4loPI    C3   51   4.464  14.405  10.606  0.1532 -0.0476 -0.1282
    4loPI   PO4   52   4.105  14.714  10.103 -0.0318 -0.1644  0.0148
    4loPI   GL1   53   4.400  14.806   9.650  0.0613 -0.2220 -0.2114
    4loPI   GL2   54   4.251  15.044   9.365  0.4660  0.0256 -0.3234
    4loPI   C1A   55   4.857  14.714   9.483 -0.2018  0.1594 -0.1783
    4loPI   C2A   56   4.918  14.719   9.054 -0.0738  0.0677 -0.1028
    4loPI   C3A   57   4.928  14.894   8.566  0.1827  0.5092 -0.0375
    4loPI   C4A   58   5.223  14.798   8.219  0.1137 -0.1546  0.1981
    4loPI   C5A   59   5.488  14.618   7.999  0.0910 -0.0050  0.1182
    4loPI   C6A   60   5.613  14.245   7.926  0.1037  0.1116 -0.2809
    4loPI   C1B   61   4.429  14.704   9.167 -0.3354  0.1343 -0.0088
    4loPI   C2B   62   4.626  14.392   8.777 -0.2292 -0.0141 -0.4442
    4loPI   C3B   63   4.674  14.272   8.394  0.0513 -0.1312 -0.1250
    4loPI   C4B   64   4.669  14.674   8.194 -0.2070  0.0296 -0.0325
    5loPI    C1   65  12.981   1.503   9.941 -0.0571  0.0883  0.0599
    5loPI    C2   66  12.854   1.850  10.095  0.1088  0.1405  0.0811
    5loPI    C3   67  13.237   1.742  10.134  0.0507 -0.0615  0.1037
    5loPI   PO4   68  13.008   1.503   9.716  0.4472  0.3350  0.0334
    5loPI   GL1   69  13.311   1.603   9.410 -0.0129  0.1986 -0.3200
    5loPI   GL2   70  13.107   1.690   9.216 -0.0106  0.2061 -0.2320
    5loPI   C1A   71  13.523   1.363   9.054 -0.2420 -0.1264  0.0297
    5loPI   C2A   72  13.886   1.438   8.702  0.1749  0.1458  0.1342
    5loPI   C3A   73  13.764   1.444   8.282  0.2557 -0.0471  0.2921
    5loPI   C4A   74  13.818   1.418   7.824  0.0760  0.0657 -0.0690
    5loPI   C5A   75  14.178   1.300   7.487 -0.2420 -0.2851  0.0503
    5loPI   C6A   76  14.520   0.995   7.566 -0.2167  0.1269 -0.1242
    5loPI   C1B   77  13.238   1.690   8.811 -0.1564  0.1309  0.0072
    5loPI   C2B   78  13.334   1.678   8.378  0.0295 -0.2279  0.2112
    5loPI   C3B   79  13.423   1.685   8.083 -0.0217  0.0195 -0.3021
    5loPI   C4B   80  13.354   1.553   7.713  0.0502  0.0426  0.3506
    6loPI    C1   81   0.978   0.486   9.864 -0.0034  0.1384 -0.0638
    6loPI    C2   82   0.774   0.641  10.171 -0.1411 -0.1700  0.0049
    6loPI    C3   83   0.580   0.517   9.844 -0.0433 -0.2759 -0.0138
    6loPI   PO4   84   1.123   0.668   9.842 -0.3099 -0.1263 -0.0582
    6loPI   GL1   85   1.094   1.019   9.476 -0.1068  0.2239 -0.1101
    6loPI   GL2   86   0.782   0.756   9.477  0.1833 -0.2746  0.5555
    6loPI   C1A   87   1.130   0.951   8.967  0.1939  0.0558  0.0718
    6loPI   C2A   88   0.989   1.047   8.588 -0.3322 -0.3095  0.1718
    6loPI   C3A   89   1.096   1.051   8.208 -0.0022 -0.4713  0.1783
    6loPI   C4A   90   1.026   0.922   7.842  0.0679  0.2933 -0.3436
    6loPI   C5A   91   0.806   0.662   7.651  0.0395 -0.1451 -0.2195
    6loPI   C6A   92   0.587   0.209   7.514  0.0148 -0.1969 -0.1159
    6loPI   C1B   93   0.603   0.989   9.151  0.1394  0.0873 -0.0493
    6loPI   C2B   94   0.512   1.005   8.749  0.2529  0.0134 -0.0230
    6loPI   C3B   95   0.189   1.127   8.289 -0.1424 -0.2070 -0.1273
    6loPI   C4B   96  -0.059   1.203   8.006  0.1546 -0.2774 -0.0981
    7loPI    C1   97   6.959   2.834  10.021  0.3105 -0.0947  0.1835
    7loPI    C2   98   7.093   3.183  10.165 -0.0291  0.1587 -0.0974
    7loPI    C3   99   6.735   3.045  10.277  0.0620 -0.0546 -0.0635
    7loPI   PO4  100   6.908   2.908   9.696 -0.2295  0.1725  0.0242
    7loPI   GL1  101   6.726   2.771   9.301  0.1380 -0.0764 -0.0925
    7loPI   GL2  102   6.583   2.454   9.246 -0.2065  0.1247 -0.0821
    7loPI   C1A  103   6.676   3.028   8.961 -0.1230  0.0083  0.0753
    7loPI   C2A  104   6.517   3.150   8.519  0.0686 -0.4276 -0.2437
    7loPI   C3A  105   6.402   3.165   8.166  0.1435  0.1170 -0.1424
    7loPI   C4A  106   6.137   3.048   7.757 -0.0245 -0.1454  0.0004
    7loPI   C5A  107   5.871   3.077   7.407 -0.0490 -0.0756  0.0853
    7loPI   C6A  108   5.658   2.658   7.329 -0.0162  0.0502  0.1373
    7loPI   C1B  109   6.627   2.449   8.814  0.2243  0.1273 -0.1508
    7loPI   C2B  110   6.472   2.273   8.465 -0.0237 -0.0709  0.1025
    7loPI   C3B  111   6.530   2.471   8.046 -0.1367  0.1335  0.2883
    7loPI   C4B  112   6.480   2.476   7.582  0.1646 -0.2235  0.0212
    8loPI    C1  113  14.699  17.461  10.035 -0.0246 -0.0315  0.0703
    8loPI    C2  114  15.050  17.523  10.215 -0.0128 -0.0724  0.0612
    8loPI    C3  115  14.753  17.785  10.263 -0.0161 -0.0928  0.1560
    8loPI   PO4  116  14.779  17.427   9.786  0.0280 -0.2644 -0.2132
    8loPI   GL1  117  14.952  17.364   9.400  0.1705  0.0794  0.0183
    8loPI   GL2  118  15.251  17.196   9.407 -0.1138  0.1573  0.0280
    8loPI   C1A  119  14.871  17.184   9.148  0.1223  0.1076  0.2500
    8loPI   C2A  120  14.848  17.028   8.705  0.0998  0.2010  0.0724
    8loPI   C3A  121  14.745  17.084   8.302  0.0516  0.1363 -0.0830
    8loPI   C4A  122  14.590  17.310   7.972 -0.2339 -0.1815 -0.1687
    8loPI   C5A  123  14.471  17.514   7.631 -0.1911 -0.1787 -0.2494
    8loPI   C6A  124  14.253  17.902   7.472  0.0377 -0.1901 -0.1896
    8loPI   C1B  125  15.314  17.271   9.006 -0.3598 -0.1553  0.2031
    8loPI   C2B  126  15.262  17.284   8.583 -0.0493 -0.1158 -0.1641
    8loPI   C3B  127  15.427  17.583   8.218  0.2295  0.0293 -0.1090
    8loPI   C4B  128  15.773  17.479   7.976  0.1669  0.1612  0.1296
    9loPI    C1  129   0.126  17.707  10.772 -0.0731 -0.0358 -0.3051
    9loPI    C2  130  -0.268  17.646  10.803 -0.0885  0.2540  0.1839
    9loPI    C3  131  -0.017  17.470  11.061  0.1131  0.0333 -0.1540
    9loPI   PO4  132   0.212  17.613  10.518 -0.0609 -0.2966 -0.1252
    9loPI   GL1  133   0.304  17.818  10.107  0.1178 -0.0478 -0.2383
    9loPI   GL2  134   0.430  18.106   9.882  0.1480  0.0303  0.1275
    9loPI   C1A  135   0.226  17.709   9.715  0.0847 -0.1156 -0.0958
    9loPI   C2A  136   0.159  17.484   9.328  0.2834 -0.0410 -0.1382
    9loPI   C3A  137   0.207  17.309   8.994 -0.1635 -0.0808 -0.1602
    9loPI   C4A  138   0.182  17.170   8.645  0.0049  0.1746 -0.1398
    9loPI   C5A  139   0.063  16.855   8.261 -0.5752  0.1889 -0.1145
    9loPI   C6A  140  -0.265  16.700   7.989 -0.0063 -0.1830 -0.0209
    9loPI   C1B  141   0.695  18.003   9.479 -0.0490  0.5344  0.3023
    9loPI   C2B  142   0.931  18.087   9.148  0.0412  0.2132 -0.1659
    9loPI   C3B  143   1.198  18.226   8.719 -0.0331  0.1558 -0.0391
    9loPI   C4B  144   1.364  18.110   8.315  0.0520  0.3013  0.0099
   10loPI    C1  145   1.343   6.685   9.970 -0.2474 -0.0581  0.0447
   10loPI    C2  146   1.623   6.878  10.180 -0.2395  0.0048 -0.0233
   10loPI    C3  147   1.244   6.876  10.307 -0.2271  0.0073  0.0138
   10loPI   PO4  148   1.369   6.703   9.758  0.0252 -0.0575  0.4371
   10loPI   GL1  149   1.505   7.042   9.439 -0.1238 -0.1084 -0.0809
   10loPI   GL2  150   1.184   7.014   9.357 -0.0503  0.5033 -0.2667
   10loPI   C1A  151   1.766   7.033   9.034 -0.0875  0.0050 -0.0632
   10loPI   C2A  152   1.857   7.059   8.552  0.2253 -0.0161 -0.2948
   10loPI   C3A  153   1.850   7.209   8.175 -0.3243 -0.0224 -0.0029
   10loPI   C4A  154   1.967   7.238   7.656 -0.1086 -0.0907 -0.3203
   10loPI   C5A  155   2.262   7.436   7.386  0.1121  0.0092 -0.1471
   10loPI   C6A  156   2.686   7.480   7.309 -0.0378  0.0581  0.1318
   10loPI   C1B  157   1.220   7.025   8.878 -0.0871  0.3001 -0.1443
   10loPI   C2B  158   1.373   6.988   8.408 -0.2727 -0.3733  0.3338
   10loPI   C3B  159   1.460   7.022   7.970  0.1231 -0.0352  0.1328
   10loPI   C4B  160   1.503   7.175   7.562  0.1069 -0.1537 -0.4397
   11loPI    C1  161   2.074   1.370  10.076 -0.1149 -0.0190  0.2325
   11loPI    C2  162   1.806   1.622  10.232 -0.0112  0.3927 -0.2279
   11loPI    C3  163   2.188   1.638  10.350 -0.1050  0.0727  0.1394
   11loPI   PO4  164   1.858   1.297   9.883  0.0623 -0.4082  0.0843
   11loPI   GL1  165   1.850   1.303   9.525 -0.2406  0.2591  0.1261
   11loPI   GL2  166   2.125   1.184   9.418  0.6424  0.0891 -0.1812
   11loPI   C1A  167   1.602   1.188   9.221  0.0350  0.0735 -0.0224
   11loPI   C2A  168   1.536   1.125   8.681 -0.0961  0.0152 -0.1309
   11loPI   C3A  169   1.540   1.236   8.207 -0.1042  0.0585  0.0046
   11loPI   C4A  170   1.711   1.448   7.837 -0.0817  0.0210 -0.0327
   11loPI   C5A  171   2.140   1.433   7.528 -0.2874  0.0478  0.1358
   11loPI   C6A  172   2.365   1.643   7.184  0.2115  0.1730 -0.1193
   11loPI   C1B  173   1.950   0.997   8.967 -0.1076 -0.2275 -0.0983
   11loPI   C2B  174   2.047   0.763   8.649 -0.0201  0.2319 -0.5405
   11loPI   C3B  175   1.882   0.840   8.288 -0.0228  0.2463  0.0001
   11loPI   C4B  176   1.535   0.890   7.892 -0.2179 -0.1171  0.1184
   12loPI    C1  177   5.423  18.429   9.859 -0.0923 -0.2825 -0.1433
   12loPI    C2  178   5.413  18.249  10.216  0.3565 -0.0255  0.0060
   12loPI    C3  179   5.354  18.644  10.189  0.1617 -0.0681 -0.2265
   12loPI   PO4  180   5.667  18.279   9.756  0.0071 -0.0640  0.1889
   12loPI   GL1  181   5.724  18.247   9.374 -0.0739  0.0342 -0.0581
   12loPI   GL2  182   5.375  18.044   9.384  0.0363 -0.2729 -0.0078
   12loPI   C1A  183   5.723  18.420   8.967  0.4645 -0.1761 -0.0671
   12loPI   C2A  184   5.680  18.505   8.542 -0.0839 -0.1611  0.2713
   12loPI   C3A  185   5.670  18.641   8.155  0.1994  0.0466 -0.3006
   12loPI   C4A  186   5.757  18.673   7.773 -0.2106 -0.0291 -0.2804
   12loPI   C5A  187   5.913  18.753   7.392 -0.4347 -0.2150  0.0137
   12loPI   C6A  188   5.989  19.240   7.311 -0.3586  0.0995  0.0742
   12loPI   C1B  189   5.113  18.234   8.989  0.2695  0.1183  0.1312
   12loPI   C2B  190   5.051  18.391   8.565 -0.1052 -0.1781 -0.1347
   12loPI   C3B  191   4.843  18.582   8.204  0.0957  0.0475 -0.2139
   12loPI   C4B  192   4.756  18.373   7.775  0.1489  0.1372 -0.2300
   13loPI    C1  193  13.435  11.091  10.018  0.2064 -0.1283  0.2855
   13loPI    C2  194  13.364  11.085  10.412  0.0770 -0.1803  0.2620
   13loPI    C3  195  13.172  11.347  10.178  0.2255 -0.0841  0.2464
   13loPI   PO4  196  13.417  10.874   9.928  0.1863 -0.1335  0.0536
   13loPI   GL1  197  13.526  10.831   9.523 -0.4825 -0.2750 -0.1119
   13loPI   GL2  198  13.544  11.173   9.451 -0.1073 -0.1587 -0.0889
   13loPI   C1A  199  13.567  10.581   9.267 -0.2380  0.4000  0.2722
   13loPI   C2A  200  13.433  10.540   8.942  0.0128  0.2686  0.0816
   13loPI   C3A  201  13.281  10.123   8.588 -0.0973  0.0503 -0.0977
   13loPI   C4A  202  13.214   9.743   8.418  0.3271  0.1872 -0.0011
   13loPI   C5A  203  13.081   9.408   8.009  0.2684  0.1850  0.1050
   13loPI   C6A  204  12.847   9.451   7.610  0.2380  0.0018  0.2305
   13loPI   C1B  205  13.387  11.010   9.084 -0.1878 -0.1410  0.2553
   13loPI   C2B  206  13.413  10.974   8.700 -0.4028 -0.1946  0.0281
   13loPI   C3B  207  13.477  11.110   8.310  0.0961  0.0179 -0.2418
   13loPI   C4B  208  13.303  11.320   7.905  0.0998  0.0890 -0.2180
   14loPI    C1  209   2.307  10.343   9.796 -0.0818  0.1869 -0.1114
   14loPI    C2  210   2.017  10.474  10.038 -0.1858  0.1310 -0.2053
   14loPI    C3  211   1.927  10.342   9.671 -0.0457  0.0808 -0.2218
   14loPI   PO4  212   2.528  10.514   9.702  0.3075 -0.1349  0.0174
   14loPI   GL1  213   2.816  10.712   9.359  0.5318  0.0083 -0.2269
   14loPI   GL2  214   2.987  10.983   9.421  0.0338  0.0876  0.4430
   14loPI   C1A  215   2.665  10.599   8.941  0.0378  0.1521 -0.2215
   14loPI   C2A  216   2.532  10.556   8.454  0.0758  0.0221 -0.1593
   14loPI   C3A  217   2.559  10.699   7.995 -0.1093  0.3655 -0.2563
   14loPI   C4A  218   2.344  11.044   7.775 -0.4802  0.0064  0.1975
   14loPI   C5A  219   2.218  11.464   7.627 -0.1608  0.0469 -0.2510
   14loPI   C6A  220   2.061  11.540   7.260  0.0004 -0.0365  0.2456
   14loPI   C1B  221   2.969  11.160   9.066 -0.1122  0.1625  0.2059
   14loPI   C2B  222   3.066  11.309   8.649  0.0090 -0.0293  0.4217
   14loPI   C3B  223   2.930  11.191   8.382  0.2509  0.2534  0.1709
   14loPI   C4B  224   2.837  11.100   7.950  0.0713  0.1464  0.0240
   15loPI    C1  225  14.354  16.500   9.752 -0.0815 -0.2623 -0.1191
   15loPI    C2  226  14.745  16.441   9.807  0.0070  0.2699 -0.1288
   15loPI    C3  227  14.541  16.204   9.559  0.3082 -0.0456 -0.0833
   15loPI   PO4  228  14.328  16.777   9.756 -0.1301 -0.0846 -0.1892
   15loPI   GL1  229  14.307  16.908   9.376  0.2250  0.3325 -0.0880
   15loPI   GL2  230  14.464  17.208   9.452 -0.1938 -0.0658 -0.1421
   15loPI   C1A  231  14.479  16.850   9.056 -0.2476 -0.1590 -0.1852
   15loPI   C2A  232  14.353  16.873   8.653  0.4142  0.0869 -0.0099
   15loPI   C3A  233  14.262  17.075   8.284  0.1656  0.0194  0.4345
   15loPI   C4A  234  14.078  17.183   7.910 -0.2368 -0.0534 -0.1242
   15loPI   C5A  235  13.948  17.402   7.503  0.3037 -0.1238  0.0426
   15loPI   C6A  236  13.749  17.471   7.114 -0.1917  0.1299 -0.0411
   15loPI   C1B  237  14.339  17.513   9.056  0.3522  0.2406 -0.0353
   15loPI   C2B  238  14.279  17.437   8.679  0.0398  0.2632 -0.0729
   15loPI   C3B  239  14.224  17.567   8.311 -0.2174  0.2107 -0.3341
   15loPI   C4B  240  14.369  17.761   8.031 -0.0026  0.1753  0.6554
   16loPI    C1  241  14.161  18.297  10.143  0.0213 -0.3657 -0.1935
   16loPI    C2  242  14.456  18.200  10.395  0.0126  0.0767 -0.0053
   16loPI    C3  243  14.076  18.131  10.497  0.0179  0.1033  0.0329
   16loPI   PO4  244  14.079  18.246   9.877  0.1345  0.0421  0.1066
   16loPI   GL1  245  14.082  18.289   9.511  0.0122  0.1783  0.1138
   16loPI   GL2  246  13.884  18.589   9.557  0.0542  0.1562  0.3492
   16loPI   C1A  247  14.184  18.043   9.066 -0.1467  0.3116 -0.3349
   16loPI   C2A  248  14.324  17.947   8.617 -0.0819  0.1169 -0.0574
   16loPI   C3A  249  14.659  18.046   8.358  0.1751 -0.2885 -0.3257
   16loPI   C4A  250  14.748  18.370   8.076  0.2235  0.4672  0.3995
   16loPI   C5A  251  14.976  18.513   7.675  0.0436  0.1236 -0.0502
   16loPI   C6A  252  15.064  18.493   7.243 -0.2907  0.0851  0.3189
   16loPI   C1B  253  13.812  18.415   9.078  0.1436 -0.1269  0.0039
   16loPI   C2B  254  13.852  18.344   8.622 -0.1291  0.2038 -0.2435
   16loPI   C3B  255  13.817  18.020   8.247  0.2873 -0.0586 -0.2427
   16loPI   C4B  256  13.868  17.623   7.967  0.1718  0.1379  0.1491
   17loPI    C1  257   1.321   9.908  10.352 -0.2794  0.0400  0.0294
   17loPI    C2  258   1.215   9.541  10.470 -0.0509 -0.0494 -0.0373
   17loPI    C3  259   1.459   9.761  10.698 -0.1758  0.0562 -0.0044
   17loPI   PO4  260   1.244   9.840  10.060 -0.3410  0.0451 -0.2570
   17loPI   GL1  261   1.036  10.069   9.720 -0.1846  0.3986  0.0796
   17loPI   GL2  262   1.068   9.769   9.581 -0.0441 -0.0881 -0.1115
   17loPI   C1A  263   0.859  10.268   9.446 -0.4126 -0.0926  0.1234
   17loPI   C2A  264   0.785  10.270   8.961  0.0459 -0.0541  0.1677
   17loPI   C3A  265   1.069  10.293   8.576  0.0126 -0.1132  0.3770
   17loPI   C4A  266   1.002  10.386   8.061 -0.1607 -0.0621 -0.0116
   17loPI   C5A  267   0.985  10.163   7.637 -0.2169 -0.0522 -0.0523
   17loPI   C6A  268   0.733  10.085   7.310  0.1175 -0.5275 -0.2258
   17loPI   C1B  269   0.791   9.839   9.193  0.0600  0.1384 -0.2250
   17loPI   C2B  270   0.583   9.756   8.783 -0.1614 -0.0443 -0.2686
   17loPI   C3B  271   0.674  10.002   8.424  0.0929  0.0313  0.3976
   17loPI   C4B  272   0.757   9.813   7.983  0.2397 -0.0959  0.0713
   18loPI    C1  273   8.013  15.639  10.485  0.0345  0.0056 -0.0596
   18loPI    C2  274   8.330  15.722  10.715 -0.0095  0.1858 -0.0626
   18loPI    C3  275   7.982  15.907  10.781 -0.0137  0.2643 -0.2949
   18loPI   PO4  276   8.026  15.722  10.238  0.1205  0.3215  0.3428
   18loPI   GL1  277   8.137  15.518   9.881 -0.2236  0.2405  0.0213
   18loPI   GL2  278   7.883  15.712   9.726 -0.0620  0.1101 -0.2192
   18loPI   C1A  279   8.247  15.334   9.498  0.0252  0.2566 -0.2268
   18loPI   C2A  280   8.097  15.259   9.112  0.1923  0.0944  0.1642
   18loPI   C3A  281   7.904  15.327   8.700 -0.1010 -0.2914  0.1705
   18loPI   C4A  282   7.769  15.388   8.401  0.2839  0.0472  0.0693
   18loPI   C5A  283   7.968  15.430   8.026 -0.4742 -0.0857 -0.0453
   18loPI   C6A  284   8.300  15.134   7.801  0.1636 -0.0589 -0.0088
   18loPI   C1B  285   7.941  16.126   9.480 -0.0559 -0.1210 -0.4348
   18loPI   C2B  286   7.950  16.328   9.072 -0.1556  0.1200  0.0373
   18loPI   C3B  287   7.954  16.697   8.766  0.1044 -0.1048 -0.1137
   18loPI   C4B  288   7.976  16.876   8.316  0.2875  0.1010 -0.0007
   19loPI    C1  289  14.779   8.082  10.396 -0.1454  0.1765 -0.0505
   19loPI    C2  290  15.072   8.335  10.295  0.0194  0.1034  0.2343
   19loPI    C3  291  14.932   8.331  10.670 -0.1705 -0.0402  0.1634
   19loPI   PO4  292  14.854   7.899  10.187 -0.2614 -0.3262 -0.1110
   19loPI   GL1  293  15.033   8.146   9.823 -0.0888  0.2424 -0.1659
   19loPI   GL2  294  14.906   8.449   9.568 -0.1967  0.0702  0.2830
   19loPI   C1A  295  15.143   7.962   9.423 -0.0029 -0.1652  0.0077
   19loPI   C2A  296  15.167   7.926   8.985 -0.2525  0.2236  0.1530
   19loPI   C3A  297  15.224   7.825   8.570  0.0166 -0.0363  0.2231
   19loPI   C4A  298  14.933   7.866   8.189 -0.1995 -0.5217  0.2081
   19loPI   C5A  299  14.601   7.661   7.964  0.0777 -0.2022 -0.1656
   19loPI   C6A  300  14.555   7.410   7.633 -0.0861 -0.1799 -0.1707
   19loPI   C1B  301  15.044   8.388   9.105  0.3659 -0.0504 -0.0877
   19loPI   C2B  302  14.988   8.630   8.711 -0.1002 -0.1587 -0.2603
   19loPI   C3B  303  14.918   8.590   8.213 -0.0902 -0.3611 -0.1984
   19loPI   C4B  304  14.770   8.271   7.893  0.0087 -0.3813  0.2232
   20loPI    C1  305  11.114   5.284   9.558  0.0957 -0.0128  0.0980
   20loPI    C2  306  11.165   5.380   9.173 -0.0131 -0.0071  0.0848
   20loPI    C3  307  11.483   5.335   9.411  0.0477  0.1650  0.0375
   20loPI   PO4  308  10.859   5.174   9.585 -0.2523 -0.1304  0.1276
   20loPI   GL1  309  10.605   5.160   9.255 -0.1384  0.1309  0.2688
   20loPI   GL2  310  10.272   5.174   9.263 -0.0909 -0.2424  0.3707
   20loPI   C1A  311  10.771   5.297   8.834 -0.0935 -0.0055  0.1687
   20loPI   C2A  312  10.891   5.077   8.407  0.0542 -0.2272  0.0300
   20loPI   C3A  313  10.931   4.828   8.056  0.2911  0.3397  0.0502
   20loPI   C4A  314  11.170   4.881   7.797 -0.2009  0.0602  0.1061
   20loPI   C5A  315  11.054   5.156   7.481 -0.0006 -0.0385 -0.2118
   20loPI   C6A  316  11.001   4.998   7.108  0.0937  0.1457  0.0527
   20loPI   C1B  317  10.154   5.171   8.886 -0.1976 -0.0092  0.0542
   20loPI   C2B  318  10.079   4.945   8.549  0.0753 -0.1084  0.0062
   20loPI   C3B  319  10.048   4.866   8.169 -0.0539 -0.0806 -0.0803
   20loPI   C4B  320  10.060   4.737   7.707 -0.5116  0.0266 -0.0809
   21loPI    C1  321  16.858   9.313  10.140 -0.0155  0.0885 -0.1355
   21loPI    C2  322  17.080   9.357  10.470 -0.0199 -0.1036 -0.1058
   21loPI    C3  323  16.701   9.484  10.466 -0.0195 -0.0994 -0.0372
   21loPI   PO4  324  17.022   9.248   9.942  0.1951 -0.0871 -0.0951
   21loPI   GL1  325  17.058   8.909   9.671  0.1378 -0.2014  0.0947
   21loPI   GL2  326  17.329   8.926   9.617 -0.1786  0.1242  0.3847
   21loPI   C1A  327  17.045   8.747   9.209 -0.1310  0.1487  0.0273
   21loPI   C2A  328  16.932   8.445   8.874 -0.1323  0.4653 -0.0992
   21loPI   C3A  329  16.852   8.229   8.477  0.1076 -0.4070  0.1217
   21loPI   C4A  330  16.629   8.296   8.130 -0.0409  0.0904  0.2717
   21loPI   C5A  331  16.527   8.201   7.716 -0.2106 -0.1951  0.1229
   21loPI   C6A  332  16.512   7.930   7.320 -0.1771 -0.0726 -0.0604
   21loPI   C1B  333  17.563   8.993   9.303  0.1375 -0.1702 -0.2577
   21loPI   C2B  334  17.642   9.117   8.853 -0.2640  0.0952  0.1225
   21loPI   C3B  335  17.392   9.216   8.543  0.0358 -0.0795  0.0334
   21loPI   C4B  336  17.337   9.083   8.122 -0.1321 -0.1868 -0.0025
   22loPI    C1  337   1.582   9.671   9.661  0.0164  0.0281 -0.2521
   22loPI    C2  338   1.909   9.551   9.464 -0.0314 -0.0622 -0.2769
   22loPI    C3  339   1.727   9.302   9.719  0.1138  0.1020 -0.0075
   22loPI   PO4  340   1.569   9.929   9.554  0.0675  0.2147 -0.2141
   22loPI   GL1  341   1.659   9.876   9.123  0.0153  0.1118 -0.2985
   22loPI   GL2  342   1.472   9.594   9.188 -0.3990 -0.0922  0.1572
   22loPI   C1A  343   1.735  10.100   8.791  0.2246 -0.0590 -0.1134
   22loPI   C2A  344   1.479  10.033   8.476  0.0569  0.0303  0.2185
   22loPI   C3A  345   1.247   9.911   8.085  0.1956 -0.0212 -0.0543
   22loPI   C4A  346   1.452   9.765   7.790 -0.0353  0.3200 -0.2169
   22loPI   C5A  347   1.788   9.470   7.702  0.1296  0.1350 -0.2918
   22loPI   C6A  348   2.211   9.448   7.413  0.0143 -0.2100  0.3305
   22loPI   C1B  349   1.237  10.043   9.035  0.1108  0.2333 -0.0034
   22loPI   C2B  350   1.199  10.477   9.068 -0.0829  0.1584  0.1632
   22loPI   C3B  351   1.199  10.999   9.107  0.0891  0.4723 -0.0338
   22loPI   C4B  352   1.360  11.501   8.885 -0.1178 -0.0005 -0.0128
   23loPI    C1  353  17.878  17.341  10.619 -0.1203 -0.1455  0.0042
   23loPI    C2  354  17.561  17.120  10.720 -0.1167 -0.0568  0.2151
   23loPI    C3  355  17.636  17.462  10.914  0.0107  0.0100  0.0497
   23loPI   PO4  356  17.929  17.311  10.308 -0.1457  0.2841 -0.4434
   23loPI   GL1  357  17.894  17.595  10.067  0.1476 -0.2524 -0.0702
   23loPI   GL2  358  17.961  17.990  10.050  0.1631  0.0998  0.1655
   23loPI   C1A  359  17.827  17.666   9.692  0.1926  0.0310 -0.0206
   23loPI   C2A  360  17.869  17.699   9.272 -0.2577  0.2137  0.4535
   23loPI   C3A  361  17.897  17.562   8.885 -0.2783  0.5599 -0.0982
   23loPI   C4A  362  18.096  17.648   8.490  0.0352  0.2094 -0.1010
   23loPI   C5A  363  18.093  17.509   8.080  0.0454  0.0285 -0.3117
   23loPI   C6A  364  17.810  17.479   7.865  0.0778 -0.2229 -0.3415
   23loPI   C1B  365  17.897  18.202   9.671 -0.0173  0.3458  0.0005
   23loPI   C2B  366  18.068  18.157   9.309 -0.0049 -0.4465 -0.2544
   23loPI   C3B  367  18.019  18.187   8.853  0.1420 -0.3138 -0.1857
   23loPI   C4B  368  18.092  18.161   8.340 -0.0091 -0.1625  0.2176
   24loPI    C1  369   0.646   5.676  10.203  0.0505  0.0904  0.0945
   24loPI    C2  370   0.781   5.381  10.437  0.0768 -0.0004 -0.0336
   24loPI    C3  371   0.446   5.578  10.535  0.0520 -0.0814  0.0453
   24loPI   PO4  372   0.710   5.560   9.951  0.1442  0.1484  0.4149
   24loPI   GL1  373   0.679   5.638   9.603 -0.3076  0.1550  0.0718
   24loPI   GL2  374   0.535   5.417   9.403 -0.1429  0.0215  0.3519
   24loPI   C1A  375   0.391   5.859   9.383 -0.0763 -0.0553 -0.0509
   24loPI   C2A  376   0.437   5.954   8.939  0.2796  0.2330 -0.2066
   24loPI   C3A  377   0.526   5.902   8.559 -0.1756  0.2107  0.2003
   24loPI   C4A  378   0.351   5.884   8.219  0.1686 -0.0838 -0.2911
   24loPI   C5A  379   0.390   5.736   7.829 -0.2891 -0.2798  0.1072
   24loPI   C6A  380   0.256   5.531   7.483  0.2754  0.2629  0.2214
   24loPI   C1B  381   0.411   5.125   9.142  0.0578 -0.0311 -0.0560
   24loPI   C2B  382   0.150   5.028   8.871 -0.0872 -0.1630 -0.0874
   24loPI   C3B  383  -0.076   5.137   8.585  0.3046  0.0390 -0.1896
   24loPI   C4B  384  -0.393   5.386   8.380  0.3651  0.1613  0.1059
   25loPI    C1  385  15.804  11.048  10.004 -0.1772  0.1153  0.1603
   25loPI    C2  386  15.837  11.404   9.825  0.2669 -0.0540 -0.1107
   25loPI    C3  387  16.029  11.334  10.169 -0.1075  0.0781  0.1305
   25loPI   PO4  388  15.853  10.835   9.737  0.1224 -0.1266 -0.4318
   25loPI   GL1  389  16.110  10.817   9.417  0.0691 -0.2028 -0.0810
   25loPI   GL2  390  16.004  10.536   9.266  0.0246  0.0202  0.1030
   25loPI   C1A  391  16.276  11.199   9.171  0.0303  0.0658 -0.0779
   25loPI   C2A  392  16.240  11.412   8.776 -0.1412 -0.4314  0.1268
   25loPI   C3A  393  16.157  11.381   8.471  0.1197  0.0866  0.1457
   25loPI   C4A  394  16.200  11.345   8.067  0.0718  0.1208  0.1084
   25loPI   C5A  395  16.088  11.586   7.930  0.1566 -0.0737 -0.0775
   25loPI   C6A  396  15.760  11.717   7.729 -0.3347 -0.0158  0.2776
   25loPI   C1B  397  15.966  10.419   8.880  0.2319  0.1215 -0.1588
   25loPI   C2B  398  15.924  10.509   8.505  0.2037  0.0808 -0.5040
   25loPI   C3B  399  15.534  10.519   8.482  0.1986 -0.2291 -0.0658
   25loPI   C4B  400  15.290  10.794   8.686 -0.1018 -0.0718  0.0380
   26loPI    C1  401   8.614   2.967   9.845 -0.0125  0.0824 -0.0181
   26loPI    C2  402   8.464   2.951  10.215 -0.0686  0.1148 -0.0392
   26loPI    C3  403   8.859   2.922  10.158 -0.0832 -0.1940 -0.0000
   26loPI   PO4  404   8.402   3.164   9.727  0.0757 -0.4365  0.0063
   26loPI   GL1  405   8.374   3.410   9.385 -0.2500  0.4399 -0.1547
   26loPI   GL2  406   8.240   3.625   9.421 -0.0443 -0.0145 -0.4320
   26loPI   C1A  407   8.504   3.181   9.023 -0.1954 -0.0049  0.0963
   26loPI   C2A  408   8.745   2.917   8.706  0.0408  0.1249 -0.1437
   26loPI   C3A  409   8.932   3.006   8.297 -0.2660  0.2761 -0.1222
   26loPI   C4A  410   9.028   2.835   7.929 -0.1395  0.1556 -0.1295
   26loPI   C5A  411   8.840   2.636   7.572  0.1240 -0.1036 -0.1882
   26loPI   C6A  412   8.428   2.747   7.778  0.2966 -0.2453  0.0483
   26loPI   C1B  413   8.244   3.758   9.022 -0.0654 -0.1780  0.0192
   26loPI   C2B  414   8.308   3.482   8.646  0.0163  0.1458 -0.1660
   26loPI   C3B  415   8.449   3.177   8.294  0.0374  0.1358  0.0144
   26loPI   C4B  416   8.175   2.974   8.125  0.5498 -0.3080 -0.1871
   27loPI    C1  417   9.271   0.472   9.938  0.0035  0.5380  0.2582
   27loPI    C2  418   9.588   0.282  10.092 -0.0567  0.0530 -0.1882
   27loPI    C3  419   9.228   0.243  10.263  0.0143  0.1330 -0.0187
   27loPI   PO4  420   9.291   0.372   9.633 -0.0360  0.0354  0.2610
   27loPI   GL1  421   9.019   0.056   9.391 -0.0720 -0.0971  0.1192
   27loPI   GL2  422   9.358   0.029   9.212  0.1804 -0.3895  0.0651
   27loPI   C1A  423   8.780   0.074   9.002 -0.2390  0.1630 -0.0381
   27loPI   C2A  424   8.766  -0.129   8.575  0.3718  0.0519  0.0405
   27loPI   C3A  425   8.830  -0.169   8.073  0.2565 -0.4350 -0.0058
   27loPI   C4A  426   8.691  -0.186   7.662 -0.0906 -0.0152  0.0568
   27loPI   C5A  427   8.388  -0.428   7.440 -0.0976  0.1585 -0.2562
   27loPI   C6A  428   8.339  -0.652   7.086 -0.0674  0.4533 -0.0594
   27loPI   C1B  429   9.263   0.003   8.718  0.1626  0.1912  0.1950
   27loPI   C2B  430   9.191   0.093   8.245 -0.2264 -0.0965  0.2526
   27loPI   C3B  431   9.118   0.077   7.771  0.0650 -0.0337 -0.2203
   27loPI   C4B  432   9.180  -0.026   7.446  0.0691  0.3687  0.0324
   28loPI    C1  433   9.909  13.723  10.101  0.0114  0.0114  0.0693
   28loPI    C2  434  10.272  13.610  10.224 -0.0131  0.0740  0.2008
   28loPI    C3  435   9.946  13.451  10.392 -0.0466  0.0307  0.0950
   28loPI   PO4  436   9.974  13.653   9.787 -0.0894  0.2896  0.1445
   28loPI   GL1  437   9.933  13.793   9.401  0.2988 -0.2153 -0.2436
   28loPI   GL2  438  10.200  13.608   9.343 -0.0837  0.0614  0.2315
   28loPI   C1A  439   9.743  14.153   9.334  0.1532 -0.0524  0.1849
   28loPI   C2A  440   9.573  14.348   9.020  0.1704 -0.0234  0.1988
   28loPI   C3A  441   9.502  14.294   8.583 -0.0405 -0.2062 -0.0108
   28loPI   C4A  442   9.446  14.319   8.153  0.1621  0.1163  0.1618
   28loPI   C5A  443   9.416  14.024   7.831 -0.2267  0.2065  0.1427
   28loPI   C6A  444   9.605  13.555   7.790  0.0776  0.1946  0.1348
   28loPI   C1B  445  10.348  13.482   8.926 -0.0391 -0.1074 -0.0729
   28loPI   C2B  446  10.266  13.111   8.737 -0.0862  0.0135  0.0814
   28loPI   C3B  447  10.250  12.913   8.405  0.0794 -0.0509  0.2191
   28loPI   C4B  448  10.321  13.019   7.983  0.2912 -0.2271  0.0289
   29loPI    C1  449   4.995   9.761  10.097  0.1160  0.0956 -0.0301
   29loPI    C2  450   4.646   9.813  10.285  0.1643 -0.0318  0.0969
   29loPI    C3  451   4.974   9.721  10.494  0.2269 -0.1371 -0.0461
   29loPI   PO4  452   4.883   9.764   9.739 -0.3216 -0.3064 -0.0620
   29loPI   GL1  453   4.861  10.116   9.425  0.2049 -0.0103 -0.0870
   29loPI   GL2  454   4.690  10.421   9.429 -0.0920 -0.0945  0.2126
   29loPI   C1A  455   4.651  10.033   8.999  0.2095  0.2594  0.0994
   29loPI   C2A  456   4.513  10.048   8.499 -0.1655 -0.1547 -0.0105
   29loPI   C3A  457   4.484   9.993   8.023  0.0548  0.0660 -0.0105
   29loPI   C4A  458   4.799  10.021   7.780 -0.2496  0.0461  0.1538
   29loPI   C5A  459   4.761  10.157   7.346  0.1282 -0.0347  0.1693
   29loPI   C6A  460   4.743   9.934   6.868 -0.0373 -0.0820 -0.1198
   29loPI   C1B  461   4.606  10.511   8.953  0.2089  0.0538  0.0605
   29loPI   C2B  462   4.745  10.628   8.573 -0.0177 -0.0744  0.0083
   29loPI   C3B  463   4.828  10.404   8.127  0.2410  0.1062 -0.1176
   29loPI   C4B  464   4.997  10.471   7.746 -0.0593  0.0549  0.0994
   30loPI    C1  465  12.533   7.302   9.471 -0.1234 -0.0937  0.0958
   30loPI    C2  466  12.746   7.549   9.701 -0.0393  0.0671 -0.1505
   30loPI    C3  467  12.357   7.618   9.642 -0.0827 -0.0283  0.0176
   30loPI   PO4  468  12.487   6.990   9.542  0.0231 -0.1680 -0.0912
   30loPI   GL1  469  12.663   6.682   9.325 -0.1839 -0.0045  0.2324
   30loPI   GL2  470  12.967   6.751   9.457  0.2441  0.2465 -0.2258
   30loPI   C1A  471  12.786   6.621   8.982  0.1869 -0.1283 -0.0040
   30loPI   C2A  472  13.117   6.560   8.756  0.0138  0.0906  0.2233
   30loPI   C3A  473  13.446   6.564   8.478 -0.3468 -0.0110  0.1748
   30loPI   C4A  474  13.461   6.740   8.160 -0.0825  0.2542  0.1868
   30loPI   C5A  475  13.594   7.176   8.056  0.0059 -0.0461  0.4426
   30loPI   C6A  476  13.409   7.606   8.204 -0.1034  0.0422 -0.3206
   30loPI   C1B  477  13.304   6.541   9.202  0.3601 -0.3118  0.0622
   30loPI   C2B  478  13.567   6.365   8.905  0.0304  0.1114 -0.0861
   30loPI   C3B  479  13.588   6.054   8.600  0.3336  0.1091 -0.0662
   30loPI   C4B  480  13.506   5.644   8.631 -0.0328  0.3320 -0.1482
   31loPI    C1  481  14.621  15.484   9.572  0.1506 -0.1038  0.0608
   31loPI    C2  482  14.618  15.482   9.972  0.3890  0.0877  0.0666
   31loPI    C3  483  14.812  15.195   9.772  0.1038 -0.1209  0.0811
   31loPI   PO4  484  14.709  15.733   9.562  0.1555  0.2714 -0.0665
   31loPI   GL1  485  14.865  15.888   9.250 -0.2781  0.0336 -0.2127
   31loPI   GL2  486  15.131  15.853   9.255  0.0155  0.0177  0.0087
   31loPI   C1A  487  14.824  16.122   8.869  0.0126  0.0766  0.0995
   31loPI   C2A  488  14.894  16.542   8.680  0.1589 -0.1182  0.0872
   31loPI   C3A  489  15.177  16.779   8.372 -0.0336  0.2555 -0.1888
   31loPI   C4A  490  15.153  17.157   8.001  0.3869 -0.3064 -0.0923
   31loPI   C5A  491  15.353  17.246   7.694  0.0734 -0.0784  0.1106
   31loPI   C6A  492  15.405  17.657   7.553  0.0784  0.0338  0.1256
   31loPI   C1B  493  15.183  15.732   8.828 -0.2214  0.2478  0.1873
   31loPI   C2B  494  15.005  15.816   8.420  0.0593 -0.0296  0.2844
   31loPI   C3B  495  14.799  16.063   8.089 -0.0905 -0.2312  0.4355
   31loPI   C4B  496  14.359  16.271   7.956  0.0917 -0.1881 -0.2244
   32loPI    C1  497  14.581   3.648   9.707 -0.0387 -0.1419  0.0689
   32loPI    C2  498  14.288   3.471   9.500 -0.0349 -0.0996  0.0272
   32loPI    C3  499  14.247   3.533   9.893 -0.1320  0.0141 -0.0005
   32loPI   PO4  500  14.701   3.776   9.510  0.0927  0.2226 -0.2005
   32loPI   GL1  501  14.981   3.834   9.223  0.1200  0.0039 -0.2046
   32loPI   GL2  502  15.003   4.104   9.312 -0.0662 -0.0486  0.0392
   32loPI   C1A  503  15.113   3.425   8.962 -0.2243  0.3937 -0.2910
   32loPI   C2A  504  15.360   3.377   8.530  0.1324 -0.3100 -0.0845
   32loPI   C3A  505  15.614   3.259   8.194 -0.3599  0.1391 -0.0134
   32loPI   C4A  506  16.075   3.325   8.146  0.2428 -0.2005 -0.0941
   32loPI   C5A  507  16.405   3.520   8.212  0.1183  0.1233  0.0387
   32loPI   C6A  508  16.608   3.788   7.958  0.2203 -0.2810 -0.0105
   32loPI   C1B  509  14.797   4.279   8.977 -0.1482  0.3124  0.0667
   32loPI   C2B  510  14.893   4.324   8.555  0.2575 -0.3818 -0.2215
   32loPI   C3B  511  15.013   4.341   8.182  0.1340 -0.0844 -0.4458
   32loPI   C4B  512  15.050   4.451   7.732  0.3879  0.0096 -0.1086
   33loPI    C1  513   4.401  18.265  10.189  0.1374 -0.1277 -0.0200
   33loPI    C2  514   4.046  18.279  10.373  0.1426  0.0765 -0.0234
   33loPI    C3  515   4.179  17.934  10.222 -0.0708  0.0060 -0.0541
   33loPI   PO4  516   4.389  18.439   9.988 -0.0492 -0.0918  0.2419
   33loPI   GL1  517   4.392  18.514   9.523 -0.0558  0.0079  0.0182
   33loPI   GL2  518   4.218  18.706   9.536  0.0425  0.2174 -0.1817
   33loPI   C1A  519   4.553  18.338   9.154 -0.0116 -0.0878 -0.0681
   33loPI   C2A  520   4.285  18.363   8.807 -0.0964  0.0726 -0.1470
   33loPI   C3A  521   4.290  18.398   8.457 -0.0127  0.2539 -0.1973
   33loPI   C4A  522   4.353  18.640   8.093 -0.0340 -0.2684 -0.3109
   33loPI   C5A  523   4.600  18.834   7.750 -0.1329 -0.3714  0.0949
   33loPI   C6A  524   4.827  18.835   7.372  0.1058 -0.0501  0.3978
   33loPI   C1B  525   4.355  18.797   9.153  0.1022 -0.1317 -0.0236
   33loPI   C2B  526   4.408  19.216   8.856 -0.1576  0.0095 -0.5946
   33loPI   C3B  527   4.306  19.594   8.957 -0.4850  0.2386 -0.1919
   33loPI   C4B  528   4.633  19.988   9.009 -0.0972  0.0544  0.0843
   34loPI    C1  529  10.167   3.609  10.094 -0.1087  0.0285  0.0279
   34loPI    C2  530  10.513   3.545  10.284  0.0216 -0.0477 -0.2308
   34loPI    C3  531  10.167   3.500  10.479  0.1511 -0.1677 -0.0247
   34loPI   PO4  532  10.176   3.460   9.900 -0.0762 -0.0837 -0.2227
   34loPI   GL1  533  10.358   3.250   9.578 -0.0759 -0.2467 -0.0223
   34loPI   GL2  534  10.664   3.310   9.472  0.0287  0.3638 -0.1716
   34loPI   C1A  535  10.464   2.864   9.459 -0.0399  0.0848 -0.3309
   34loPI   C2A  536  10.505   2.693   9.086  0.3700 -0.0142  0.0116
   34loPI   C3A  537  10.490   2.666   8.695  0.1843  0.1707 -0.0209
   34loPI   C4A  538  10.499   2.625   8.255 -0.3033 -0.1195 -0.1347
   34loPI   C5A  539  10.597   2.745   7.824  0.1595  0.1426  0.0474
   34loPI   C6A  540  10.959   2.956   7.674  0.0677 -0.3446  0.1143
   34loPI   C1B  541  10.763   3.163   9.134 -0.1671 -0.0697 -0.0058
   34loPI   C2B  542  10.736   3.155   8.785  0.1638  0.1995 -0.2022
   34loPI   C3B  543  10.773   3.133   8.446  0.0690 -0.1717 -0.1164
   34loPI   C4B  544  10.779   3.197   8.042 -0.4240 -0.2841  0.2542
   35loPI    C1  545  14.085   7.861  10.284 -0.0866 -0.1144  0.0607
   35loPI    C2  546  14.170   7.535  10.069 -0.2131 -0.2036  0.1447
   35loPI    C3  547  14.430   7.666  10.343 -0.1799 -0.2571  0.1390
   35loPI   PO4  548  13.943   7.966  10.050 -0.0736 -0.2802  0.0487
   35loPI   GL1  549  13.984   8.194   9.629 -0.2063 -0.0729 -0.0233
   35loPI   GL2  550  14.138   8.387   9.744  0.2594 -0.0868 -0.1900
   35loPI   C1A  551  13.722   8.393   9.229 -0.1043  0.0831 -0.2848
   35loPI   C2A  552  13.584   8.369   8.806 -0.7056  0.1450 -0.0041
   35loPI   C3A  553  13.382   8.197   8.432 -0.0851  0.0269  0.4316
   35loPI   C4A  554  13.356   8.031   7.993  0.1815  0.0484  0.1929
   35loPI   C5A  555  13.606   7.831   7.770  0.3267  0.1904  0.2792
   35loPI   C6A  556  13.969   8.022   7.421 -0.1991 -0.3228  0.0869
   35loPI   C1B  557  14.481   8.288   9.351 -0.2844 -0.1440 -0.0215
   35loPI   C2B  558  14.562   8.521   8.980  0.0541 -0.1447  0.2636
   35loPI   C3B  559  14.576   8.823   8.555 -0.1705  0.0290  0.0135
   35loPI   C4B  560  14.649   8.980   8.183 -0.1053  0.0022 -0.6450
   36loPI    C1  561   5.066   3.512  10.010 -0.1826 -0.0488  0.0267
   36loPI    C2  562   5.274   3.841  10.099 -0.1740  0.0384 -0.3026
   36loPI    C3  563   5.283   3.526  10.346  0.0952  0.1559 -0.1578
   36loPI   PO4  564   4.950   3.625   9.802 -0.2864 -0.0635 -0.2855
   36loPI   GL1  565   4.973   3.695   9.344 -0.0783  0.3247 -0.0310
   36loPI   GL2  566   4.701   3.794   9.288  0.0503 -0.2524 -0.2000
   36loPI   C1A  567   5.195   3.515   9.099 -0.2888 -0.1072 -0.1620
   36loPI   C2A  568   5.161   3.560   8.654 -0.1841  0.0819  0.0432
   36loPI   C3A  569   5.146   3.523   8.186 -0.0441 -0.3699  0.0506
   36loPI   C4A  570   4.979   3.477   7.849  0.2078 -0.0503 -0.0269
   36loPI   C5A  571   4.773   3.408   7.446  0.2885  0.1470  0.0879
   36loPI   C6A  572   5.054   3.039   7.162  0.2179 -0.2121 -0.0267
   36loPI   C1B  573   4.689   3.642   8.820  0.2195 -0.0089 -0.1795
   36loPI   C2B  574   4.688   3.559   8.437  0.0407  0.0045  0.3193
   36loPI   C3B  575   4.445   3.659   8.089 -0.1728  0.1114 -0.3583
   36loPI   C4B  576   4.352   3.583   7.603 -0.1514  0.0048  0.2358
   37loPI    C1  577  18.262  10.774  10.074  0.1217 -0.4008 -0.3198
   37loPI    C2  578  17.868  10.795  10.142  0.1216 -0.3025 -0.3508
   37loPI    C3  579  18.046  10.439  10.108  0.0480 -0.3478 -0.2630
   37loPI   PO4  580  18.252  11.027   9.874  0.2064  0.4618 -0.2555
   37loPI   GL1  581  18.311  11.119   9.477 -0.1651 -0.2639 -0.0299
   37loPI   GL2  582  18.117  11.347   9.264 -0.2287  0.0951 -0.4524
   37loPI   C1A  583  18.564  11.025   9.180 -0.0919  0.0138 -0.2871
   37loPI   C2A  584  18.566  11.005   8.734  0.1391  0.0133 -0.2247
   37loPI   C3A  585  18.636  10.760   8.228 -0.0567  0.2702  0.1195
   37loPI   C4A  586  18.505  10.473   7.848  0.6374  0.3595  0.0434
   37loPI   C5A  587  18.408  10.495   7.441  0.1257  0.1499 -0.0926
   37loPI   C6A  588  18.261  10.230   7.081  0.0345  0.0465 -0.0230
   37loPI   C1B  589  18.147  11.448   8.808  0.1588 -0.2445  0.2629
   37loPI   C2B  590  18.014  11.508   8.401  0.1440  0.0046 -0.3499
   37loPI   C3B  591  17.988  11.373   8.017 -0.0761  0.1532  0.1504
   37loPI   C4B  592  17.626  11.486   7.810 -0.4125 -0.0727 -0.0938
   38loPI    C1  593   1.763   4.927   9.923 -0.1525  0.1451  0.0392
   38loPI    C2  594   1.564   5.184  10.155 -0.1172  0.1441  0.0705
   38loPI    C3  595   1.462   4.797  10.153 -0.1398  0.1501  0.0587
   38loPI   PO4  596   1.811   5.114   9.708 -0.0366 -0.0577  0.0631
   38loPI   GL1  597   1.573   5.418   9.336 -0.0403  0.0981  0.1648
   38loPI   GL2  598   1.664   5.104   9.189  0.2180 -0.1570 -0.3494
   38loPI   C1A  599   1.432   5.604   8.942  0.1378 -0.2304 -0.1792
   38loPI   C2A  600   1.344   5.492   8.529 -0.0083  0.3638 -0.0639
   38loPI   C3A  601   1.322   5.380   8.111  0.0617 -0.1777 -0.1366
   38loPI   C4A  602   1.506   5.311   7.741 -0.2167  0.0645  0.0311
   38loPI   C5A  603   1.780   5.546   7.410  0.2339 -0.2662 -0.0442
   38loPI   C6A  604   1.892   6.023   7.364  0.3189 -0.2429 -0.0878
   38loPI   C1B  605   1.743   5.053   8.753  0.2313  0.0767 -0.1285
   38loPI   C2B  606   1.688   5.151   8.371 -0.0563  0.1944 -0.0424
   38loPI   C3B  607   1.716   4.906   8.000 -0.1867  0.5332  0.1613
   38loPI   C4B  608   1.777   4.839   7.544  0.0964 -0.2238  0.0342
   39loPI    C1  609  14.926   5.438   9.663  0.1769  0.2799  0.0508
   39loPI    C2  610  14.940   5.630  10.013 -0.0352 -0.1060  0.2772
   39loPI    C3  611  14.637   5.696   9.761  0.0683  0.1021  0.2054
   39loPI   PO4  612  15.008   5.175   9.743  0.2525 -0.0066 -0.1209
   39loPI   GL1  613  15.356   4.904   9.510 -0.0815 -0.0246 -0.0271
   39loPI   GL2  614  15.569   4.923   9.501  0.1057 -0.3464 -0.1100
   39loPI   C1A  615  15.352   4.846   9.049 -0.0338 -0.2322 -0.0029
   39loPI   C2A  616  15.650   4.928   8.708  0.2694 -0.0475 -0.2723
   39loPI   C3A  617  15.833   5.195   8.381  0.3024  0.2773 -0.0252
   39loPI   C4A  618  15.975   5.615   8.232  0.2688 -0.0172  0.0484
   39loPI   C5A  619  16.347   5.812   7.843  0.0119  0.1297  0.1157
   39loPI   C6A  620  16.755   6.000   7.773 -0.1731 -0.0236  0.0207
   39loPI   C1B  621  15.843   4.718   9.173 -0.1086  0.1254  0.0946
   39loPI   C2B  622  15.999   4.641   8.771  0.0052  0.0552 -0.0494
   39loPI   C3B  623  15.957   4.653   8.317 -0.5534  0.0601  0.2089
   39loPI   C4B  624  16.137   4.650   7.924 -0.0874 -0.0771  0.1279
   40loPI    C1  625   8.556  17.640  10.283 -0.0479  0.1921  0.1508
   40loPI    C2  626   8.849  17.558  10.543 -0.0766 -0.2017  0.0654
   40loPI    C3  627   8.512  17.731  10.670  0.0149 -0.1506  0.2419
   40loPI   PO4  628   8.604  17.576  10.104  0.3950  0.0661  0.0594
   40loPI   GL1  629   8.871  17.353   9.787  0.1123  0.2113  0.2090
   40loPI   GL2  630   9.052  17.531   9.526  0.2644 -0.1315 -0.1513
   40loPI   C1A  631   9.084  17.095   9.386  0.2895  0.0995  0.1990
   40loPI   C2A  632   8.916  16.981   8.960 -0.1677  0.1957 -0.0682
   40loPI   C3A  633   8.671  16.576   8.702  0.2939 -0.1692  0.1807
   40loPI   C4A  634   8.346  16.593   8.441 -0.2666 -0.0167  0.1043
   40loPI   C5A  635   8.148  16.578   7.991 -0.0948  0.0802  0.1154
   40loPI   C6A  636   7.953  16.420   7.610  0.0469 -0.0122  0.0800
   40loPI   C1B  637   9.102  17.448   9.079 -0.3741  0.2679  0.0827
   40loPI   C2B  638   8.903  17.464   8.714  0.2987  0.2446  0.3607
   40loPI   C3B  639   8.824  17.459   8.202 -0.3110  0.2406  0.0915
   40loPI   C4B  640   9.004  17.192   7.979 -0.2826 -0.3121  0.1891
   41loPI    C1  641  18.168   3.923  10.497  0.0473  0.1715  0.0064
   41loPI    C2  642  18.128   4.307  10.600 -0.0727  0.1010  0.2275
   41loPI    C3  643  18.247   4.038  10.871  0.2242  0.0164  0.0185
   41loPI   PO4  644  18.289   3.884  10.226  0.0642 -0.1493  0.1156
   41loPI   GL1  645  18.513   4.060   9.865 -0.0881  0.1737  0.0805
   41loPI   GL2  646  18.800   3.960   9.757 -0.0219  0.1322  0.0449
   41loPI   C1A  647  18.321   4.107   9.575 -0.4409  0.1594  0.0295
   41loPI   C2A  648  18.293   3.862   9.076  0.4257 -0.1044  0.1895
   41loPI   C3A  649  18.231   4.111   8.733 -0.0327  0.0326 -0.0128
   41loPI   C4A  650  17.993   4.145   8.476 -0.2308  0.1059  0.3867
   41loPI   C5A  651  18.092   4.391   8.101 -0.2965 -0.0579  0.4053
   41loPI   C6A  652  18.520   4.635   7.956 -0.2921  0.0452  0.0237
   41loPI   C1B  653  18.845   3.765   9.330  0.1239  0.1369  0.2523
   41loPI   C2B  654  18.811   3.650   8.998  0.0026  0.0377  0.0715
   41loPI   C3B  655  18.542   3.571   8.580 -0.0840  0.0966  0.2031
   41loPI   C4B  656  18.228   3.651   8.330  0.2444 -0.0891 -0.4104
   42loPI    C1  657   5.229  17.876   9.911 -0.0990 -0.0401  0.1670
   42loPI    C2  658   5.429  17.603  10.124 -0.0389 -0.0902  0.0466
   42loPI    C3  659   5.148  17.826  10.300  0.0784 -0.0629  0.2018
   42loPI   PO4  660   5.029  17.802   9.712 -0.2693 -0.2498 -0.3677
   42loPI   GL1  661   4.865  17.835   9.299 -0.1005 -0.0613 -0.2017
   42loPI   GL2  662   4.528  17.656   9.104 -0.1498 -0.0414 -0.0397
   42loPI   C1A  663   5.038  17.747   8.875 -0.1310  0.2430 -0.0373
   42loPI   C2A  664   5.004  17.767   8.364  0.1540 -0.0542 -0.0655
   42loPI   C3A  665   5.124  17.765   8.010 -0.0273  0.0652  0.1685
   42loPI   C4A  666   5.279  17.371   7.821  0.1963  0.0848  0.0930
   42loPI   C5A  667   5.111  17.320   7.416  0.0483  0.1033 -0.1337
   42loPI   C6A  668   5.219  17.122   6.979 -0.2290 -0.0776  0.0411
   42loPI   C1B  669   4.540  17.951   8.653  0.2805 -0.2796 -0.0538
   42loPI   C2B  670   4.666  18.118   8.301 -0.0983  0.1079  0.0171
   42loPI   C3B  671   4.674  17.865   7.823  0.1249 -0.0952  0.0519
   42loPI   C4B  672   4.774  17.407   7.803 -0.0525  0.3667 -0.0419
   43loPI    C1  673  11.208  14.320  10.029  0.1823  0.0236 -0.0326
   43loPI    C2  674  11.007  13.976  10.057  0.0215  0.1116 -0.0921
   43loPI    C3  675  11.247  14.092  10.355  0.2211 -0.1408 -0.1512
   43loPI   PO4  676  11.138  14.435   9.845 -0.0100  0.3039  0.0753
   43loPI   GL1  677  11.079  14.601   9.455  0.1475  0.2471  0.0520
   43loPI   GL2  678  11.207  14.334   9.307  0.2548 -0.2695  0.0685
   43loPI   C1A  679  10.973  14.819   9.109  0.1141  0.1206  0.0672
   43loPI   C2A  680  10.996  14.757   8.667 -0.0736  0.0461 -0.1068
   43loPI   C3A  681  10.875  14.645   8.269 -0.0118 -0.3096  0.2037
   43loPI   C4A  682  10.837  14.371   7.930 -0.1374 -0.1164  0.1638
   43loPI   C5A  683  10.789  14.045   7.501  0.2769 -0.1248  0.2361
   43loPI   C6A  684  10.634  13.952   7.100  0.3220 -0.0609 -0.1192
   43loPI   C1B  685  10.954  14.315   8.926  0.0323  0.1408 -0.2920
   43loPI   C2B  686  10.554  14.209   8.753  0.1803 -0.2876  0.2014
   43loPI   C3B  687  10.534  14.075   8.335 -0.1662  0.2011 -0.0686
   43loPI   C4B  688  10.630  13.925   7.972  0.0969 -0.2438 -0.2700
   44loPI    C1  689   0.176   6.524  10.116 -0.1221 -0.2180 -0.0010
   44loPI    C2  690   0.343   6.463  10.475 -0.0604  0.0452  0.0168
   44loPI    C3  691   0.013   6.687  10.443 -0.2677 -0.2641 -0.0501
   44loPI   PO4  692   0.323   6.470   9.896 -0.2308 -0.0073  0.0153
   44loPI   GL1  693   0.301   6.452   9.442  0.1100  0.1787 -0.1944
   44loPI   GL2  694  -0.018   6.556   9.585  0.0132  0.2186  0.2469
   44loPI   C1A  695   0.357   6.416   8.983 -0.1863  0.3039 -0.2424
   44loPI   C2A  696   0.361   6.471   8.545 -0.1918 -0.0210  0.2293
   44loPI   C3A  697   0.520   6.600   8.046  0.2164 -0.1719  0.1044
   44loPI   C4A  698   0.521   7.021   7.937  0.1425  0.4198  0.1677
   44loPI   C5A  699   0.479   7.370   7.632  0.0198 -0.2563 -0.1972
   44loPI   C6A  700   0.538   7.750   7.365 -0.1372  0.0471  0.0287
   44loPI   C1B  701  -0.123   6.552   9.160 -0.0381  0.2169  0.0244
   44loPI   C2B  702  -0.144   6.603   8.630 -0.4994  0.0394 -0.2616
   44loPI   C3B  703  -0.358   6.493   8.254  0.0373 -0.1790  0.0693
   44loPI   C4B  704  -0.330   6.403   7.811  0.0530  0.1294 -0.3784
   45loPI    C1  705  12.165  13.284   9.982  0.1083  0.1592  0.1267
   45loPI    C2  706  12.555  13.229  10.048  0.1248 -0.0348 -0.1172
   45loPI    C3  707  12.286  13.028  10.264  0.1595  0.0656  0.0206
   45loPI   PO4  708  12.121  13.170   9.726 -0.0944 -0.1460  0.0863
   45loPI   GL1  709  12.045  13.166   9.360  0.1644 -0.1111 -0.0978
   45loPI   GL2  710  12.125  13.454   9.207 -0.3379  0.0074 -0.1243
   45loPI   C1A  711  11.923  13.019   8.976  0.1273 -0.1546  0.0154
   45loPI   C2A  712  11.993  13.033   8.618  0.2586  0.0789  0.1224
   45loPI   C3A  713  12.124  12.901   8.188 -0.2553 -0.1799 -0.0627
   45loPI   C4A  714  12.064  12.875   7.785 -0.1293 -0.1278 -0.1120
   45loPI   C5A  715  11.836  12.942   7.456 -0.1211 -0.0571  0.0982
   45loPI   C6A  716  11.757  12.547   7.160  0.1436  0.1482 -0.0080
   45loPI   C1B  717  12.076  13.766   9.106 -0.1536  0.0062 -0.3834
   45loPI   C2B  718  11.935  13.958   8.798 -0.1789 -0.1390  0.0995
   45loPI   C3B  719  11.781  14.021   8.419 -0.3258  0.2310 -0.0445
   45loPI   C4B  720  11.614  14.112   8.027 -0.0142 -0.0645 -0.0170
   46loPI    C1  721  13.852   9.238   9.897 -0.1248 -0.1385  0.2173
   46loPI    C2  722  13.760   9.345  10.271  0.2173  0.1279  0.2301
   46loPI    C3  723  14.143   9.311  10.161  0.1211  0.1487 -0.1235
   46loPI   PO4  724  13.520   9.368   9.773  0.3770 -0.0255  0.0898
   46loPI   GL1  725  13.475   9.555   9.398  0.0686  0.0606 -0.3922
   46loPI   GL2  726  13.259   9.301   9.283 -0.3903 -0.0969 -0.1795
   46loPI   C1A  727  13.863   9.609   9.271 -0.1602  0.2164 -0.1951
   46loPI   C2A  728  14.187   9.908   8.947  0.5176 -0.0675  0.0664
   46loPI   C3A  729  14.221   9.910   8.532 -0.0077  0.0918 -0.0451
   46loPI   C4A  730  14.070   9.878   8.102  0.2347  0.0440 -0.0774
   46loPI   C5A  731  13.948   9.657   7.765  0.2081  0.0828 -0.1082
   46loPI   C6A  732  13.594   9.778   7.441  0.0326 -0.1084 -0.3251
   46loPI   C1B  733  13.080   9.083   8.866  0.4152  0.1517 -0.1150
   46loPI   C2B  734  13.017   9.022   8.368 -0.1108  0.3870  0.2435
   46loPI   C3B  735  12.914   8.959   7.985 -0.1073 -0.3258  0.1521
   46loPI   C4B  736  12.840   8.710   7.610 -0.2498  0.3209  0.1185
   47loPI    C1  737  17.013   0.096  10.675  0.0631 -0.1222 -0.0200
   47loPI    C2  738  17.206   0.311  10.951 -0.0630  0.1031 -0.1050
   47loPI    C3  739  16.938   0.036  11.063  0.3321 -0.2436  0.0160
   47loPI   PO4  740  17.192  -0.055  10.509 -0.0136  0.1779 -0.0456
   47loPI   GL1  741  17.209  -0.306  10.050  0.1683  0.0509  0.0534
   47loPI   GL2  742  17.445  -0.022  10.022 -0.0660 -0.1536 -0.0804
   47loPI   C1A  743  17.242  -0.326   9.644 -0.3215 -0.1336  0.2790
   47loPI   C2A  744  17.259  -0.241   9.232 -0.0918 -0.2388  0.5081
   47loPI   C3A  745  17.438  -0.013   8.756  0.1782  0.2011 -0.0066
   47loPI   C4A  746  17.424  -0.197   8.374  0.1741 -0.2150  0.1249
   47loPI   C5A  747  17.632  -0.182   8.000 -0.1320 -0.3559 -0.1791
   47loPI   C6A  748  17.560  -0.078   7.539  0.0158 -0.0069 -0.0103
   47loPI   C1B  749  17.615  -0.007   9.605  0.0646  0.0935  0.1451
   47loPI   C2B  750  17.814   0.048   9.222  0.0851 -0.0415 -0.0096
   47loPI   C3B  751  17.913   0.107   8.769 -0.0175  0.2582 -0.1889
   47loPI   C4B  752  17.786   0.107   8.348  0.1616 -0.2601 -0.1864
   48loPI    C1  753  10.173   2.520  10.418 -0.4830  0.0177 -0.0770
   48loPI    C2  754  10.005   2.157  10.413 -0.0812 -0.1755  0.0077
   48loPI    C3  755  10.091   2.332  10.762 -0.3227  0.0291 -0.0320
   48loPI   PO4  756  10.218   2.526  10.201 -0.3098 -0.1742 -0.2369
   48loPI   GL1  757  10.057   2.639   9.789 -0.0176 -0.1093  0.0125
   48loPI   GL2  758  10.157   2.460   9.635  0.0566  0.1373  0.0859
   48loPI   C1A  759   9.977   2.843   9.430  0.0660 -0.2058 -0.0830
   48loPI   C2A  760   9.729   2.746   9.135  0.0860  0.1142  0.0376
   48loPI   C3A  761   9.641   2.778   8.773 -0.0030 -0.2138 -0.0405
   48loPI   C4A  762   9.871   2.764   8.485  0.1136  0.1889 -0.0452
   48loPI   C5A  763  10.093   2.764   8.014  0.0431 -0.3030 -0.1256
   48loPI   C6A  764  10.319   3.123   7.883  0.0985 -0.0668  0.2003
   48loPI   C1B  765   9.960   2.292   9.280 -0.2604  0.1958  0.0500
   48loPI   C2B  766  10.093   2.408   9.012  0.4897  0.1213 -0.1234
   48loPI   C3B  767  10.065   2.314   8.605 -0.1325 -0.1325 -0.0827
   48loPI   C4B  768  10.167   2.266   8.140  0.1048  0.3328 -0.3296
   49loPI    C1  769  13.779  13.712   9.713  0.0941  0.0186  0.1061
   49loPI    C2  770  13.717  13.424   9.984  0.1848 -0.2294 -0.1325
   49loPI    C3  771  14.090  13.538   9.894  0.1454  0.0533  0.0517
   49loPI   PO4  772  13.706  13.616   9.414  0.1885  0.0565 -0.2698
   49loPI   GL1  773  13.404  13.747   9.157  0.0613 -0.1896 -0.1800
   49loPI   GL2  774  13.140  13.894   8.961  0.0521 -0.0573 -0.1076
   49loPI   C1A  775  13.434  13.721   8.630 -0.2501 -0.0731 -0.1638
   49loPI   C2A  776  13.430  13.602   8.194 -0.0624  0.1572  0.0706
   49loPI   C3A  777  13.700  13.483   7.900 -0.0129 -0.0642  0.1830
   49loPI   C4A  778  13.790  13.463   7.449 -0.2096 -0.2004  0.2633
   49loPI   C5A  779  14.213  13.460   7.324 -0.1941  0.0078  0.1322
   49loPI   C6A  780  14.622  13.277   7.176  0.1113 -0.0068 -0.3607
   49loPI   C1B  781  13.008  13.997   8.617  0.0731 -0.0462  0.2674
   49loPI   C2B  782  13.205  14.064   8.225 -0.1509  0.1132 -0.1585
   49loPI   C3B  783  12.993  14.088   7.809  0.1892  0.3954  0.1578
   49loPI   C4B  784  12.957  14.375   7.549  0.3133  0.2466 -0.1472
   50loPI    C1  785  12.955   5.153   9.677  0.0579 -0.1916 -0.0332
   50loPI    C2  786  12.957   5.426   9.970  0.1093 -0.1181 -0.1015
   50loPI    C3  787  12.978   5.036  10.059  0.1543 -0.0948 -0.0090
   50loPI   PO4  788  13.045   5.308   9.445 -0.1863  0.2086 -0.0226
   50loPI   GL1  789  13.332   5.404   9.051 -0.3819  0.0891 -0.1853
   50loPI   GL2  790  13.235   5.006   9.021  0.0887 -0.0678 -0.1624
   50loPI   C1A  791  13.052   5.503   8.693  0.2630 -0.0322 -0.0440
   50loPI   C2A  792  13.092   5.587   8.331  0.1122  0.2522 -0.0703
   50loPI   C3A  793  13.320   5.861   8.057  0.0773 -0.1987 -0.2672
   50loPI   C4A  794  13.367   6.260   7.943 -0.2093 -0.2822  0.3367
   50loPI   C5A  795  13.428   6.522   7.698 -0.1699 -0.1126  0.0357
   50loPI   C6A  796  13.652   6.837   7.735 -0.0143  0.2277  0.1900
   50loPI   C1B  797  13.260   5.087   8.591  0.1295  0.2080  0.1867
   50loPI   C2B  798  13.322   5.215   8.134  0.0566  0.1016 -0.4050
   50loPI   C3B  799  13.627   5.449   7.976  0.0943 -0.0282 -0.1498
   50loPI   C4B  800  13.689   5.841   7.721 -0.2155  0.2446  0.0021
   51loPI    C1  801   3.637   6.366   9.626  0.2514  0.1513 -0.0292
   51loPI    C2  802   3.620   5.975   9.705 -0.2197  0.1119 -0.2945
   51loPI    C3  803   3.965   6.140   9.591 -0.0357 -0.2421 -0.2651
   51loPI   PO4  804   3.350   6.382   9.462  0.1449  0.1131 -0.0322
   51loPI   GL1  805   3.109   6.610   9.168  0.1261  0.0892  0.1396
   51loPI   GL2  806   3.297   6.858   9.082 -0.0055  0.0162  0.3281
   51loPI   C1A  807   2.978   6.397   8.849 -0.2286  0.2327 -0.2163
   51loPI   C2A  808   2.983   6.288   8.465  0.2767  0.0390  0.1074
   51loPI   C3A  809   2.854   5.966   8.169  0.1230  0.1507  0.2600
   51loPI   C4A  810   2.713   5.974   7.784  0.0482 -0.0047 -0.1339
   51loPI   C5A  811   2.688   6.273   7.405 -0.1949  0.0739  0.3247
   51loPI   C6A  812   2.733   6.738   7.349  0.0477 -0.1238  0.0728
   51loPI   C1B  813   3.283   7.021   8.655 -0.3230 -0.3303 -0.2107
   51loPI   C2B  814   3.192   6.729   8.194 -0.1767 -0.5264  0.1393
   51loPI   C3B  815   2.918   6.633   7.853  0.1165 -0.4770 -0.1836
   51loPI   C4B  816   2.598   6.544   7.975 -0.1123  0.0026 -0.0819
   52loPI    C1  817   5.874  10.130  10.073 -0.0596  0.0032  0.2062
   52loPI    C2  818   6.232  10.211  10.233  0.0275  0.2918 -0.1201
   52loPI    C3  819   6.159   9.850  10.075  0.1056  0.1688  0.1192
   52loPI   PO4  820   5.800  10.281   9.898 -0.1143  0.1914 -0.0065
   52loPI   GL1  821   5.570  10.169   9.579  0.0103 -0.0086  0.1233
   52loPI   GL2  822   5.332   9.920   9.539  0.0341 -0.1024 -0.4940
   52loPI   C1A  823   5.953  10.210   9.215  0.1358 -0.0456 -0.2092
   52loPI   C2A  824   5.815  10.292   8.828 -0.0720  0.1352 -0.2397
   52loPI   C3A  825   5.552  10.393   8.466 -0.0494 -0.0122  0.0670
   52loPI   C4A  826   5.236  10.681   8.253 -0.0188 -0.0235 -0.0779
   52loPI   C5A  827   4.897  10.901   8.080 -0.0480 -0.1142  0.0835
   52loPI   C6A  828   4.713  11.301   7.995 -0.0446 -0.0079  0.0915
   52loPI   C1B  829   5.152   9.804   9.182 -0.2059  0.0520 -0.0672
   52loPI   C2B  830   4.989   9.679   8.744  0.0232  0.1149 -0.1592
   52loPI   C3B  831   4.646   9.511   8.528  0.2566 -0.0781  0.0991
   52loPI   C4B  832   4.670   9.579   8.175  0.0787  0.0735  0.0041
   53loPI    C1  833   0.704   7.459  10.324  0.0378  0.3076  0.0881
   53loPI    C2  834   0.886   7.479  10.679  0.0386  0.1138  0.0992
   53loPI    C3  835   0.844   7.126  10.494  0.1259  0.2263 -0.1390
   53loPI   PO4  836   0.743   7.676  10.159  0.0325 -0.0851  0.0559
   53loPI   GL1  837   0.756   7.667   9.757  0.2726 -0.1351  0.0554
   53loPI   GL2  838   1.036   7.532   9.469  0.0059  0.3153  0.0541
   53loPI   C1A  839   0.529   7.705   9.466  0.3323  0.1397 -0.1847
   53loPI   C2A  840   0.651   7.784   9.032 -0.1798 -0.0562  0.0560
   53loPI   C3A  841   0.782   7.948   8.590  0.0648 -0.0786  0.1022
   53loPI   C4A  842   0.951   7.975   8.296  0.0361  0.4421 -0.4169
   53loPI   C5A  843   1.190   7.951   8.038  0.0809 -0.2374  0.0010
   53loPI   C6A  844   1.338   8.410   7.790  0.1497  0.1123 -0.1478
   53loPI   C1B  845   0.969   7.396   9.094  0.2531 -0.3242  0.2341
   53loPI   C2B  846   0.996   7.474   8.608  0.0686  0.2457 -0.2942
   53loPI   C3B  847   1.100   7.339   8.140  0.1374  0.1917  0.1140
   53loPI   C4B  848   1.006   7.170   7.792 -0.0877 -0.0997  0.3140
   54loPI    C1  849  13.997   2.351  10.147 -0.2744  0.3005 -0.1010
   54loPI    C2  850  14.085   2.011  10.338 -0.4277  0.1671 -0.2641
   54loPI    C3  851  14.066   2.355  10.541 -0.1379  0.1020 -0.1215
   54loPI   PO4  852  14.102   2.456   9.896  0.0125 -0.1264 -0.1078
   54loPI   GL1  853  14.026   2.388   9.494  0.3729  0.0286  0.4453
   54loPI   GL2  854  14.271   2.453   9.327  0.1093 -0.0301  0.0457
   54loPI   C1A  855  13.864   2.038   9.424 -0.0077 -0.0923  0.2023
   54loPI   C2A  856  13.593   1.880   9.126 -0.0758  0.1996 -0.2386
   54loPI   C3A  857  13.723   1.868   8.779  0.0268  0.1026 -0.0113
   54loPI   C4A  858  13.838   1.888   8.332  0.1491  0.1310 -0.3827
   54loPI   C5A  859  13.835   1.967   7.853  0.1501  0.3114 -0.0427
   54loPI   C6A  860  13.734   1.863   7.494  0.3493 -0.1366  0.1225
   54loPI   C1B  861  14.372   2.779   8.969  0.3862  0.0207 -0.1282
   54loPI   C2B  862  14.305   3.141   8.776  0.1372 -0.0771 -0.1157
   54loPI   C3B  863  14.424   3.460   8.565 -0.1287  0.0321 -0.0594
   54loPI   C4B  864  14.583   3.448   8.239 -0.0910 -0.0391  0.4740
   55loPI    C1  865  18.187   8.934  10.344 -0.1164  0.1217 -0.1226
   55loPI    C2  866  17.951   8.761  10.617  0.0816 -0.0206 -0.0393
   55loPI    C3  867  18.309   8.904  10.724 -0.0432  0.3679 -0.1250
   55loPI   PO4  868  18.000   9.061  10.146 -0.2149 -0.3073 -0.1479
   55loPI   GL1  869  17.932   8.954   9.748  0.2183  0.1939 -0.1061
   55loPI   GL2  870  18.316   8.823   9.855 -0.3204  0.0414  0.0377
   55loPI   C1A  871  18.176   9.222   9.447 -0.0433  0.1613 -0.1307
   55loPI   C2A  872  18.170   9.269   8.956  0.1121 -0.1554  0.0311
   55loPI   C3A  873  17.974   9.293   8.555 -0.1641  0.0903  0.2923
   55loPI   C4A  874  17.847   9.331   8.092 -0.1331  0.0846  0.2185
   55loPI   C5A  875  17.620   9.147   7.741  0.0347 -0.2922 -0.1464
   55loPI   C6A  876  17.582   8.832   7.403 -0.1960  0.0899  0.1045
   55loPI   C1B  877  18.222   8.671   9.421 -0.1018  0.4196  0.2820
   55loPI   C2B  878  18.119   8.597   8.990 -0.0357 -0.0073  0.0096
   55loPI   C3B  879  17.845   8.669   8.622 -0.0221  0.0745  0.2744
   55loPI   C4B  880  17.652   8.717   8.327 -0.0040 -0.1935  0.0775
   56loPI    C1  881   9.347  17.694   9.907 -0.1709 -0.0529 -0.0693
   56loPI    C2  882   9.414  17.300   9.902 -0.1577 -0.0562  0.2041
   56loPI    C3  883   9.679  17.546  10.073  0.1464  0.1405 -0.5116
   56loPI   PO4  884   9.070  17.761  10.005 -0.1049  0.2365 -0.0944
   56loPI   GL1  885   8.782  17.886   9.684  0.3870  0.0606 -0.0105
   56loPI   GL2  886   8.635  18.252   9.600 -0.1607  0.2489 -0.0672
   56loPI   C1A  887   8.577  17.802   9.359 -0.1686  0.0837 -0.0569
   56loPI   C2A  888   8.521  17.774   8.860  0.0114 -0.2726  0.2074
   56loPI   C3A  889   8.406  17.538   8.530  0.1536 -0.1758 -0.0845
   56loPI   C4A  890   8.337  17.301   8.228 -0.0068  0.0796  0.0965
   56loPI   C5A  891   8.534  17.042   7.876  0.2990 -0.2731 -0.1137
   56loPI   C6A  892   8.409  16.781   7.552 -0.1739 -0.3704 -0.1700
   56loPI   C1B  893   8.620  18.245   9.160 -0.0241  0.2886 -0.1072
   56loPI   C2B  894   8.751  18.293   8.756  0.1679  0.0331  0.0842
   56loPI   C3B  895   8.821  18.383   8.281 -0.0869  0.0781 -0.2243
   56loPI   C4B  896   8.892  18.333   7.802  0.0850  0.0677  0.0296
   57loPI    C1  897  18.421  12.612  10.396 -0.0713 -0.0644 -0.2278
   57loPI    C2  898  18.147  12.380  10.219 -0.0605 -0.2840  0.0376
   57loPI    C3  899  18.321  12.260  10.559  0.0969  0.0217  0.0679
   57loPI   PO4  900  18.601  12.652  10.147 -0.0861  0.1137  0.0876
   57loPI   GL1  901  18.512  12.757   9.740 -0.1570 -0.1980 -0.1100
   57loPI   GL2  902  18.288  12.605   9.733  0.0228 -0.1832  0.0027
   57loPI   C1A  903  18.513  13.047   9.398  0.0269 -0.1597  0.0769
   57loPI   C2A  904  18.676  13.070   8.955  0.1567 -0.0689 -0.0143
   57loPI   C3A  905  18.611  13.055   8.463  0.0747  0.2096  0.0778
   57loPI   C4A  906  18.745  12.843   8.068 -0.1227  0.1991 -0.0452
   57loPI   C5A  907  19.068  12.629   7.806  0.0254  0.3815  0.1318
   57loPI   C6A  908  19.253  12.283   8.059  0.1020 -0.0365 -0.0560
   57loPI   C1B  909  18.368  12.600   9.296  0.1386 -0.3300  0.1769
   57loPI   C2B  910  18.360  12.597   8.906  0.0321 -0.0303 -0.1224
   57loPI   C3B  911  18.433  12.601   8.463 -0.3241 -0.1111  0.2976
   57loPI   C4B  912  18.587  12.398   8.026  0.0761  0.0312 -0.1296
   58loPI    C1  913  18.971   4.388  10.297  0.0200  0.0177 -0.0187
   58loPI    C2  914  18.644   4.219  10.454 -0.1453  0.2656 -0.0906
   58loPI    C3  915  18.939   4.342  10.694  0.0661 -0.2921 -0.0478
   58loPI   PO4  916  19.089   4.337  10.083  0.1821  0.0214 -0.1404
   58loPI   GL1  917  19.176   4.575   9.684 -0.2757  0.3954  0.3028
   58loPI   GL2  918  19.070   4.830   9.516 -0.3826 -0.2496  0.0630
   58loPI   C1A  919  18.872   4.373   9.458 -0.2367  0.0433  0.0786
   58loPI   C2A  920  18.634   4.257   9.059 -0.0275  0.2549  0.1201
   58loPI   C3A  921  18.729   4.019   8.646 -0.1161  0.0601 -0.1449
   58loPI   C4A  922  18.826   3.770   8.182  0.0681  0.2096 -0.0092
   58loPI   C5A  923  18.551   3.609   7.956  0.2190 -0.0702 -0.1714
   58loPI   C6A  924  18.370   3.220   7.814 -0.1023 -0.0821  0.0560
   58loPI   C1B  925  18.819   4.744   9.161  0.0882 -0.0380  0.0040
   58loPI   C2B  926  18.700   4.716   8.685 -0.1565 -0.0498  0.0034
   58loPI   C3B  927  18.474   4.463   8.431 -0.2173  0.0442  0.0198
   58loPI   C4B  928  18.450   4.072   8.180 -0.3101  0.2931  0.2871
   59loPI    C1  929  11.985   4.517   9.605  0.0812  0.3320  0.0135
   59loPI    C2  930  11.980   4.692   9.245 -0.2100  0.4852  0.0885
   59loPI    C3  931  11.644   4.536   9.397  0.0567 -0.2268 -0.0125
   59loPI   PO4  932  12.276   4.352   9.607 -0.2015  0.1259  0.1139
   59loPI   GL1  933  12.548   4.444   9.349  0.0908  0.3466  0.2664
   59loPI   GL2  934  12.662   4.108   9.139  0.3897  0.0396  0.0741
   59loPI   C1A  935  12.454   4.460   8.988  0.2183  0.1337  0.0838
   59loPI   C2A  936  12.340   4.596   8.586 -0.1234  0.1072 -0.0017
   59loPI   C3A  937  12.464   4.817   8.288  0.1030 -0.1382 -0.0500
   59loPI   C4A  938  12.422   4.851   7.905 -0.1862 -0.0590 -0.1054
   59loPI   C5A  939  12.245   4.879   7.512  0.0281 -0.2395  0.3304
   59loPI   C6A  940  12.012   5.018   7.186  0.0892  0.1380  0.2811
   59loPI   C1B  941  12.852   4.105   8.775 -0.0661  0.0499  0.0976
   59loPI   C2B  942  12.683   4.037   8.424  0.1107 -0.2198 -0.2507
   59loPI   C3B  943  12.759   3.925   8.004 -0.2055 -0.0473 -0.0675
   59loPI   C4B  944  12.577   3.621   7.790  0.3986  0.1890  0.0764
   60loPI    C1  945  12.733  18.307  10.330 -0.0619 -0.3154  0.0917
   60loPI    C2  946  12.448  18.583  10.379  0.1917 -0.0098 -0.1170
   60loPI    C3  947  12.789  18.608  10.587  0.1839 -0.2125 -0.0779
   60loPI   PO4  948  12.678  18.295  10.067 -0.2282 -0.3213 -0.0735
   60loPI   GL1  949  12.572  18.186   9.635 -0.5662 -0.1122  0.0316
   60loPI   GL2  950  12.710  17.928   9.448  0.1697 -0.1560 -0.0961
   60loPI   C1A  951  12.250  18.501   9.456  0.0167  0.0530 -0.1218
   60loPI   C2A  952  12.069  18.661   8.961 -0.0846  0.0391 -0.2219
   60loPI   C3A  953  11.834  18.813   8.499  0.0597 -0.0596 -0.3457
   60loPI   C4A  954  11.721  18.996   8.147 -0.0214  0.1556  0.0424
   60loPI   C5A  955  11.528  18.937   7.726 -0.1096 -0.0655 -0.0688
   60loPI   C6A  956  11.041  18.829   7.618 -0.2862  0.0573  0.3121
   60loPI   C1B  957  12.817  18.028   9.132  0.0416  0.1397  0.2429
   60loPI   C2B  958  12.922  18.145   8.731 -0.0927  0.1761  0.2876
   60loPI   C3B  959  12.916  18.530   8.482  0.0804 -0.0356 -0.1337
   60loPI   C4B  960  12.804  18.608   8.065  0.0976  0.0080 -0.0935
   61loPI    C1  961  15.879   3.084  10.000  0.2119  0.1178 -0.1731
   61loPI    C2  962  15.576   3.128  10.258  0.2201  0.1475 -0.1687
   61loPI    C3  963  15.750   2.771  10.213  0.4601  0.2216  0.1387
   61loPI   PO4  964  15.704   3.234   9.790 -0.0806 -0.4549  0.2419
   61loPI   GL1  965  15.548   3.264   9.420 -0.4320 -0.3311 -0.0217
   61loPI   GL2  966  15.619   2.961   9.242 -0.0487 -0.0406  0.2906
   61loPI   C1A  967  15.704   3.359   8.904  0.1098 -0.4554  0.0558
   61loPI   C2A  968  16.017   3.219   8.642 -0.2140  0.3808  0.1569
   61loPI   C3A  969  16.413   3.241   8.587  0.1431  0.2046  0.0680
   61loPI   C4A  970  16.728   3.224   8.577 -0.1930 -0.2129  0.0887
   61loPI   C5A  971  16.911   3.512   8.341  0.0321  0.2435  0.0217
   61loPI   C6A  972  17.239   3.486   8.035 -0.0073 -0.0355  0.2136
   61loPI   C1B  973  15.708   2.850   8.791 -0.0280 -0.1140 -0.0012
   61loPI   C2B  974  15.669   2.866   8.433 -0.0726  0.0592  0.1220
   61loPI   C3B  975  15.832   2.872   7.960 -0.4167 -0.1065 -0.0563
   61loPI   C4B  976  16.169   2.696   7.805 -0.2852  0.1904  0.0317
   62loPI    C1  977   5.975   2.112  10.067  0.0882 -0.2471 -0.0719
   62loPI    C2  978   5.655   2.191  10.294  0.0934  0.0126 -0.1513
   62loPI    C3  979   5.869   1.859  10.357 -0.0815 -0.0681  0.0247
   62loPI   PO4  980   5.912   2.141   9.845  0.2089  0.2324 -0.2496
   62loPI   GL1  981   5.543   2.154   9.497  0.1630 -0.2436  0.5658
   62loPI   GL2  982   5.523   1.856   9.516  0.1622 -0.0100  0.4865
   62loPI   C1A  983   5.544   2.283   8.970 -0.2755 -0.2320  0.4249
   62loPI   C2A  984   5.559   2.266   8.528  0.0098  0.0117 -0.0740
   62loPI   C3A  985   5.526   2.153   8.050  0.1142 -0.0535 -0.4742
   62loPI   C4A  986   5.579   2.269   7.659 -0.2896 -0.0381  0.0761
   62loPI   C5A  987   5.343   2.184   7.173 -0.0744  0.2599  0.3698
   62loPI   C6A  988   5.211   2.176   6.724 -0.1442 -0.0451 -0.1339
   62loPI   C1B  989   5.564   1.769   9.087  0.2550  0.1252  0.3261
   62loPI   C2B  990   5.547   1.796   8.669 -0.0671 -0.1947 -0.0047
   62loPI   C3B  991   5.781   1.768   8.205 -0.1502 -0.1247  0.1276
   62loPI   C4B  992   5.748   1.755   7.819 -0.0745  0.0561  0.0700
   63loPI    C1  993  11.657  18.476  10.188 -0.1515  0.1241  0.0320
   63loPI    C2  994  11.654  18.258  10.523 -0.2501 -0.0972 -0.1112
   63loPI    C3  995  11.937  18.536  10.468 -0.1357 -0.1732  0.0822
   63loPI   PO4  996  11.676  18.314   9.933  0.2375  0.0953  0.0204
   63loPI   GL1  997  11.524  17.942   9.833  0.1078 -0.0602 -0.3125
   63loPI   GL2  998  11.785  17.647   9.713 -0.1208  0.0857 -0.1843
   63loPI   C1A  999  11.317  17.975   9.507 -0.0518 -0.2406  0.1341
   63loPI   C2A 1000  11.387  18.215   9.194  0.3456  0.1765  0.1715
   63loPI   C3A 1001  11.391  18.092   8.803 -0.1764 -0.0267 -0.3970
   63loPI   C4A 1002  11.534  17.968   8.420 -0.1962  0.0256 -0.1472
   63loPI   C5A 1003  11.479  18.068   8.013 -0.0006 -0.1318  0.0881
   63loPI   C6A 1004  11.366  17.979   7.674  0.0333 -0.0152  0.0082
   63loPI   C1B 1005  11.681  17.718   9.380 -0.1708  0.0543 -0.0091
   63loPI   C2B 1006  11.760  17.703   8.945 -0.1900 -0.0243  0.3915
   63loPI   C3B 1007  11.967  17.764   8.512 -0.2397 -0.1949 -0.2380
   63loPI   C4B 1008  12.049  18.030   8.145 -0.0931 -0.2157 -0.3883
   64loPI    C1 1009   2.656  16.036   9.849  0.2174 -0.4834  0.0605
   64loPI    C2 1010   2.889  16.294  10.047  0.0307 -0.1931 -0.0910
   64loPI    C3 1011   2.677  16.021  10.248  0.1721 -0.1815  0.0767
   64loPI   PO4 1012   2.802  16.027   9.647  0.0794 -0.1069  0.0831
   64loPI   GL1 1013   2.739  15.888   9.188  0.0916  0.0868 -0.0192
   64loPI   GL2 1014   2.741  15.995   8.871 -0.0972 -0.0468  0.1520
   64loPI   C1A 1015   2.992  15.558   9.016 -0.0921  0.0994  0.0044
   64loPI   C2A 1016   3.058  15.225   8.773  0.0179  0.3061  0.1977
   64loPI   C3A 1017   3.098  15.063   8.419  0.1182 -0.0163 -0.3747
   64loPI   C4A 1018   2.851  14.945   8.070 -0.0235  0.1873  0.0817
   64loPI   C5A 1019   2.873  14.594   7.763 -0.1364 -0.1531  0.0586
   64loPI   C6A 1020   2.678  14.366   7.281  0.0360 -0.3000  0.0060
   64loPI   C1B 1021   2.786  15.774   8.534 -0.2899 -0.0770 -0.2924
   64loPI   C2B 1022   2.916  15.498   8.259  0.1654  0.2049 -0.0078
   64loPI   C3B 1023   2.811  15.515   7.803 -0.1461 -0.0065 -0.2586
   64loPI   C4B 1024   3.069  15.285   7.493  0.0915 -0.2862  0.2242
   65loPI    C1 1025   6.405  10.867  10.035  0.0668  0.0111 -0.0129
   65loPI    C2 1026   6.482  10.613  10.335  0.1345 -0.0160 -0.0531
   65loPI    C3 1027   6.587  10.998  10.367  0.0016  0.0146  0.0215
   65loPI   PO4 1028   6.201  10.652   9.910 -0.2427 -0.2365  0.2371
   65loPI   GL1 1029   5.925  10.637   9.540 -0.0351  0.0933 -0.3447
   65loPI   GL2 1030   5.620  10.667   9.476  0.1915 -0.0074  0.1501
   65loPI   C1A 1031   6.001  10.704   9.124 -0.0065 -0.1074 -0.1487
   65loPI   C2A 1032   5.946  10.779   8.644 -0.0414 -0.3185  0.2709
   65loPI   C3A 1033   5.768  10.833   8.230  0.0496 -0.0528 -0.0464
   65loPI   C4A 1034   5.566  10.624   7.938  0.1918  0.0631 -0.1879
   65loPI   C5A 1035   5.465  10.385   7.563 -0.4212  0.1369  0.0720
   65loPI   C6A 1036   5.228  10.057   7.505  0.0011  0.1143 -0.0993
   65loPI   C1B 1037   5.509  10.687   8.992  0.3051 -0.4203 -0.0849
   65loPI   C2B 1038   5.445  10.863   8.655 -0.0097  0.0286  0.1484
   65loPI   C3B 1039   5.582  11.248   8.404 -0.1892 -0.2027 -0.0361
   65loPI   C4B 1040   5.599  11.308   7.898 -0.0662  0.1807  0.0673
   66loPI    C1 1041  18.350   4.948  10.209 -0.0503 -0.1674 -0.1131
   66loPI    C2 1042  18.224   4.813  10.564  0.1426  0.0408  0.0372
   66loPI    C3 1043  18.566   4.677  10.408 -0.0020 -0.1391 -0.1271
   66loPI   PO4 1044  18.141   4.899   9.957  0.2399  0.2782  0.0146
   66loPI   GL1 1045  18.119   4.879   9.481 -0.1398  0.4443 -0.0397
   66loPI   GL2 1046  18.455   4.641   9.430  0.2417 -0.0240  0.2325
   66loPI   C1A 1047  17.911   5.085   9.059  0.3292  0.0577 -0.0383
   66loPI   C2A 1048  17.944   5.407   8.890 -0.0689  0.0133  0.0488
   66loPI   C3A 1049  18.154   5.607   8.505  0.2898  0.4241  0.2376
   66loPI   C4A 1050  18.236   5.512   8.100  0.0446 -0.4322 -0.0661
   66loPI   C5A 1051  18.375   5.206   7.906  0.2594 -0.2883 -0.0795
   66loPI   C6A 1052  18.556   4.943   7.618 -0.1398 -0.2762 -0.0157
   66loPI   C1B 1053  18.248   4.603   8.969 -0.1817  0.0100 -0.4386
   66loPI   C2B 1054  18.012   4.655   8.616 -0.2610 -0.1596  0.2609
   66loPI   C3B 1055  17.706   4.575   8.290 -0.2747 -0.0512 -0.2187
   66loPI   C4B 1056  17.441   4.425   8.040  0.1648 -0.1166  0.2631
   67loPI    C1 1057  13.368  15.681   9.923 -0.0056 -0.0736  0.1431
   67loPI    C2 1058  13.710  15.775  10.108  0.1274 -0.3100  0.0218
   67loPI    C3 1059  13.497  15.458  10.228 -0.0282 -0.1889  0.0691
   67loPI   PO4 1060  13.498  15.743   9.657  0.5321  0.2399 -0.0419
   67loPI   GL1 1061  13.817  15.626   9.311  0.2821 -0.0436 -0.0870
   67loPI   GL2 1062  13.568  15.608   9.211 -0.0434 -0.0204  0.1345
   67loPI   C1A 1063  13.929  15.746   8.860 -0.0265 -0.0903  0.0175
   67loPI   C2A 1064  14.372  16.014   8.600  0.0561  0.1974  0.1407
   67loPI   C3A 1065  14.422  16.413   8.542  0.0109 -0.1075  0.1061
   67loPI   C4A 1066  14.673  16.589   8.216  0.2077 -0.2515  0.2562
   67loPI   C5A 1067  14.544  16.731   7.865 -0.1378 -0.0666  0.2072
   67loPI   C6A 1068  14.392  16.965   7.506 -0.0053 -0.2626 -0.1877
   67loPI   C1B 1069  13.432  15.834   8.743  0.0765 -0.0412 -0.0845
   67loPI   C2B 1070  13.373  15.979   8.289 -0.3053 -0.1052 -0.0017
   67loPI   C3B 1071  13.415  15.924   7.774  0.0822 -0.1417 -0.0762
   67loPI   C4B 1072  13.512  15.932   7.338  0.1385 -0.0868  0.2314
   68loPI    C1 1073   8.205   6.304   9.875 -0.0309 -0.2147  0.1305
   68loPI    C2 1074   8.537   6.416  10.067  0.0154 -0.0726 -0.0297
   68loPI    C3 1075   8.266   6.187  10.253  0.1374 -0.0760  0.1473
   68loPI   PO4 1076   8.219   6.508   9.719  0.1674 -0.1546 -0.1697
   68loPI   GL1 1077   8.043   6.626   9.273  0.1508 -0.1005  0.3784
   68loPI   GL2 1078   8.238   6.471   9.175 -0.1159  0.1077 -0.1440
   68loPI   C1A 1079   7.889   6.691   8.891  0.0684 -0.0061 -0.1536
   68loPI   C2A 1080   7.738   6.779   8.512  0.0022 -0.0389 -0.0989
   68loPI   C3A 1081   7.528   6.716   8.102 -0.3876  0.1581 -0.1722
   68loPI   C4A 1082   7.433   6.410   7.773 -0.0509 -0.2730 -0.0979
   68loPI   C5A 1083   7.369   6.076   7.508  0.2428 -0.4234  0.0682
   68loPI   C6A 1084   7.125   5.732   7.463  0.3714 -0.1040  0.2697
   68loPI   C1B 1085   8.230   6.074   8.903 -0.1242  0.1052  0.0596
   68loPI   C2B 1086   8.377   5.960   8.650 -0.0809  0.0212  0.4138
   68loPI   C3B 1087   8.237   6.045   8.274 -0.1022 -0.1203  0.0792
   68loPI   C4B 1088   8.218   6.124   7.901  0.0458  0.1998 -0.0461
   69loPI    C1 1089  10.487  17.967  10.409  0.0955  0.0205 -0.2257
   69loPI    C2 1090  10.383  18.254  10.668 -0.0650 -0.0311 -0.2314
   69loPI    C3 1091  10.503  17.897  10.803 -0.0562 -0.0265 -0.2271
   69loPI   PO4 1092  10.572  18.119  10.231 -0.0383  0.1493 -0.2860
   69loPI   GL1 1093  10.580  18.235   9.833  0.0712  0.2498 -0.0072
   69loPI   GL2 1094  10.268  18.087   9.797 -0.3703  0.1901  0.2518
   69loPI   C1A 1095  10.898  18.187   9.541 -0.0552  0.0761  0.0731
   69loPI   C2A 1096  10.891  18.183   9.061  0.0994 -0.1579 -0.0379
   69loPI   C3A 1097  10.909  18.191   8.567 -0.0576 -0.2448 -0.3091
   69loPI   C4A 1098  11.112  18.323   8.242  0.2501  0.1570  0.0912
   69loPI   C5A 1099  11.004  18.333   7.741 -0.1248  0.2326  0.5251
   69loPI   C6A 1100  10.630  18.427   7.568 -0.4369 -0.2090 -0.3407
   69loPI   C1B 1101  10.394  18.084   9.348 -0.0663  0.1545  0.1920
   69loPI   C2B 1102  10.403  18.021   9.017 -0.0935  0.3943  0.0956
   69loPI   C3B 1103  10.359  17.968   8.675 -0.1401 -0.0564 -0.2372
   69loPI   C4B 1104  10.143  17.960   8.249 -0.1414  0.3366 -0.1949
   70loPI    C1 1105  15.128   9.810  10.235  0.0131  0.1729 -0.2718
   70loPI    C2 1106  15.491   9.833  10.069  0.0291 -0.0195 -0.2650
   70loPI    C3 1107  15.449   9.688  10.439 -0.0224  0.2771 -0.1519
   70loPI   PO4 1108  14.933   9.632  10.110 -0.1436 -0.0331 -0.0487
   70loPI   GL1 1109  14.986   9.234   9.886  0.1571 -0.1616 -0.1073
   70loPI   GL2 1110  15.257   9.362   9.843 -0.1964 -0.1003 -0.0249
   70loPI   C1A 1111  14.897   9.325   9.371 -0.2965  0.1527 -0.1145
   70loPI   C2A 1112  14.988   9.294   8.969  0.0135  0.1017 -0.0416
   70loPI   C3A 1113  15.089   9.177   8.591  0.0653 -0.0591 -0.2721
   70loPI   C4A 1114  15.142   9.034   8.158  0.1186 -0.1123 -0.1252
   70loPI   C5A 1115  14.887   9.095   7.686  0.0194  0.0781 -0.2723
   70loPI   C6A 1116  14.760   8.740   7.451  0.2016 -0.0894 -0.0281
   70loPI   C1B 1117  15.403   9.474   9.468  0.2951  0.1944  0.1564
   70loPI   C2B 1118  15.424   9.449   8.990  0.1510  0.3994  0.1001
   70loPI   C3B 1119  15.480   9.488   8.546 -0.0137  0.0112  0.1751
   70loPI   C4B 1120  15.536   9.551   8.085 -0.3706 -0.1415  0.2860
   71loPI    C1 1121  17.594   9.470  10.263  0.0484  0.0501  0.0255
   71loPI    C2 1122  17.458   9.155  10.058  0.1383  0.1487 -0.1888
   71loPI    C3 1123  17.598   9.106  10.430  0.1188 -0.0576 -0.2073
   71loPI   PO4 1124  17.349   9.659  10.146  0.1078  0.1938  0.1826
   71loPI   GL1 1125  17.164   9.678   9.709 -0.1395  0.0940 -0.3531
   71loPI   GL2 1126  16.888   9.914   9.530  0.1841 -0.1498 -0.2677
   71loPI   C1A 1127  17.259   9.420   9.333  0.1137 -0.2252  0.1097
   71loPI   C2A 1128  16.926   9.230   9.006 -0.0354  0.3349 -0.0128
   71loPI   C3A 1129  16.961   8.921   8.664 -0.0219 -0.0766  0.3471
   71loPI   C4A 1130  16.835   8.752   8.352 -0.1317 -0.2667  0.3048
   71loPI   C5A 1131  16.870   8.796   8.007 -0.5733 -0.1805 -0.2182
   71loPI   C6A 1132  17.198   8.935   7.649 -0.1391 -0.2512 -0.2447
   71loPI   C1B 1133  17.035   9.838   9.111 -0.1759  0.4840  0.0874
   71loPI   C2B 1134  17.165   9.684   8.722 -0.1184  0.1684 -0.0597
   71loPI   C3B 1135  17.029   9.469   8.289 -0.0973  0.2156 -0.0469
   71loPI   C4B 1136  16.703   9.531   8.034 -0.2318 -0.1132 -0.1580
   72loPI    C1 1137   9.263   1.065  10.097 -0.1974  0.2383 -0.0424
   72loPI    C2 1138   8.897   0.947  10.206 -0.1892  0.0643 -0.1980
   72loPI    C3 1139   9.217   0.744  10.332 -0.1612  0.0622 -0.2720
   72loPI   PO4 1140   9.246   1.014   9.819  0.0523 -0.4819 -0.2806
   72loPI   GL1 1141   9.146   1.129   9.433 -0.1326 -0.1667  0.0844
   72loPI   GL2 1142   9.145   0.758   9.336 -0.1782 -0.1465 -0.0402
   72loPI   C1A 1143   9.343   1.088   8.996 -0.0827  0.1313  0.0485
   72loPI   C2A 1144   9.160   1.019   8.516  0.0703  0.0748 -0.1348
   72loPI   C3A 1145   9.375   0.974   8.144  0.0025 -0.0047  0.2081
   72loPI   C4A 1146   9.409   0.942   7.780  0.1043  0.0951  0.3005
   72loPI   C5A 1147   9.136   1.023   7.386 -0.0946 -0.2234  0.0062
   72loPI   C6A 1148   8.950   1.222   7.016 -0.1529 -0.3848  0.5358
   72loPI   C1B 1149   9.080   0.622   8.867  0.0941 -0.1299 -0.1528
   72loPI   C2B 1150   8.984   0.413   8.574  0.1469 -0.0840 -0.0875
   72loPI   C3B 1151   8.702   0.269   8.303 -0.1292 -0.0037 -0.0551
   72loPI   C4B 1152   8.641   0.305   7.933 -0.0053  0.1667 -0.3415
   73loPI    C1 1153   0.599   8.328  10.404  0.0276  0.1595  0.0140
   73loPI    C2 1154   0.950   8.166  10.507  0.0264  0.0323 -0.1763
   73loPI    C3 1155   0.671   8.232  10.786  0.1319 -0.0369 -0.0534
   73loPI   PO4 1156   0.546   8.192  10.220  0.0281  0.0533 -0.0543
   73loPI   GL1 1157   0.668   8.168   9.891  0.0402 -0.2718  0.0823
   73loPI   GL2 1158   0.995   8.060   9.712  0.1575  0.0533 -0.0163
   73loPI   C1A 1159   0.680   8.551   9.588  0.1139  0.3683 -0.1625
   73loPI   C2A 1160   0.783   8.817   9.254  0.0601  0.0026 -0.0048
   73loPI   C3A 1161   0.807   8.829   8.853 -0.2249 -0.1726 -0.2407
   73loPI   C4A 1162   1.027   8.872   8.463  0.0613  0.1619  0.3311
   73loPI   C5A 1163   1.064   8.874   8.075  0.3066  0.2732 -0.0230
   73loPI   C6A 1164   0.716   8.952   7.836  0.0738 -0.2767 -0.0134
   73loPI   C1B 1165   0.825   8.095   9.369  0.1640  0.0860 -0.0069
   73loPI   C2B 1166   0.785   8.353   8.976 -0.0900 -0.0869  0.2361
   73loPI   C3B 1167   0.725   8.422   8.496 -0.1950 -0.0471  0.0319
   73loPI   C4B 1168   0.807   8.429   8.021 -0.3391  0.0238  0.2725
   74loPI    C1 1169   0.953   6.023   9.990  0.0517 -0.2229 -0.0513
   74loPI    C2 1170   0.570   6.054   9.876  0.1062  0.0967 -0.1574
   74loPI    C3 1171   0.681   6.175  10.241  0.1193  0.0739 -0.1538
   74loPI   PO4 1172   1.085   6.181   9.825  0.1611 -0.0103  0.1410
   74loPI   GL1 1173   1.141   6.201   9.389 -0.4144 -0.0745  0.2094
   74loPI   GL2 1174   0.763   6.092   9.448 -0.0513 -0.2399  0.2269
   74loPI   C1A 1175   0.938   6.242   8.988 -0.3610  0.1249  0.2226
   74loPI   C2A 1176   1.016   5.924   8.582 -0.0300 -0.0192  0.1791
   74loPI   C3A 1177   1.252   5.857   8.151  0.2246 -0.2716  0.0036
   74loPI   C4A 1178   1.180   5.686   7.726 -0.0947 -0.0101 -0.3862
   74loPI   C5A 1179   0.782   5.684   7.575  0.0546  0.0736  0.1152
   74loPI   C6A 1180   0.557   5.608   7.129 -0.1019 -0.3351 -0.2559
   74loPI   C1B 1181   0.947   5.748   9.158 -0.0469 -0.0808  0.2258
   74loPI   C2B 1182   0.638   5.511   8.933 -0.0840  0.0150 -0.0301
   74loPI   C3B 1183   0.493   5.368   8.631 -0.1353 -0.1888  0.3165
   74loPI   C4B 1184   0.446   5.384   8.290  0.0992 -0.0730 -0.0967
   75loPI    C1 1185   6.723   4.050  10.002 -0.0931 -0.0701 -0.1630
   75loPI    C2 1186   6.399   4.080  10.233 -0.0099 -0.0684 -0.0458
   75loPI    C3 1187   6.761   4.050  10.400  0.0606  0.0467 -0.1767
   75loPI   PO4 1188   6.594   3.901   9.738 -0.1434  0.2473  0.4226
   75loPI   GL1 1189   6.383   3.909   9.326  0.1083  0.0174  0.1057
   75loPI   GL2 1190   6.775   4.071   9.257 -0.0788  0.0595 -0.1995
   75loPI   C1A 1191   6.031   3.859   9.028 -0.0727  0.0918 -0.0511
   75loPI   C2A 1192   5.849   3.654   8.659 -0.0771 -0.0511 -0.3353
   75loPI   C3A 1193   5.634   3.640   8.315 -0.3224  0.0764 -0.0976
   75loPI   C4A 1194   5.660   3.787   7.916 -0.2387 -0.0518 -0.3248
   75loPI   C5A 1195   5.822   3.932   7.432  0.0209  0.1818 -0.1595
   75loPI   C6A 1196   6.074   4.206   7.378  0.3055 -0.1097 -0.2036
   75loPI   C1B 1197   7.036   3.948   8.890  0.1323  0.0525 -0.1247
   75loPI   C2B 1198   7.213   3.995   8.530 -0.0277  0.2295 -0.1985
   75loPI   C3B 1199   7.154   4.000   8.196 -0.0640 -0.3504 -0.0074
   75loPI   C4B 1200   6.956   3.843   7.772  0.3190  0.0526  0.0517
   76loPI    C1 1201   4.772  14.144  10.238 -0.2130 -0.2039 -0.0478
   76loPI    C2 1202   4.614  13.777  10.247  0.1012 -0.3455 -0.1448
   76loPI    C3 1203   4.720  13.957  10.588 -0.0116 -0.3622 -0.1004
   76loPI   PO4 1204   5.040  14.109  10.036  0.1744 -0.1795  0.1309
   76loPI   GL1 1205   5.129  14.062   9.578  0.2411 -0.0623 -0.3581
   76loPI   GL2 1206   5.263  13.751   9.765  0.1622  0.0928 -0.0370
   76loPI   C1A 1207   5.422  13.907   9.340  0.0190 -0.1610  0.1258
   76loPI   C2A 1208   5.583  13.613   9.102  0.0127 -0.2701 -0.0929
   76loPI   C3A 1209   5.820  13.209   8.991 -0.5384 -0.0492 -0.1264
   76loPI   C4A 1210   5.886  12.889   8.756 -0.0986 -0.3390 -0.3525
   76loPI   C5A 1211   6.158  12.799   8.431  0.1024 -0.1123 -0.0043
   76loPI   C6A 1212   6.526  12.732   8.192 -0.1492  0.1057 -0.0653
   76loPI   C1B 1213   5.125  13.475   9.293 -0.0232 -0.0279  0.0204
   76loPI   C2B 1214   5.194  13.491   8.808 -0.1791 -0.1254  0.0831
   76loPI   C3B 1215   5.264  13.456   8.235  0.0186 -0.0335  0.2498
   76loPI   C4B 1216   5.408  13.170   7.991  0.3341 -0.0563  0.1830
   77loPI    C1 1217   7.042  15.869  10.336  0.1654 -0.1681  0.1494
   77loPI    C2 1218   7.097  16.100  10.657 -0.0549  0.1456 -0.0325
   77loPI    C3 1219   6.735  15.948  10.580  0.0416 -0.0899 -0.0289
   77loPI   PO4 1220   7.146  16.023  10.161  0.1636 -0.2926  0.2249
   77loPI   GL1 1221   7.333  16.042   9.848 -0.0146  0.2064 -0.2185
   77loPI   GL2 1222   7.547  16.331   9.676  0.4554  0.1661  0.2559
   77loPI   C1A 1223   7.480  15.907   9.480  0.0652  0.2218 -0.3510
   77loPI   C2A 1224   7.509  15.915   9.047 -0.1928 -0.1639 -0.0469
   77loPI   C3A 1225   7.804  16.024   8.741 -0.2084 -0.3346  0.1726
   77loPI   C4A 1226   8.069  16.189   8.429  0.2177  0.1388 -0.2538
   77loPI   C5A 1227   7.989  16.013   8.051  0.0548  0.0203 -0.1417
   77loPI   C6A 1228   7.886  15.914   7.571 -0.0397 -0.1495 -0.0973
   77loPI   C1B 1229   7.498  16.432   9.286 -0.0928  0.0346  0.0696
   77loPI   C2B 1230   7.524  16.405   8.804 -0.0844  0.2590  0.2642
   77loPI   C3B 1231   7.613  16.495   8.434  0.1016  0.0293  0.0806
   77loPI   C4B 1232   7.660  16.441   7.994  0.1902 -0.0902  0.2223
   78loPI    C1 1233  13.302   0.414  10.456  0.1907 -0.0064 -0.1761
   78loPI    C2 1234  13.548   0.519  10.753 -0.0495 -0.0441  0.0390
   78loPI    C3 1235  13.473   0.133  10.684 -0.1137 -0.0298  0.0283
   78loPI   PO4 1236  13.282   0.787  10.305  0.1017  0.4560 -0.2369
   78loPI   GL1 1237  13.228   1.024   9.903 -0.1368  0.2100  0.1457
   78loPI   GL2 1238  13.217   1.102   9.516  0.0434 -0.1134  0.1208
   78loPI   C1A 1239  13.527   0.622   9.756  0.1356  0.0688  0.2071
   78loPI   C2A 1240  13.755   0.591   9.347 -0.1754  0.2735  0.3181
   78loPI   C3A 1241  13.682   0.451   8.886 -0.1100 -0.0707  0.2177
   78loPI   C4A 1242  13.532   0.364   8.489  0.3303 -0.0101  0.0357
   78loPI   C5A 1243  13.532   0.219   8.079  0.0814 -0.0139  0.0373
   78loPI   C6A 1244  13.660   0.020   7.778  0.0441 -0.0620  0.1198
   78loPI   C1B 1245  13.076   1.220   9.071 -0.1478  0.0229  0.0278
   78loPI   C2B 1246  13.280   1.242   8.606 -0.0670 -0.3157  0.0893
   78loPI   C3B 1247  13.205   1.114   8.244  0.0065  0.4490  0.2243
   78loPI   C4B 1248  13.410   1.099   7.908  0.2590 -0.0752  0.1290
   79loPI    C1 1249  12.208  18.128  10.273 -0.1744  0.2684  0.0599
   79loPI    C2 1250  12.024  17.943  10.576  0.0318  0.1463  0.1125
   79loPI    C3 1251  12.352  18.162  10.645 -0.0214  0.2614  0.0022
   79loPI   PO4 1252  12.198  17.869  10.018  0.1621  0.3292  0.0536
   79loPI   GL1 1253  12.119  18.018   9.560  0.3049  0.0393  0.0019
   79loPI   GL2 1254  12.308  17.677   9.532 -0.0013 -0.0598 -0.2207
   79loPI   C1A 1255  11.887  18.238   9.154 -0.2110  0.0236  0.2269
   79loPI   C2A 1256  11.994  18.195   8.764  0.1272  0.1672  0.6916
   79loPI   C3A 1257  12.474  18.189   8.433  0.0166  0.2144 -0.0004
   79loPI   C4A 1258  12.551  18.036   8.005 -0.0082 -0.2372  0.1339
   79loPI   C5A 1259  12.803  17.641   7.852  0.1120 -0.1707 -0.3436
   79loPI   C6A 1260  13.045  17.244   7.896 -0.1779  0.2723  0.0690
   79loPI   C1B 1261  12.303  17.974   9.116 -0.1461 -0.1735 -0.0416
   79loPI   C2B 1262  12.497  18.384   9.032 -0.3247  0.1619 -0.3115
   79loPI   C3B 1263  12.414  18.655   8.626  0.0389 -0.1805 -0.2174
   79loPI   C4B 1264  12.290  18.577   8.206  0.0022 -0.0079  0.3988
   80loPI    C1 1265   2.050   2.745   9.728  0.1238 -0.2534  0.0854
   80loPI    C2 1266   2.388   2.609   9.892  0.0801 -0.2944  0.1414
   80loPI    C3 1267   2.047   2.605  10.102  0.1212  0.1048  0.2241
   80loPI   PO4 1268   2.134   2.965   9.591 -0.3674  0.0411  0.1518
   80loPI   GL1 1269   1.932   3.031   9.210  0.3096  0.1460  0.0777
   80loPI   GL2 1270   1.823   3.246   9.322 -0.2464 -0.2167  0.1392
   80loPI   C1A 1271   1.922   2.949   8.742 -0.2181 -0.1497 -0.2022
   80loPI   C2A 1272   1.913   2.836   8.375 -0.0713 -0.0510  0.0940
   80loPI   C3A 1273   1.952   2.695   7.969 -0.2551 -0.0693  0.0453
   80loPI   C4A 1274   1.802   2.376   7.614  0.1915 -0.0037  0.0046
   80loPI   C5A 1275   1.482   2.347   7.381  0.1734  0.1374  0.0004
   80loPI   C6A 1276   1.110   2.539   7.388 -0.0259 -0.0075 -0.0668
   80loPI   C1B 1277   1.498   3.319   9.096 -0.2108  0.1295  0.5703
   80loPI   C2B 1278   1.059   3.305   9.077 -0.0059 -0.1873  0.3992
   80loPI   C3B 1279   0.917   3.493   8.667 -0.1307  0.0940 -0.2662
   80loPI   C4B 1280   0.899   3.671   8.229 -0.0312 -0.0455 -0.2300
   81loPI    C1 1281  16.901   4.224  10.414  0.2529 -0.0419  0.0536
   81loPI    C2 1282  17.043   4.569  10.561  0.1567  0.0264 -0.0128
   81loPI    C3 1283  16.789   4.348  10.778  0.1228  0.0586 -0.0198
   81loPI   PO4 1284  16.924   4.252  10.175 -0.2013 -0.0090  0.0711
   81loPI   GL1 1285  16.664   4.150   9.815 -0.0879  0.1225  0.1141
   81loPI   GL2 1286  16.461   3.829   9.875 -0.3277 -0.1656 -0.3704
   81loPI   C1A 1287  16.678   4.160   9.440  0.0604  0.2123 -0.1849
   81loPI   C2A 1288  16.718   4.296   9.032 -0.2950 -0.0384  0.0074
   81loPI   C3A 1289  16.764   4.251   8.592 -0.1416  0.3405 -0.2387
   81loPI   C4A 1290  16.912   4.047   8.274 -0.0742  0.3063 -0.1086
   81loPI   C5A 1291  17.029   4.212   7.879 -0.1124  0.1415 -0.1614
   81loPI   C6A 1292  16.785   4.345   7.537  0.0511  0.0122 -0.5399
   81loPI   C1B 1293  16.551   3.706   9.463  0.1232  0.2882  0.2142
   81loPI   C2B 1294  16.946   3.774   9.369  0.0393  0.0811  0.2166
   81loPI   C3B 1295  17.307   3.868   9.045 -0.0393  0.0419 -0.1105
   81loPI   C4B 1296  17.092   3.855   8.740 -0.2928  0.0437  0.2120
   82loPI    C1 1297  11.598  12.372   9.920  0.1349  0.0756  0.0067
   82loPI    C2 1298  11.895  12.485  10.162 -0.1782  0.2479  0.3211
   82loPI    C3 1299  11.609  12.241  10.298 -0.0510 -0.1215 -0.0537
   82loPI   PO4 1300  11.440  12.585   9.785  0.1485 -0.3273  0.3056
   82loPI   GL1 1301  11.410  12.641   9.329 -0.0386  0.0823 -0.0437
   82loPI   GL2 1302  11.679  12.415   9.289  0.0160 -0.1039 -0.4160
   82loPI   C1A 1303  11.473  12.681   8.942  0.4583  0.0440 -0.0969
   82loPI   C2A 1304  11.467  12.581   8.558 -0.1028 -0.0664  0.1159
   82loPI   C3A 1305  11.588  12.811   8.187 -0.1223 -0.1279 -0.0371
   82loPI   C4A 1306  11.465  12.936   7.753 -0.1255 -0.1719  0.0273
   82loPI   C5A 1307  11.045  13.071   7.512  0.0505 -0.2964 -0.1608
   82loPI   C6A 1308  10.574  13.164   7.554  0.0167  0.1247 -0.0478
   82loPI   C1B 1309  11.932  12.505   8.938 -0.1257  0.1451  0.0428
   82loPI   C2B 1310  11.985  12.486   8.489  0.0883 -0.1316 -0.4086
   82loPI   C3B 1311  11.822  12.370   8.031 -0.2933  0.1993 -0.1126
   82loPI   C4B 1312  11.673  12.374   7.630  0.1401  0.3713  0.0101
   83loPI    C1 1313   0.114  15.361  10.436  0.1014  0.0000  0.1035
   83loPI    C2 1314   0.410  15.118  10.551 -0.0852 -0.1342  0.3075
   83loPI    C3 1315   0.453  15.514  10.583  0.2244 -0.1347 -0.0357
   83loPI   PO4 1316   0.064  15.335  10.228  0.1450 -0.1571  0.3022
   83loPI   GL1 1317   0.232  15.061   9.940  0.0795 -0.2067 -0.0972
   83loPI   GL2 1318   0.482  14.935  10.036 -0.0487 -0.2666 -0.1027
   83loPI   C1A 1319   0.312  15.162   9.630 -0.3304  0.0918 -0.1537
   83loPI   C2A 1320   0.417  15.188   9.190  0.0780  0.2347  0.1258
   83loPI   C3A 1321   0.711  15.209   8.821 -0.2142 -0.1874  0.3572
   83loPI   C4A 1322   0.908  15.047   8.448  0.1144  0.0263 -0.0718
   83loPI   C5A 1323   1.136  15.042   8.222 -0.1582 -0.0504  0.0695
   83loPI   C6A 1324   1.215  14.883   7.806  0.1090  0.1362 -0.1802
   83loPI   C1B 1325   0.701  14.775   9.687 -0.2036 -0.0422  0.0559
   83loPI   C2B 1326   0.884  14.890   9.340  0.0571  0.3079  0.2381
   83loPI   C3B 1327   0.771  14.733   8.945  0.0349 -0.1001 -0.3761
   83loPI   C4B 1328   0.652  14.553   8.519  0.0289 -0.1340 -0.3077
   84loPI    C1 1329   2.577  18.087  10.085 -0.3498 -0.0271  0.0895
   84loPI    C2 1330   2.865  18.280  10.285 -0.3270  0.1078 -0.0713
   84loPI    C3 1331   2.573  18.093  10.485 -0.1842  0.0557  0.0905
   84loPI   PO4 1332   2.752  17.994   9.911  0.0526 -0.1180 -0.2832
   84loPI   GL1 1333   2.905  18.002   9.491  0.3328  0.3008 -0.2518
   84loPI   GL2 1334   2.919  18.174   9.362 -0.3288  0.1612 -0.0703
   84loPI   C1A 1335   2.758  17.648   9.174  0.2443  0.2310  0.2368
   84loPI   C2A 1336   2.360  17.517   8.960  0.2850  0.1277  0.1304
   84loPI   C3A 1337   2.550  17.423   8.605  0.0739 -0.2824  0.1733
   84loPI   C4A 1338   2.318  17.387   8.302  0.0100  0.1331  0.1555
   84loPI   C5A 1339   2.237  17.271   7.941 -0.1656 -0.1836  0.0562
   84loPI   C6A 1340   2.635  17.316   7.606  0.1613  0.0781  0.3315
   84loPI   C1B 1341   3.178  17.950   9.093  0.2229  0.1198 -0.0418
   84loPI   C2B 1342   3.512  17.859   8.798 -0.0892  0.3658  0.1404
   84loPI   C3B 1343   3.581  18.018   8.363 -0.4224  0.2048 -0.0121
   84loPI   C4B 1344   3.656  18.136   7.971  0.0268 -0.0331 -0.0816
   85loPI    C1 1345  17.849   7.203  10.734  0.0277 -0.2957 -0.1192
   85loPI    C2 1346  17.687   6.976  11.021  0.0317 -0.0967  0.0428
   85loPI    C3 1347  17.829   7.339  11.109 -0.2520  0.0959 -0.2702
   85loPI   PO4 1348  17.711   7.117  10.498  0.0754 -0.4933  0.0480
   85loPI   GL1 1349  17.720   7.212  10.021  0.2020 -0.0481  0.0410
   85loPI   GL2 1350  18.033   7.286   9.827  0.1184 -0.1803  0.4489
   85loPI   C1A 1351  17.517   7.285   9.668 -0.1343  0.2295  0.4285
   85loPI   C2A 1352  17.567   7.128   9.263  0.1137  0.1109  0.0080
   85loPI   C3A 1353  17.723   7.127   8.936  0.1085  0.0281 -0.1259
   85loPI   C4A 1354  17.869   7.184   8.590 -0.1283 -0.0040 -0.2360
   85loPI   C5A 1355  17.941   7.312   8.159  0.1673 -0.0909  0.0507
   85loPI   C6A 1356  17.808   7.626   7.824  0.0759  0.0130 -0.0281
   85loPI   C1B 1357  18.203   7.166   9.489  0.1992 -0.3271 -0.0627
   85loPI   C2B 1358  18.247   7.086   9.102  0.1297 -0.0749  0.0947
   85loPI   C3B 1359  18.321   7.052   8.615 -0.2082  0.1449 -0.1047
   85loPI   C4B 1360  18.325   6.935   8.190 -0.0427  0.2046 -0.1972
   86loPI    C1 1361  17.946  14.719  10.231  0.1716 -0.1437 -0.1514
   86loPI    C2 1362  17.730  14.993  10.036  0.0541 -0.0717  0.0758
   86loPI    C3 1363  17.557  14.656  10.163  0.0745 -0.0143  0.2580
   86loPI   PO4 1364  18.191  14.812  10.150 -0.0605  0.2607  0.0879
   86loPI   GL1 1365  18.129  14.976   9.756 -0.1095 -0.1336  0.2349
   86loPI   GL2 1366  18.205  15.242   9.756  0.1928 -0.0874  0.2937
   86loPI   C1A 1367  17.771  15.280   9.526 -0.1865 -0.3928  0.1460
   86loPI   C2A 1368  17.597  15.398   9.162 -0.0813 -0.0667  0.2125
   86loPI   C3A 1369  17.586  15.870   8.967  0.0462  0.2813  0.3107
   86loPI   C4A 1370  17.483  16.233   8.685  0.2382  0.4960 -0.0121
   86loPI   C5A 1371  17.588  16.565   9.043 -0.1828 -0.1337  0.1141
   86loPI   C6A 1372  17.986  16.745   9.192 -0.0285  0.4208  0.0890
   86loPI   C1B 1373  18.269  15.207   9.245 -0.1562  0.0632 -0.1125
   86loPI   C2B 1374  18.350  15.297   8.902  0.1033  0.3772  0.1585
   86loPI   C3B 1375  18.193  15.243   8.426 -0.0579  0.0612  0.0575
   86loPI   C4B 1376  18.407  14.960   8.128 -0.0058  0.2781 -0.3125
   87loPI    C1 1377   4.063   2.524   9.759 -0.3242 -0.1745 -0.1691
   87loPI    C2 1378   3.727   2.733   9.818 -0.0085  0.2202  0.3057
   87loPI    C3 1379   3.827   2.438  10.070 -0.1616 -0.1271 -0.0310
   87loPI   PO4 1380   4.202   2.601   9.674 -0.0674 -0.1753 -0.0699
   87loPI   GL1 1381   4.338   2.830   9.204  0.0361 -0.1446 -0.1568
   87loPI   GL2 1382   4.365   2.508   9.191  0.3548  0.0888 -0.1196
   87loPI   C1A 1383   4.118   2.755   8.848 -0.0286  0.1169 -0.2383
   87loPI   C2A 1384   3.668   2.814   8.795 -0.1457  0.0149  0.1569
   87loPI   C3A 1385   3.332   2.973   8.544  0.2916  0.2005  0.1976
   87loPI   C4A 1386   3.290   3.195   8.158 -0.1095 -0.2268 -0.2000
   87loPI   C5A 1387   3.127   3.087   7.668 -0.4823 -0.0070  0.0140
   87loPI   C6A 1388   2.778   2.839   7.406 -0.0791  0.0590 -0.5124
   87loPI   C1B 1389   4.353   2.301   8.753  0.2375  0.1311  0.4926
   87loPI   C2B 1390   4.588   2.196   8.392  0.1405 -0.0561  0.3184
   87loPI   C3B 1391   4.842   2.204   8.031  0.0779  0.1591 -0.2918
   87loPI   C4B 1392   5.122   2.497   7.849 -0.1293  0.2520  0.0127
   88loPI    C1 1393   8.318  13.864  10.310 -0.1780 -0.0876 -0.0981
   88loPI    C2 1394   8.352  14.237  10.451 -0.0397 -0.1118 -0.0654
   88loPI    C3 1395   8.613  14.101  10.180 -0.0477 -0.2080 -0.0252
   88loPI   PO4 1396   8.105  13.845  10.124 -0.3271  0.1233  0.2549
   88loPI   GL1 1397   8.310  14.009   9.698 -0.1933  0.0061 -0.0549
   88loPI   GL2 1398   8.645  14.028   9.656  0.0303  0.5695  0.4858
   88loPI   C1A 1399   8.165  13.913   9.380  0.1262 -0.0014 -0.0052
   88loPI   C2A 1400   8.192  13.938   8.975 -0.0777  0.0822  0.0910
   88loPI   C3A 1401   8.097  13.974   8.568 -0.0690  0.1371  0.0737
   88loPI   C4A 1402   7.798  13.881   8.265  0.0313  0.0228  0.3491
   88loPI   C5A 1403   7.608  13.817   7.784  0.1285 -0.0282 -0.1934
   88loPI   C6A 1404   7.908  13.892   7.528 -0.2826  0.2499  0.2205
   88loPI   C1B 1405   8.696  13.987   9.148  0.0193  0.0514 -0.1591
   88loPI   C2B 1406   8.612  14.017   8.678  0.1279  0.0629 -0.1655
   88loPI   C3B 1407   8.578  14.129   8.306  0.0358  0.1884  0.0722
   88loPI   C4B 1408   8.289  14.068   7.886 -0.4304 -0.0278 -0.1796
   89loPI    C1 1409  17.468  12.528   9.716  0.1452  0.0262 -0.2941
   89loPI    C2 1410  17.503  12.386  10.088 -0.0821 -0.0953 -0.3173
   89loPI    C3 1411  17.797  12.606   9.929  0.0643 -0.1366 -0.1073
   89loPI   PO4 1412  17.225  12.594   9.707  0.1009 -0.3393  0.1854
   89loPI   GL1 1413  16.966  12.533   9.357  0.1284 -0.0425 -0.1297
   89loPI   GL2 1414  16.738  12.421   9.209 -0.2915 -0.0265  0.1940
   89loPI   C1A 1415  17.100  12.399   8.891 -0.1232 -0.0759  0.1983
   89loPI   C2A 1416  17.132  12.380   8.474 -0.0364 -0.1933 -0.0651
   89loPI   C3A 1417  17.024  12.473   8.021 -0.0207  0.1931  0.3691
   89loPI   C4A 1418  16.663  12.533   7.836 -0.0361  0.2716 -0.1238
   89loPI   C5A 1419  16.454  12.222   7.597  0.1932 -0.2547 -0.0323
   89loPI   C6A 1420  16.413  11.726   7.488 -0.1342 -0.0043 -0.0066
   89loPI   C1B 1421  16.575  12.333   8.910 -0.1922  0.0718  0.2726
   89loPI   C2B 1422  16.546  12.408   8.355  0.0752  0.0923 -0.3688
   89loPI   C3B 1423  16.215  12.548   8.060 -0.2974 -0.1848  0.2481
   89loPI   C4B 1424  15.885  12.715   7.810 -0.3149  0.1137  0.0912
   90loPI    C1 1425   9.935   8.067   9.813  0.3741  0.0543  0.0799
   90loPI    C2 1426   9.934   7.686   9.933 -0.0389 -0.0548 -0.2441
   90loPI    C3 1427   9.770   7.968  10.163 -0.0471 -0.1268 -0.1612
   90loPI   PO4 1428   9.776   8.110   9.465  0.2888  0.0628 -0.0278
   90loPI   GL1 1429   9.840   7.941   9.010 -0.1065 -0.2170 -0.1674
   90loPI   GL2 1430  10.125   7.979   9.051 -0.0396 -0.1923 -0.1326
   90loPI   C1A 1431   9.766   7.812   8.670 -0.1513 -0.2054 -0.1827
   90loPI   C2A 1432   9.900   7.738   8.286  0.2972  0.1106 -0.2169
   90loPI   C3A 1433   9.749   7.911   7.983 -0.0914  0.0633 -0.2329
   90loPI   C4A 1434   9.778   8.219   7.628 -0.1313 -0.0178 -0.0459
   90loPI   C5A 1435  10.000   8.442   7.367  0.1486 -0.2552 -0.1683
   90loPI   C6A 1436   9.863   8.315   7.002  0.0538 -0.1563  0.1121
   90loPI   C1B 1437  10.211   8.020   8.660 -0.1673 -0.0258  0.0198
   90loPI   C2B 1438  10.320   7.987   8.180  0.0527  0.0593 -0.3269
   90loPI   C3B 1439  10.103   7.652   7.823  0.5031  0.0698  0.0465
   90loPI   C4B 1440  10.078   7.306   7.502  0.0796  0.1713 -0.2254
   91loPI    C1 1441   7.676  11.095   9.596  0.0713 -0.0168  0.1601
   91loPI    C2 1442   7.547  10.815   9.851  0.0610 -0.0241  0.1466
   91loPI    C3 1443   7.559  11.198   9.964  0.0348 -0.0246  0.1507
   91loPI   PO4 1444   7.590  11.101   9.441  0.2003 -0.2733  0.0951
   91loPI   GL1 1445   7.263  11.165   9.237  0.4020  0.1964  0.0002
   91loPI   GL2 1446   7.128  11.524   9.349 -0.2586  0.1384  0.1819
   91loPI   C1A 1447   7.249  11.182   8.823  0.2369  0.1618  0.2053
   91loPI   C2A 1448   7.264  10.982   8.469  0.0327  0.0021  0.1394
   91loPI   C3A 1449   7.442  10.891   8.058  0.2504 -0.5038 -0.1492
   91loPI   C4A 1450   7.378  10.730   7.592  0.0083 -0.1086  0.0566
   91loPI   C5A 1451   7.181  10.284   7.437 -0.2518 -0.2842  0.0472
   91loPI   C6A 1452   7.238   9.761   7.518  0.2873  0.1878  0.1255
   91loPI   C1B 1453   7.229  11.678   8.982  0.1194  0.2453  0.5670
   91loPI   C2B 1454   7.238  11.588   8.556  0.0556 -0.0089 -0.3606
   91loPI   C3B 1455   7.387  11.534   8.205 -0.0698  0.1539 -0.0655
   91loPI   C4B 1456   7.506  11.451   7.838 -0.3040 -0.3569  0.0671
   92loPI    C1 1457   9.004  13.019  10.390 -0.0634 -0.0486  0.0561
   92loPI    C2 1458   9.186  12.889  10.721 -0.0666 -0.0581  0.0541
   92loPI    C3 1459   9.014  13.250  10.716 -0.0418 -0.0463  0.0537
   92loPI   PO4 1460   9.074  12.794  10.223 -0.0173 -0.2382 -0.1474
   92loPI   GL1 1461   9.219  12.754   9.828 -0.0541  0.2526 -0.0139
   92loPI   GL2 1462   9.390  12.446   9.756 -0.0211 -0.0154 -0.1794
   92loPI   C1A 1463   9.013  12.473   9.462  0.0092 -0.2952 -0.0163
   92loPI   C2A 1464   8.925  12.372   9.113  0.2514 -0.0375  0.1472
   92loPI   C3A 1465   8.883  12.473   8.623  0.1141  0.1868 -0.2896
   92loPI   C4A 1466   9.048  12.639   8.202 -0.1082 -0.0785 -0.1303
   92loPI   C5A 1467   9.160  12.980   8.010 -0.1263 -0.1010 -0.1590
   92loPI   C6A 1468   9.092  13.435   7.891 -0.0322  0.0048 -0.4136
   92loPI   C1B 1469   9.404  12.762   9.371 -0.1662  0.3605  0.2149
   92loPI   C2B 1470   9.567  12.881   9.079  0.0922  0.1722 -0.2506
   92loPI   C3B 1471   9.787  12.990   8.776  0.1624 -0.3077  0.3959
   92loPI   C4B 1472   9.750  12.911   8.281  0.2538 -0.0692  0.0108
   93loPI    C1 1473  18.892  13.377  10.239 -0.1165 -0.2114  0.2126
   93loPI    C2 1474  18.622  13.145  10.056 -0.2576  0.0301  0.1095
   93loPI    C3 1475  18.709  13.085  10.442 -0.4832 -0.0290  0.1528
   93loPI   PO4 1476  19.004  13.462  10.021 -0.3295 -0.0468  0.0610
   93loPI   GL1 1477  18.714  13.469   9.688  0.0719 -0.1728 -0.0127
   93loPI   GL2 1478  18.554  13.735   9.492  0.0036  0.0451  0.0713
   93loPI   C1A 1479  19.023  13.407   9.330  0.2572 -0.2120 -0.1239
   93loPI   C2A 1480  19.055  13.463   8.983 -0.1131  0.0636  0.2007
   93loPI   C3A 1481  19.077  13.492   8.471 -0.0147 -0.0983  0.0392
   93loPI   C4A 1482  19.428  13.486   8.085  0.2784  0.2229  0.3874
   93loPI   C5A 1483  19.737  13.620   7.818  0.1623  0.0837 -0.0308
   93loPI   C6A 1484  19.858  13.653   7.431 -0.1454 -0.0318 -0.2914
   93loPI   C1B 1485  18.608  13.581   9.095  0.1742 -0.0062  0.0628
   93loPI   C2B 1486  18.638  13.620   8.605 -0.1765 -0.0950 -0.1192
   93loPI   C3B 1487  18.558  13.618   8.265 -0.4516 -0.0023 -0.0863
   93loPI   C4B 1488  18.478  13.702   7.808 -0.0905  0.0474  0.1440
   94loPI    C1 1489  11.923  14.305   9.922  0.1834 -0.1069 -0.1360
   94loPI    C2 1490  12.323  14.308   9.927  0.1850  0.3151 -0.1902
   94loPI    C3 1491  12.118  14.544  10.176 -0.0384 -0.1390  0.0673
   94loPI   PO4 1492  11.940  14.150   9.703 -0.0329 -0.0668 -0.3923
   94loPI   GL1 1493  11.911  14.213   9.257 -0.0674 -0.1305 -0.2874
   94loPI   GL2 1494  11.641  13.954   9.216 -0.0451  0.0906 -0.0031
   94loPI   C1A 1495  11.586  14.361   8.937  0.0360 -0.1200 -0.0052
   94loPI   C2A 1496  11.362  14.447   8.561 -0.2992 -0.2717  0.4669
   94loPI   C3A 1497  11.287  14.476   8.126 -0.1148  0.0661 -0.0138
   94loPI   C4A 1498  11.310  14.525   7.667  0.0527 -0.0251  0.6186
   94loPI   C5A 1499  11.299  14.386   7.292 -0.0511 -0.2429 -0.1387
   94loPI   C6A 1500  11.123  14.117   7.027  0.0298  0.0028  0.0944
   94loPI   C1B 1501  11.367  13.818   8.927 -0.0984 -0.0421 -0.1982
   94loPI   C2B 1502  11.435  13.689   8.517 -0.0742 -0.0945 -0.1387
   94loPI   C3B 1503  11.489  13.623   8.060 -0.1623 -0.1352  0.4684
   94loPI   C4B 1504  11.312  13.458   7.767 -0.0328  0.2625 -0.1763
   95loPI    C1 1505   8.995  16.736  10.487  0.4062 -0.0877  0.1479
   95loPI    C2 1506   9.176  16.718  10.843  0.1636  0.3500  0.2992
   95loPI    C3 1507   9.102  17.073  10.674 -0.2184  0.1662  0.0687
   95loPI   PO4 1508   9.105  16.555  10.300 -0.0082  0.1250 -0.2625
   95loPI   GL1 1509   9.201  16.297   9.965 -0.0278  0.3851  0.1240
   95loPI   GL2 1510   9.512  16.193   9.829  0.1230 -0.0009  0.1641
   95loPI   C1A 1511   8.937  16.059   9.635  0.0331 -0.4272 -0.0395
   95loPI   C2A 1512   8.881  15.952   9.251  0.1780  0.1169  0.0603
   95loPI   C3A 1513   8.811  15.855   8.788 -0.0042  0.0160 -0.0020
   95loPI   C4A 1514   8.694  15.534   8.543 -0.1381 -0.0369 -0.0435
   95loPI   C5A 1515   8.608  15.501   8.133  0.4741 -0.2339 -0.1130
   95loPI   C6A 1516   8.405  15.637   7.789  0.3096  0.0219 -0.2327
   95loPI   C1B 1517   9.422  16.336   9.461  0.0116  0.2713  0.0210
   95loPI   C2B 1518   9.443  16.196   9.161  0.3466  0.2119 -0.1820
   95loPI   C3B 1519   9.253  16.081   8.804  0.0701  0.1224  0.0567
   95loPI   C4B 1520   8.917  16.259   8.447 -0.3464  0.2319 -0.2628
   96loPI    C1 1521  14.293   5.045  10.186  0.0037  0.0116  0.2595
   96loPI    C2 1522  14.327   5.426  10.067 -0.2739  0.0490  0.2920
   96loPI    C3 1523  14.651   5.222  10.184 -0.0880  0.2001  0.0489
   96loPI   PO4 1524  14.230   4.937  10.032  0.2312  0.1134  0.2681
   96loPI   GL1 1525  14.300   4.972   9.568 -0.1231 -0.2678 -0.1561
   96loPI   GL2 1526  14.528   5.195   9.624 -0.1402  0.2262  0.0619
   96loPI   C1A 1527  14.355   5.016   9.145  0.2626  0.0151 -0.0761
   96loPI   C2A 1528  14.385   5.090   8.724 -0.1398 -0.2411  0.0063
   96loPI   C3A 1529  14.318   5.285   8.394  0.0838  0.1230 -0.1258
   96loPI   C4A 1530  14.087   5.343   8.016  0.1474 -0.2580  0.0968
   96loPI   C5A 1531  13.959   5.106   7.694 -0.1947  0.4225 -0.0892
   96loPI   C6A 1532  13.773   4.968   7.263 -0.2224 -0.0181  0.3367
   96loPI   C1B 1533  14.578   5.478   9.254 -0.2276  0.0596 -0.2149
   96loPI   C2B 1534  14.505   5.783   9.321 -0.2077 -0.0323 -0.0154
   96loPI   C3B 1535  14.542   6.083   9.060 -0.1034 -0.1891  0.0064
   96loPI   C4B 1536  14.541   6.283   8.672  0.0085  0.2831 -0.0467
   97loPI    C1 1537  18.737   9.594  10.428 -0.0875  0.2174 -0.0033
   97loPI    C2 1538  18.640   9.208  10.470  0.2479  0.0903 -0.3301
   97loPI    C3 1539  18.471   9.484  10.705 -0.0799 -0.2395 -0.1675
   97loPI   PO4 1540  18.879   9.546  10.192 -0.2405  0.1179 -0.1476
   97loPI   GL1 1541  18.954   9.523   9.688  0.2384  0.2726 -0.1215
   97loPI   GL2 1542  18.974   9.767   9.412 -0.0315  0.2901 -0.0986
   97loPI   C1A 1543  19.017   9.288   9.297  0.2778  0.0204  0.0717
   97loPI   C2A 1544  18.964   9.083   8.939 -0.0973 -0.0310 -0.0951
   97loPI   C3A 1545  18.816   9.015   8.443 -0.0123  0.0472 -0.0651
   97loPI   C4A 1546  18.991   8.874   8.178  0.0109 -0.2855  0.0117
   97loPI   C5A 1547  19.223   8.962   7.791 -0.1818  0.3050  0.0228
   97loPI   C6A 1548  19.012   8.975   7.429 -0.2096  0.0332 -0.1031
   97loPI   C1B 1549  19.100   9.630   8.913  0.3833 -0.0424 -0.0289
   97loPI   C2B 1550  18.996   9.443   8.578 -0.0380 -0.2869 -0.0340
   97loPI   C3B 1551  18.946   9.355   8.086  0.1601 -0.0846 -0.1012
   97loPI   C4B 1552  18.783   9.351   7.777  0.1512  0.0376 -0.0257
   98loPI    C1 1553  15.582   9.162  10.230 -0.1290 -0.0349  0.0054
   98loPI    C2 1554  15.209   9.269  10.328  0.0411  0.3215  0.2852
   98loPI    C3 1555  15.459   9.133  10.609  0.0881 -0.0340  0.0773
   98loPI   PO4 1556  15.565   9.001  10.090 -0.2943 -0.2631  0.0356
   98loPI   GL1 1557  15.725   8.850   9.687  0.3575 -0.0263 -0.0131
   98loPI   GL2 1558  15.315   8.885   9.637 -0.2884  0.3665 -0.2985
   98loPI   C1A 1559  15.456   8.567   9.331  0.2642  0.1006 -0.0596
   98loPI   C2A 1560  15.472   8.358   8.846 -0.0487  0.2749  0.0028
   98loPI   C3A 1561  15.230   8.256   8.371 -0.1303 -0.0889  0.3185
   98loPI   C4A 1562  15.344   8.162   7.898  0.1812 -0.3643 -0.1452
   98loPI   C5A 1563  15.691   8.003   7.571 -0.2925  0.2649 -0.2450
   98loPI   C6A 1564  16.058   7.830   7.273  0.1434 -0.0329  0.2045
   98loPI   C1B 1565  15.074   8.842   9.345 -0.1207 -0.1027  0.1160
   98loPI   C2B 1566  14.600   9.002   9.115  0.2927 -0.1949  0.2484
   98loPI   C3B 1567  14.309   9.304   8.869 -0.2266  0.0839 -0.4048
   98loPI   C4B 1568  14.002   9.464   8.623 -0.2106 -0.3714  0.2260
   99loPI    C1 1569  13.813   3.362   9.655  0.0991 -0.2348  0.0007
   99loPI    C2 1570  13.755   3.660   9.916  0.2522 -0.0389 -0.1847
   99loPI    C3 1571  13.834   3.290  10.048  0.2797  0.0476  0.0457
   99loPI   PO4 1572  13.583   3.399   9.499  0.0936  0.1357  0.1735
   99loPI   GL1 1573  13.664   3.370   9.118  0.0417 -0.1046  0.1504
   99loPI   GL2 1574  13.981   3.178   9.172  0.0415  0.1315 -0.2075
   99loPI   C1A 1575  14.045   3.576   8.935 -0.1026  0.2792 -0.1003
   99loPI   C2A 1576  14.368   3.907   8.758 -0.2795  0.1604 -0.1946
   99loPI   C3A 1577  14.600   3.998   8.305  0.1332  0.0227 -0.1573
   99loPI   C4A 1578  14.750   3.901   8.004  0.0031 -0.4087 -0.1632
   99loPI   C5A 1579  14.936   3.908   7.508  0.1755  0.0084  0.0854
   99loPI   C6A 1580  14.974   3.985   6.997  0.0947 -0.0323  0.2315
   99loPI   C1B 1581  13.858   2.846   8.866 -0.3499  0.4491 -0.1327
   99loPI   C2B 1582  14.147   2.761   8.557  0.3508 -0.0120 -0.2641
   99loPI   C3B 1583  14.233   3.126   8.233  0.3402 -0.0376  0.0557
   99loPI   C4B 1584  14.328   3.211   7.880  0.1915  0.0727 -0.0051
  100loPI    C1 1585  15.532   8.041  10.385 -0.0160 -0.0012 -0.0510
  100loPI    C2 1586  15.230   7.926  10.621  0.0442  0.1077  0.0801
  100loPI    C3 1587  15.592   7.762  10.665  0.0116 -0.0030 -0.0589
  100loPI   PO4 1588  15.445   7.967  10.172  0.0272 -0.0342 -0.1067
  100loPI   GL1 1589  15.560   8.124   9.703 -0.0067  0.0541  0.4418
  100loPI   GL2 1590  15.812   8.342   9.662 -0.1680 -0.1830 -0.0478
  100loPI   C1A 1591  15.727   8.178   9.207 -0.0747  0.1317 -0.0754
  100loPI   C2A 1592  15.981   8.295   8.921 -0.0262  0.0958 -0.0526
  100loPI   C3A 1593  16.286   8.171   8.550  0.1284  0.2130  0.1219
  100loPI   C4A 1594  16.234   8.070   8.125  0.0848 -0.1927 -0.0905
  100loPI   C5A 1595  16.080   7.782   7.777  0.3668 -0.1999 -0.1052
  100loPI   C6A 1596  16.039   7.392   7.594  0.2030  0.3487 -0.3942
  100loPI   C1B 1597  15.918   8.622   9.290  0.1309  0.0306 -0.1023
  100loPI   C2B 1598  16.068   8.814   8.922  0.0586  0.0772 -0.0593
  100loPI   C3B 1599  15.984   8.942   8.491  0.0117 -0.1881 -0.0491
  100loPI   C4B 1600  15.641   9.079   8.305 -0.2277  0.0702 -0.1769
  101loPI    C1 1601  12.941   7.841  10.136 -0.0201 -0.1884 -0.0487
  101loPI    C2 1602  13.217   7.660  10.362 -0.0227 -0.0364  0.0780
  101loPI    C3 1603  12.920   7.446  10.199  0.1069 -0.1828  0.0312
  101loPI   PO4 1604  13.045   8.007   9.992  0.1285  0.3253 -0.1254
  101loPI   GL1 1605  13.118   7.986   9.498  0.1695  0.0549  0.1845
  101loPI   GL2 1606  13.378   7.740   9.440 -0.0925  0.1489  0.1087
  101loPI   C1A 1607  13.159   8.048   9.099  0.1445 -0.0673  0.2398
  101loPI   C2A 1608  12.897   8.037   8.748 -0.0730 -0.1357  0.2367
  101loPI   C3A 1609  12.939   7.984   8.323 -0.3395  0.2777  0.2354
  101loPI   C4A 1610  12.895   7.750   7.925  0.0785  0.1104  0.0208
  101loPI   C5A 1611  12.790   7.820   7.482 -0.1721  0.2498  0.0416
  101loPI   C6A 1612  12.962   7.751   7.044 -0.0273 -0.0305  0.2387
  101loPI   C1B 1613  13.637   7.879   9.126 -0.0887 -0.0969  0.4105
  101loPI   C2B 1614  13.829   7.897   8.761  0.2365  0.1683  0.0539
  101loPI   C3B 1615  13.942   8.020   8.379  0.0044  0.6047  0.0286
  101loPI   C4B 1616  13.810   8.355   8.192 -0.1820  0.0845  0.0329
  102loPI    C1 1617   0.510   4.267  10.464  0.2030  0.2207 -0.2472
  102loPI    C2 1618   0.509   3.931  10.682 -0.1412  0.1423 -0.3646
  102loPI    C3 1619   0.710   4.252  10.810  0.0287 -0.0451 -0.1550
  102loPI   PO4 1620   0.546   4.110  10.190 -0.0071  0.1884  0.4134
  102loPI   GL1 1621   0.358   4.024   9.716  0.1280 -0.1127 -0.2502
  102loPI   GL2 1622   0.637   4.342   9.685  0.0101 -0.0284  0.0753
  102loPI   C1A 1623   0.262   4.054   9.314  0.0575 -0.0804  0.3284
  102loPI   C2A 1624   0.084   4.094   8.976  0.0521  0.0502 -0.0835
  102loPI   C3A 1625   0.238   4.051   8.649 -0.1281 -0.0865  0.3209
  102loPI   C4A 1626   0.407   3.895   8.340 -0.0453  0.3594  0.1090
  102loPI   C5A 1627   0.512   3.673   7.918 -0.1380  0.0429 -0.0005
  102loPI   C6A 1628   0.752   3.412   7.668 -0.1255  0.1620  0.0248
  102loPI   C1B 1629   0.717   4.286   9.300 -0.3229 -0.3239 -0.0081
  102loPI   C2B 1630   0.632   4.429   8.856  0.2238  0.1192  0.1601
  102loPI   C3B 1631   0.534   4.359   8.431  0.2065 -0.0556 -0.1301
  102loPI   C4B 1632   0.476   4.492   8.088  0.4707  0.1567  0.2599
  103loPI    C1 1633   6.165   3.695   9.767 -0.0417  0.0592 -0.0812
  103loPI    C2 1634   5.864   3.833   9.543 -0.0516  0.1203 -0.0304
  103loPI    C3 1635   6.116   4.089   9.719 -0.0561  0.0733  0.0449
  103loPI   PO4 1636   6.264   3.555   9.634  0.1254 -0.0677 -0.0037
  103loPI   GL1 1637   6.270   3.396   9.300 -0.0210 -0.0766 -0.3335
  103loPI   GL2 1638   6.561   3.375   9.315  0.0871 -0.2371 -0.2060
  103loPI   C1A 1639   6.167   3.289   8.830  0.1086 -0.0467 -0.2707
  103loPI   C2A 1640   5.987   3.168   8.522  0.0180  0.1572  0.2366
  103loPI   C3A 1641   5.767   3.212   8.048 -0.2396  0.0006  0.1140
  103loPI   C4A 1642   5.515   3.353   7.687  0.2112 -0.2251 -0.1921
  103loPI   C5A 1643   5.418   3.632   7.383 -0.1828  0.0844 -0.0960
  103loPI   C6A 1644   5.508   3.897   7.068 -0.1940 -0.1259 -0.1527
  103loPI   C1B 1645   6.602   3.714   8.947 -0.1711  0.1689 -0.0026
  103loPI   C2B 1646   6.364   3.690   8.585 -0.0119  0.0734 -0.0650
  103loPI   C3B 1647   6.127   3.542   8.183 -0.1085 -0.1901 -0.2241
  103loPI   C4B 1648   6.085   3.535   7.759 -0.2647  0.2110  0.0810
  104loPI    C1 1649  12.049   0.338   9.940  0.1753  0.0612  0.0743
  104loPI    C2 1650  12.327   0.367  10.227  0.1046  0.0414  0.1450
  104loPI    C3 1651  12.297   0.032  10.011  0.2003  0.0805  0.0708
  104loPI   PO4 1652  12.000   0.559   9.759  0.0570  0.1028 -0.1751
  104loPI   GL1 1653  11.867   0.627   9.371  0.0341  0.0441  0.2261
  104loPI   GL2 1654  11.617   0.571   9.183 -0.0193 -0.1006 -0.1514
  104loPI   C1A 1655  12.180   0.676   9.031  0.0192  0.0318 -0.3119
  104loPI   C2A 1656  12.331   0.703   8.654  0.2736 -0.0991  0.1149
  104loPI   C3A 1657  12.522   0.496   8.271 -0.6406 -0.1814 -0.1044
  104loPI   C4A 1658  12.776   0.302   7.974 -0.1572 -0.0974  0.0087
  104loPI   C5A 1659  13.189   0.184   7.705 -0.0778  0.0290 -0.1256
  104loPI   C6A 1660  13.312   0.268   7.413 -0.1184 -0.3662 -0.1845
  104loPI   C1B 1661  11.456   0.676   8.791 -0.2365  0.2576 -0.0824
  104loPI   C2B 1662  11.326   0.889   8.322  0.0812  0.2220  0.0716
  104loPI   C3B 1663  11.299   0.736   7.893  0.0770 -0.0452 -0.2786
  104loPI   C4B 1664  11.415   0.413   7.617 -0.2048 -0.0459  0.3346
  105loPI    C1 1665  17.373   5.575  10.146 -0.1002 -0.0808  0.0929
  105loPI    C2 1666  17.160   5.341  10.390 -0.1577 -0.1895 -0.0605
  105loPI    C3 1667  17.278   5.703  10.513 -0.0642 -0.2996  0.1796
  105loPI   PO4 1668  17.559   5.420  10.020 -0.0059  0.3645  0.0852
  105loPI   GL1 1669  17.842   5.390   9.823 -0.0353  0.0212  0.0374
  105loPI   GL2 1670  17.756   5.224   9.581  0.2327 -0.3322 -0.0340
  105loPI   C1A 1671  18.220   5.527   9.472  0.3536 -0.0190 -0.4703
  105loPI   C2A 1672  18.441   5.708   9.260 -0.1758  0.1794 -0.1922
  105loPI   C3A 1673  18.581   5.719   8.841 -0.0418  0.1293 -0.0429
  105loPI   C4A 1674  18.550   5.983   8.428  0.3269  0.0170 -0.2343
  105loPI   C5A 1675  18.436   5.955   8.004 -0.4688 -0.0240  0.0889
  105loPI   C6A 1676  18.042   5.979   7.733 -0.3120  0.1728 -0.0485
  105loPI   C1B 1677  17.566   5.381   9.167 -0.1031 -0.1551  0.1038
  105loPI   C2B 1678  17.400   5.379   8.678  0.2057  0.1705 -0.1266
  105loPI   C3B 1679  17.365   5.579   8.298 -0.2449 -0.2908  0.3665
  105loPI   C4B 1680  17.316   5.928   8.016  0.0515 -0.1093  0.0849
  106loPI    C1 1681   7.912   6.923   9.721  0.1030  0.0882 -0.1048
  106loPI    C2 1682   7.895   7.146  10.053 -0.0272 -0.2127  0.0958
  106loPI    C3 1683   7.585   6.915   9.952 -0.0022 -0.0973 -0.2576
  106loPI   PO4 1684   8.020   7.095   9.517 -0.0741  0.2846 -0.0127
  106loPI   GL1 1685   8.177   7.181   9.144  0.1072 -0.0717 -0.0563
  106loPI   GL2 1686   8.200   7.541   9.215 -0.1529 -0.3921  0.3086
  106loPI   C1A 1687   8.160   7.066   8.719  0.0102 -0.2495  0.1338
  106loPI   C2A 1688   8.294   7.032   8.307  0.0784  0.5280 -0.1127
  106loPI   C3A 1689   8.203   6.936   7.834 -0.2042 -0.0646  0.0863
  106loPI   C4A 1690   8.171   7.030   7.524 -0.2569  0.1144 -0.4435
  106loPI   C5A 1691   8.014   7.394   7.311 -0.2179  0.2048 -0.0679
  106loPI   C6A 1692   7.791   7.754   7.112 -0.2507 -0.2037  0.0249
  106loPI   C1B 1693   8.199   7.616   8.821 -0.1491  0.0979  0.1478
  106loPI   C2B 1694   8.064   7.658   8.348 -0.0947  0.1952  0.3298
  106loPI   C3B 1695   8.001   7.675   7.864  0.1022  0.1126  0.1299
  106loPI   C4B 1696   8.027   7.911   7.507 -0.2298  0.3076 -0.3088
  107loPI    C1 1697  12.050  12.231   9.767  0.0216 -0.0219 -0.0884
  107loPI    C2 1698  12.139  12.079  10.126 -0.0136  0.0518 -0.0483
  107loPI    C3 1699  11.859  11.905   9.900  0.3025 -0.2453 -0.2211
  107loPI   PO4 1700  12.233  12.291   9.678 -0.0774  0.1318  0.0212
  107loPI   GL1 1701  12.365  12.145   9.294  0.1380 -0.0870  0.3750
  107loPI   GL2 1702  12.656  11.909   9.406 -0.1568  0.1914 -0.1044
  107loPI   C1A 1703  12.105  12.001   8.940 -0.3157 -0.0110  0.1406
  107loPI   C2A 1704  11.823  11.956   8.594 -0.0290 -0.2857 -0.1341
  107loPI   C3A 1705  11.454  12.116   8.265  0.2550 -0.0375  0.0574
  107loPI   C4A 1706  11.439  11.934   7.859 -0.0595 -0.1282 -0.0736
  107loPI   C5A 1707  11.616  11.666   7.456 -0.2226  0.0150  0.1125
  107loPI   C6A 1708  11.821  11.701   7.077 -0.0224  0.1740  0.0532
  107loPI   C1B 1709  12.642  11.671   9.013  0.0464 -0.2450  0.2233
  107loPI   C2B 1710  12.724  11.625   8.591 -0.0333 -0.0848 -0.0883
  107loPI   C3B 1711  12.922  11.614   8.244  0.2806 -0.1691  0.1583
  107loPI   C4B 1712  12.926  11.660   7.844 -0.1209 -0.0816  0.1030
  108loPI    C1 1713   8.350   8.422   9.696  0.1233 -0.0095  0.0262
  108loPI    C2 1714   8.107   8.621   9.448  0.0511  0.1918  0.2547
  108loPI    C3 1715   7.957   8.433   9.767  0.1144 -0.2635  0.0244
  108loPI   PO4 1716   8.485   8.282   9.519 -0.3636  0.2360  0.1217
  108loPI   GL1 1717   8.683   8.458   9.132 -0.3548  0.0308 -0.0264
  108loPI   GL2 1718   8.935   8.321   9.066  0.0495  0.1942 -0.1876
  108loPI   C1A 1719   8.593   8.524   8.682  0.1997 -0.1039  0.2283
  108loPI   C2A 1720   8.446   8.535   8.229 -0.1035 -0.0106  0.3899
  108loPI   C3A 1721   8.631   8.467   7.811 -0.0913 -0.0569  0.0322
  108loPI   C4A 1722   8.699   8.697   7.490  0.2053 -0.0143 -0.0048
  108loPI   C5A 1723   8.989   8.626   7.165 -0.2261 -0.0981  0.3010
  108loPI   C6A 1724   9.020   8.703   6.701  0.0231  0.0378  0.0864
  108loPI   C1B 1725   8.965   8.265   8.545  0.0612  0.0682  0.2178
  108loPI   C2B 1726   8.977   8.512   8.145  0.2159  0.0276  0.0097
  108loPI   C3B 1727   9.228   8.857   8.055 -0.1218  0.0010  0.1449
  108loPI   C4B 1728   9.181   9.267   7.990  0.0159 -0.1215  0.1728
  109loPI    C1 1729  14.123  10.102  10.073  0.0753  0.1022  0.2839
  109loPI    C2 1730  14.427   9.954  10.286  0.0378 -0.3873  0.0117
  109loPI    C3 1731  14.077   9.761  10.276 -0.0856 -0.1589 -0.1759
  109loPI   PO4 1732  14.240  10.216   9.804  0.1165 -0.1142 -0.2839
  109loPI   GL1 1733  14.180  10.191   9.362  0.1250 -0.1744 -0.0678
  109loPI   GL2 1734  14.460  10.034   9.364 -0.0964  0.0328 -0.2680
  109loPI   C1A 1735  13.931  10.307   9.057  0.2855  0.0717 -0.2852
  109loPI   C2A 1736  13.771  10.328   8.677  0.3332  0.0472  0.2521
  109loPI   C3A 1737  13.454  10.588   8.409 -0.3366 -0.5309 -0.4425
  109loPI   C4A 1738  13.475  10.701   7.994  0.2644 -0.1179  0.0351
  109loPI   C5A 1739  13.507  10.832   7.542  0.0360  0.0680 -0.1097
  109loPI   C6A 1740  13.568  11.231   7.320 -0.0833  0.2038 -0.1543
  109loPI   C1B 1741  14.807  10.145   9.054  0.0013 -0.0941 -0.0535
  109loPI   C2B 1742  14.687  10.095   8.562  0.1315 -0.0626  0.0385
  109loPI   C3B 1743  14.626   9.972   8.171 -0.0069  0.2888 -0.0952
  109loPI   C4B 1744  14.436   9.890   7.740 -0.1373 -0.1136 -0.3199
  110loPI    C1 1745  12.180  16.740   9.586  0.0227 -0.1511  0.0078
  110loPI    C2 1746  12.498  16.514   9.674  0.1321  0.0220  0.0612
  110loPI    C3 1747  12.438  16.858   9.868  0.0266  0.0930 -0.0962
  110loPI   PO4 1748  11.949  16.591   9.550 -0.4382 -0.0642  0.1220
  110loPI   GL1 1749  11.646  16.354   9.217 -0.1982 -0.0969  0.1471
  110loPI   GL2 1750  11.849  16.060   9.040 -0.3670  0.1253 -0.2726
  110loPI   C1A 1751  11.553  16.486   8.898 -0.3152  0.1731 -0.0106
  110loPI   C2A 1752  11.387  16.468   8.488 -0.0774  0.0087  0.2136
  110loPI   C3A 1753  11.143  16.360   8.026 -0.0804  0.1248 -0.2271
  110loPI   C4A 1754  10.917  16.341   7.623  0.1068 -0.1864  0.3765
  110loPI   C5A 1755  10.810  16.512   7.272  0.0386  0.0721 -0.0537
  110loPI   C6A 1756  10.697  16.977   7.147 -0.0330 -0.1042  0.1757
  110loPI   C1B 1757  11.563  15.999   8.806  0.0145  0.2818 -0.0258
  110loPI   C2B 1758  11.553  15.939   8.413  0.1998  0.0835  0.4847
  110loPI   C3B 1759  11.294  15.776   8.113 -0.2039  0.0167 -0.1609
  110loPI   C4B 1760  11.005  15.475   7.885  0.3204 -0.0699 -0.5809
  111loPI    C1 1761  16.258   4.201  10.183 -0.0542 -0.2523 -0.1146
  111loPI    C2 1762  16.341   4.158  10.572 -0.0044  0.2342 -0.0653
  111loPI    C3 1763  16.297   3.835  10.340  0.0773 -0.0595  0.3177
  111loPI   PO4 1764  16.152   4.374   9.987  0.1407  0.2069 -0.2173
  111loPI   GL1 1765  16.139   4.396   9.568  0.1741 -0.1399 -0.0141
  111loPI   GL2 1766  16.166   4.065   9.489 -0.1527  0.2022 -0.1956
  111loPI   C1A 1767  16.357   4.514   9.360 -0.0173  0.2251  0.2974
  111loPI   C2A 1768  16.453   4.737   9.020 -0.2701 -0.1559  0.2213
  111loPI   C3A 1769  16.701   4.761   8.653  0.0617 -0.1945 -0.1393
  111loPI   C4A 1770  16.819   5.065   8.262 -0.1607 -0.1632 -0.1924
  111loPI   C5A 1771  16.950   5.194   7.886  0.0496 -0.0215 -0.0303
  111loPI   C6A 1772  17.333   5.437   7.785 -0.0227  0.3068 -0.0693
  111loPI   C1B 1773  16.288   4.079   9.153  0.3867 -0.2949  0.0029
  111loPI   C2B 1774  16.303   4.274   8.676 -0.0458  0.4544  0.1838
  111loPI   C3B 1775  16.427   4.448   8.303  0.0045  0.0004  0.0374
  111loPI   C4B 1776  16.516   4.305   7.959  0.1182  0.0844  0.0135
  112loPI    C1 1777  11.555  19.004  10.328 -0.0918 -0.0551 -0.0790
  112loPI    C2 1778  11.161  18.976  10.263 -0.1080  0.1647 -0.0850
  112loPI    C3 1779  11.354  18.684  10.457 -0.2820  0.0775 -0.0421
  112loPI   PO4 1780  11.737  18.955  10.106  0.5533  0.1100 -0.2788
  112loPI   GL1 1781  11.780  19.071   9.607  0.0486  0.0757  0.1334
  112loPI   GL2 1782  12.022  19.013   9.530  0.0893  0.0834 -0.1267
  112loPI   C1A 1783  11.639  18.689   9.276  0.0077  0.0623 -0.0788
  112loPI   C2A 1784  11.546  18.625   8.879 -0.2227  0.0568  0.2395
  112loPI   C3A 1785  11.520  18.466   8.450 -0.1282  0.1437 -0.1528
  112loPI   C4A 1786  11.809  18.450   8.166  0.4239  0.1744  0.0650
  112loPI   C5A 1787  11.811  18.492   7.728  0.2948 -0.1468 -0.1594
  112loPI   C6A 1788  11.940  18.528   7.293  0.2047 -0.2423 -0.1378
  112loPI   C1B 1789  11.955  19.152   9.040 -0.1830  0.0843  0.2332
  112loPI   C2B 1790  11.837  19.365   8.726 -0.0661 -0.1675  0.2308
  112loPI   C3B 1791  11.540  19.410   8.351  0.4301 -0.2578 -0.0061
  112loPI   C4B 1792  11.184  19.258   7.998 -0.1232  0.3117  0.1126
  113loPI    C1 1793   6.570  14.425  10.311 -0.1495 -0.0694 -0.0838
  113loPI    C2 1794   6.366  14.509  10.645 -0.0835 -0.3124  0.0198
  113loPI    C3 1795   6.679  14.261  10.659  0.0634 -0.1419 -0.1829
  113loPI   PO4 1796   6.604  14.639  10.156  0.2211 -0.3145  0.0208
  113loPI   GL1 1797   6.369  14.841   9.788  0.3811 -0.0345 -0.0811
  113loPI   GL2 1798   6.189  15.103   9.709 -0.0489 -0.1258 -0.0893
  113loPI   C1A 1799   6.615  14.804   9.444 -0.4327  0.1874  0.0541
  113loPI   C2A 1800   6.828  14.525   9.132  0.1676  0.1246 -0.3756
  113loPI   C3A 1801   6.688  14.292   8.794 -0.2245  0.0279 -0.0006
  113loPI   C4A 1802   6.468  14.190   8.397  0.3126  0.1205  0.0957
  113loPI   C5A 1803   6.298  13.840   8.129  0.1192 -0.1348  0.0541
  113loPI   C6A 1804   6.244  13.475   7.836 -0.3303 -0.1280  0.0267
  113loPI   C1B 1805   6.238  15.043   9.237  0.1000 -0.1202 -0.5405
  113loPI   C2B 1806   6.101  15.133   8.774  0.0879 -0.0200  0.2419
  113loPI   C3B 1807   5.901  15.325   8.385 -0.1348 -0.3600  0.1372
  113loPI   C4B 1808   5.546  15.140   8.042  0.1216 -0.0918 -0.0810
  114loPI    C1 1809   4.760  14.882  10.048 -0.1180  0.0738  0.2005
  114loPI    C2 1810   5.064  14.852  10.307 -0.0419  0.0134  0.1046
  114loPI    C3 1811   4.818  15.167  10.324 -0.0843 -0.0287  0.3002
  114loPI   PO4 1812   4.663  14.598  10.062 -0.1155 -0.2042 -0.1827
  114loPI   GL1 1813   4.633  14.330   9.741  0.4134  0.0820 -0.1930
  114loPI   GL2 1814   4.573  14.073   9.778  0.0697 -0.3005 -0.0239
  114loPI   C1A 1815   4.644  14.298   9.281  0.4719 -0.1145 -0.0960
  114loPI   C2A 1816   4.887  14.039   9.042 -0.0005 -0.1752  0.1335
  114loPI   C3A 1817   5.002  13.889   8.584 -0.0092  0.0950  0.2672
  114loPI   C4A 1818   4.899  13.901   8.238  0.0038 -0.1540 -0.2051
  114loPI   C5A 1819   5.046  14.373   7.955 -0.4219  0.1632  0.1063
  114loPI   C6A 1820   5.040  14.620   7.722 -0.0588 -0.0453  0.0704
  114loPI   C1B 1821   4.219  13.955   9.498  0.0975  0.2774 -0.1712
  114loPI   C2B 1822   4.079  13.725   9.190 -0.0576  0.3130  0.0071
  114loPI   C3B 1823   3.852  13.788   8.728  0.1011 -0.0003  0.1635
  114loPI   C4B 1824   3.883  13.777   8.328 -0.0277 -0.0705  0.0289
  115loPI    C1 1825   6.226  17.461   9.809  0.0135 -0.3143 -0.0986
  115loPI    C2 1826   6.466  17.214  10.013  0.0313 -0.1854  0.0379
  115loPI    C3 1827   6.322  17.544  10.189 -0.0263 -0.1205 -0.1296
  115loPI   PO4 1828   6.229  17.485   9.571  0.2196 -0.0054 -0.2973
  115loPI   GL1 1829   5.868  17.661   9.348 -0.1785 -0.1784  0.2300
  115loPI   GL2 1830   6.130  17.711   9.184  0.1565  0.1945 -0.1033
  115loPI   C1A 1831   5.485  17.484   9.059 -0.1426 -0.2323  0.2185
  115loPI   C2A 1832   5.365  17.481   8.609  0.2941 -0.0635 -0.2462
  115loPI   C3A 1833   5.066  17.256   8.308 -0.0308  0.1412 -0.0599
  115loPI   C4A 1834   5.000  16.961   7.888  0.2174 -0.1411  0.0021
  115loPI   C5A 1835   4.966  16.623   7.587  0.0974  0.0566 -0.0223
  115loPI   C6A 1836   5.292  16.417   7.209 -0.2086 -0.1997  0.1103
  115loPI   C1B 1837   5.831  17.960   8.838 -0.2245  0.0492 -0.1581
  115loPI   C2B 1838   5.451  18.000   8.591  0.0395  0.2629 -0.1356
  115loPI   C3B 1839   5.309  18.283   8.180 -0.0071 -0.0427 -0.1340
  115loPI   C4B 1840   5.270  18.653   7.909  0.0209 -0.1510 -0.2257
  116loPI    C1 1841  15.837   8.511  10.187  0.0820 -0.2715 -0.0510
  116loPI    C2 1842  15.470   8.527  10.028  0.0350  0.0305  0.0819
  116loPI    C3 1843  15.516   8.514  10.425  0.1631 -0.2932  0.0589
  116loPI   PO4 1844  15.959   8.224  10.148 -0.0622 -0.2496  0.1778
  116loPI   GL1 1845  15.992   7.927   9.794  0.0119  0.0666  0.0041
  116loPI   GL2 1846  16.012   7.608   9.761 -0.1163  0.2244 -0.1335
  116loPI   C1A 1847  16.252   8.138   9.413  0.0172 -0.0703  0.2132
  116loPI   C2A 1848  16.428   8.417   8.991  0.2425  0.1338 -0.1755
  116loPI   C3A 1849  16.460   8.664   8.600 -0.0587  0.1327  0.1248
  116loPI   C4A 1850  16.219   8.583   8.180 -0.2221  0.0066 -0.6540
  116loPI   C5A 1851  15.926   8.434   7.935 -0.3309 -0.0304  0.1001
  116loPI   C6A 1852  15.724   8.559   7.686  0.0233  0.1142  0.1004
  116loPI   C1B 1853  16.025   7.685   9.334  0.2282  0.0223  0.0833
  116loPI   C2B 1854  16.168   7.780   8.866  0.1706 -0.2111 -0.2975
  116loPI   C3B 1855  16.196   7.647   8.471 -0.1019 -0.2393 -0.0406
  116loPI   C4B 1856  15.968   7.421   8.142 -0.0669  0.0362  0.5055
  117loPI    C1 1857  11.024  16.583   9.896  0.0013  0.2995  0.2922
  117loPI    C2 1858  10.799  16.327  10.106 -0.1407  0.2421  0.0743
  117loPI    C3 1859  11.190  16.364  10.186 -0.1245 -0.0230  0.1256
  117loPI   PO4 1860  10.801  16.718   9.794  0.0350 -0.1038 -0.0385
  117loPI   GL1 1861  10.450  16.423   9.538 -0.0581  0.0102 -0.1099
  117loPI   GL2 1862  10.742  16.189   9.661 -0.0474  0.0980  0.0363
  117loPI   C1A 1863  10.312  16.631   9.168 -0.0628  0.0793  0.0450
  117loPI   C2A 1864  10.232  16.647   8.769  0.1762 -0.0771  0.0581
  117loPI   C3A 1865  10.165  16.548   8.388  0.1481  0.1410 -0.0110
  117loPI   C4A 1866  10.259  16.551   7.953  0.0265  0.2656  0.1796
  117loPI   C5A 1867  10.406  16.704   7.550 -0.1528  0.4059  0.2332
  117loPI   C6A 1868  10.301  16.662   7.066  0.1265 -0.0564 -0.3110
  117loPI   C1B 1869  10.627  16.102   9.194  0.0665 -0.1867 -0.2935
  117loPI   C2B 1870  10.453  16.153   8.788 -0.1892 -0.1434 -0.0024
  117loPI   C3B 1871  10.384  16.094   8.286  0.1182 -0.5533  0.0184
  117loPI   C4B 1872  10.260  16.051   7.871  0.3677 -0.1835  0.2135
  118loPI    C1 1873   7.189   1.848  10.068 -0.2266  0.1723  0.1153
  118loPI    C2 1874   6.845   1.956  10.242 -0.2878  0.0967  0.0418
  118loPI    C3 1875   7.162   1.864  10.467 -0.2911  0.2457  0.1084
  118loPI   PO4 1876   7.193   2.035   9.872 -0.0236 -0.0703 -0.0248
  118loPI   GL1 1877   7.270   2.272   9.527  0.1826 -0.2787  0.0050
  118loPI   GL2 1878   7.208   2.577   9.410 -0.1198  0.0819  0.1595
  118loPI   C1A 1879   7.184   2.206   9.082 -0.0632 -0.1518  0.3395
  118loPI   C2A 1880   7.078   2.310   8.675  0.0391 -0.0386 -0.0251
  118loPI   C3A 1881   6.934   2.356   8.280 -0.0465  0.4501  0.1461
  118loPI   C4A 1882   7.036   2.467   7.907 -0.1513 -0.0051 -0.2501
  118loPI   C5A 1883   7.159   2.819   7.674  0.0852 -0.0943 -0.0879
  118loPI   C6A 1884   7.244   3.211   7.345 -0.2125  0.0240  0.3269
  118loPI   C1B 1885   7.063   2.764   8.913 -0.1159  0.1949 -0.0285
  118loPI   C2B 1886   6.886   2.842   8.495  0.2226  0.1958 -0.2067
  118loPI   C3B 1887   6.896   2.882   8.150 -0.2724  0.2744  0.3071
  118loPI   C4B 1888   6.616   2.905   7.775  0.2504 -0.0489  0.0900
  119loPI    C1 1889   3.698  16.892   9.710 -0.0739 -0.0041  0.1565
  119loPI    C2 1890   4.068  16.742   9.729 -0.0106  0.1277 -0.0072
  119loPI    C3 1891   3.782  16.544   9.531  0.0431  0.1634 -0.1212
  119loPI   PO4 1892   3.743  17.122   9.538 -0.3972 -0.0594 -0.1718
  119loPI   GL1 1893   3.813  17.417   9.239  0.0518  0.3298 -0.0535
  119loPI   GL2 1894   4.034  17.572   9.177  0.1432  0.1324  0.4283
  119loPI   C1A 1895   3.532  17.358   8.829  0.0533 -0.0285 -0.0658
  119loPI   C2A 1896   3.761  17.573   8.394 -0.1619 -0.0699  0.0091
  119loPI   C3A 1897   3.766  17.680   7.986 -0.0944  0.0935  0.4183
  119loPI   C4A 1898   3.954  17.594   7.520 -0.1605  0.1404  0.2035
  119loPI   C5A 1899   4.409  17.537   7.360  0.0357 -0.0843  0.1183
  119loPI   C6A 1900   4.702  17.286   7.083 -0.1257  0.2675 -0.2636
  119loPI   C1B 1901   4.106  17.519   8.783 -0.0047 -0.2076  0.3344
  119loPI   C2B 1902   4.166  17.287   8.360  0.0077  0.0850  0.0738
  119loPI   C3B 1903   4.430  17.051   8.024  0.2769 -0.1000 -0.1192
  119loPI   C4B 1904   4.558  16.960   7.628  0.0620 -0.0059  0.1336
  120loPI    C1 1905   7.539   0.979   9.987  0.2850 -0.1351 -0.1584
  120loPI    C2 1906   7.181   0.822  10.070  0.3326 -0.2097 -0.0930
  120loPI    C3 1907   7.402   0.982  10.362  0.3706 -0.2011 -0.1262
  120loPI   PO4 1908   7.387   1.187   9.826  0.1035  0.0366 -0.2337
  120loPI   GL1 1909   7.028   1.128   9.633 -0.1173  0.2618 -0.1721
  120loPI   GL2 1910   7.272   0.804   9.526  0.1375  0.0018 -0.1802
  120loPI   C1A 1911   6.927   1.430   9.272  0.2260 -0.3722 -0.2726
  120loPI   C2A 1912   7.182   1.556   8.958  0.2659 -0.0038 -0.0616
  120loPI   C3A 1913   7.129   1.344   8.594  0.1346  0.2276 -0.0170
  120loPI   C4A 1914   6.887   0.927   8.418 -0.4240 -0.0944 -0.2860
  120loPI   C5A 1915   6.809   0.864   8.011  0.0397  0.1289 -0.1282
  120loPI   C6A 1916   6.882   0.712   7.805 -0.0054  0.0900  0.1085
  120loPI   C1B 1917   7.328   0.783   9.037  0.3105 -0.1645  0.1157
  120loPI   C2B 1918   7.366   0.907   8.564  0.0781  0.0567 -0.0497
  120loPI   C3B 1919   7.293   1.169   8.182 -0.2288 -0.1313  0.0667
  120loPI   C4B 1920   7.149   1.218   7.716  0.1303  0.4014 -0.2843
  121loPI    C1 1921  16.905  15.962  10.269  0.1097 -0.0934  0.1329
  121loPI    C2 1922  16.984  16.033  10.655  0.0958 -0.2304  0.1614
  121loPI    C3 1923  17.095  15.687  10.488  0.0758 -0.1838  0.0496
  121loPI   PO4 1924  17.023  16.160  10.181  0.2509 -0.2165 -0.0166
  121loPI   GL1 1925  17.022  16.241   9.740 -0.4089  0.0341 -0.0441
  121loPI   GL2 1926  17.353  16.167   9.628  0.0689  0.0049 -0.1487
  121loPI   C1A 1927  16.783  16.133   9.380 -0.0303 -0.0079  0.3074
  121loPI   C2A 1928  16.661  16.079   9.031 -0.1584 -0.0470  0.1527
  121loPI   C3A 1929  16.644  16.281   8.654 -0.0120  0.1050 -0.1478
  121loPI   C4A 1930  16.591  16.584   8.291  0.1312  0.3152  0.0876
  121loPI   C5A 1931  16.626  16.880   8.102 -0.1373  0.1056  0.2307
  121loPI   C6A 1932  16.572  16.911   7.646 -0.1411 -0.0738  0.2234
  121loPI   C1B 1933  17.259  16.111   9.239  0.3113  0.1090 -0.1033
  121loPI   C2B 1934  17.109  15.938   8.710  0.0193  0.1751  0.4701
  121loPI   C3B 1935  17.561  15.840   8.334  0.1552 -0.1118  0.0173
  121loPI   C4B 1936  17.747  16.203   8.143 -0.2316 -0.0730  0.1274
  122loPI    C1 1937   2.598  17.114   9.896 -0.2100  0.0415 -0.0414
  122loPI    C2 1938   2.499  17.497   9.833  0.2500  0.1710 -0.0185
  122loPI    C3 1939   2.754  17.402  10.126 -0.0398 -0.1821  0.1272
  122loPI   PO4 1940   2.718  17.002   9.716  0.0826 -0.3190  0.2843
  122loPI   GL1 1941   2.728  17.172   9.334  0.3829  0.2525  0.0547
  122loPI   GL2 1942   2.813  16.829   9.218  0.2037 -0.1679  0.0464
  122loPI   C1A 1943   2.377  17.035   9.055 -0.0869  0.3369  0.0561
  122loPI   C2A 1944   2.202  17.099   8.734 -0.1409 -0.0739  0.1460
  122loPI   C3A 1945   2.043  16.882   8.256 -0.1879  0.2341 -0.1481
  122loPI   C4A 1946   1.837  16.745   7.965  0.1628  0.1690 -0.2185
  122loPI   C5A 1947   1.799  16.953   7.533 -0.3048 -0.1997  0.2866
  122loPI   C6A 1948   2.256  17.067   7.464  0.0342 -0.2615  0.1101
  122loPI   C1B 1949   2.504  16.517   8.973 -0.1404 -0.1680 -0.3318
  122loPI   C2B 1950   2.583  16.384   8.616  0.1971  0.2597 -0.0107
  122loPI   C3B 1951   2.627  16.262   8.169  0.1062 -0.1107 -0.0937
  122loPI   C4B 1952   2.829  15.946   8.037  0.1796 -0.2046  0.1278
  123loPI    C1 1953   0.635  18.573  10.409 -0.0163  0.0396 -0.1243
  123loPI    C2 1954   0.245  18.597  10.497 -0.0287 -0.0469 -0.1542
  123loPI    C3 1955   0.475  18.924  10.514 -0.0979 -0.0002 -0.1146
  123loPI   PO4 1956   0.618  18.440  10.199  0.0544 -0.0546  0.2582
  123loPI   GL1 1957   0.403  18.602   9.816 -0.1869 -0.2803 -0.0372
  123loPI   GL2 1958   0.571  18.532   9.639 -0.0649 -0.0469 -0.0727
  123loPI   C1A 1959   0.127  18.313   9.548 -0.0272  0.2618 -0.1903
  123loPI   C2A 1960   0.160  18.071   9.216 -0.0914  0.0808  0.1327
  123loPI   C3A 1961   0.354  17.777   8.979  0.2678  0.1416  0.2707
  123loPI   C4A 1962   0.443  17.594   8.481 -0.0962  0.1594  0.1698
  123loPI   C5A 1963   0.210  17.524   8.113 -0.1197 -0.2031  0.2672
  123loPI   C6A 1964  -0.032  17.171   7.910  0.0664  0.0500 -0.1246
  123loPI   C1B 1965   0.546  18.404   9.188 -0.0576  0.1080 -0.0506
  123loPI   C2B 1966   0.620  18.208   8.769  0.4134  0.2303  0.0134
  123loPI   C3B 1967   0.358  18.069   8.427  0.1894 -0.0489 -0.0021
  123loPI   C4B 1968   0.476  18.017   8.065  0.0413  0.1743  0.3275
  124loPI    C1 1969   1.594  18.663  10.112  0.2538  0.0427  0.0508
  124loPI    C2 1970   1.694  18.278  10.153  0.0899 -0.0465 -0.3424
  124loPI    C3 1971   1.459  18.454  10.425 -0.0502 -0.2976 -0.2976
  124loPI   PO4 1972   1.461  18.635   9.857  0.0870  0.0474 -0.0013
  124loPI   GL1 1973   1.453  18.899   9.458 -0.2011 -0.3355 -0.2714
  124loPI   GL2 1974   1.624  18.652   9.370 -0.1994  0.0404  0.0861
  124loPI   C1A 1975   1.699  19.099   9.046 -0.1888 -0.1710  0.1697
  124loPI   C2A 1976   1.836  18.909   8.773  0.0734  0.1199  0.1018
  124loPI   C3A 1977   2.015  18.691   8.427  0.0030 -0.4681 -0.0329
  124loPI   C4A 1978   2.135  18.636   7.904  0.0795  0.1344 -0.1825
  124loPI   C5A 1979   2.347  18.921   7.608  0.0096  0.2174  0.4191
  124loPI   C6A 1980   2.316  19.092   7.144 -0.1390  0.0856  0.0271
  124loPI   C1B 1981   1.522  18.622   8.980  0.1004  0.1490  0.2088
  124loPI   C2B 1982   1.451  18.624   8.536  0.0521  0.2198 -0.2799
  124loPI   C3B 1983   1.649  18.536   8.153  0.2146  0.0887 -0.2868
  124loPI   C4B 1984   1.519  18.328   7.829 -0.3240  0.2189 -0.2385
  125loPI    C1 1985   9.352   9.570   9.703 -0.1235  0.2791  0.2687
  125loPI    C2 1986   9.496   9.357  10.009  0.0996  0.0557  0.0132
  125loPI    C3 1987   9.675   9.698   9.900  0.0657  0.0958  0.0823
  125loPI   PO4 1988   9.222   9.389   9.555  0.0166 -0.1949 -0.1636
  125loPI   GL1 1989   9.187   9.414   9.164 -0.0930  0.1777  0.1594
  125loPI   GL2 1990   8.991   9.337   8.906 -0.0138  0.1208  0.1292
  125loPI   C1A 1991   9.273   9.671   8.743  0.1620 -0.0582  0.1899
  125loPI   C2A 1992   9.239   9.716   8.236  0.0871 -0.1250 -0.0236
  125loPI   C3A 1993   9.494   9.787   7.860  0.0290 -0.3745  0.0826
  125loPI   C4A 1994   9.638   9.725   7.475  0.1027  0.1063 -0.2443
  125loPI   C5A 1995   9.997   9.537   7.391 -0.1072  0.0625  0.2159
  125loPI   C6A 1996  10.277   9.210   7.151  0.4518 -0.1434 -0.1633
  125loPI   C1B 1997   8.904   9.427   8.496 -0.0726  0.1388  0.0821
  125loPI   C2B 1998   8.767   9.623   8.132  0.0207  0.1324  0.0067
  125loPI   C3B 1999   8.986   9.685   7.737  0.0142  0.1349 -0.1691
  125loPI   C4B 2000   9.196   9.561   7.429  0.0043  0.1437  0.0224
  126loPI    C1 2001  15.261  16.078   9.951 -0.0320 -0.0843  0.0131
  126loPI    C2 2002  14.953  16.000  10.195  0.0331 -0.2036  0.0582
  126loPI    C3 2003  15.245  16.246  10.314  0.0822 -0.2890  0.1152
  126loPI   PO4 2004  15.072  16.061   9.715 -0.2207 -0.0529 -0.0467
  126loPI   GL1 2005  15.006  16.343   9.350 -0.1329 -0.1712  0.1029
  126loPI   GL2 2006  14.826  16.614   9.300  0.3778  0.4409 -0.0388
  126loPI   C1A 2007  15.341  16.244   9.063 -0.0899  0.0835  0.0634
  126loPI   C2A 2008  15.254  16.203   8.577 -0.0220 -0.2490  0.1726
  126loPI   C3A 2009  15.201  16.316   8.224 -0.0668  0.1519  0.1831
  126loPI   C4A 2010  15.287  16.261   7.753  0.0056 -0.2583 -0.1670
  126loPI   C5A 2011  15.537  16.034   7.394  0.0551  0.1254 -0.0341
  126loPI   C6A 2012  15.822  16.252   7.172 -0.3381 -0.1029 -0.3190
  126loPI   C1B 2013  15.209  16.796   9.021 -0.0845  0.0226  0.2350
  126loPI   C2B 2014  15.566  16.849   8.763  0.4592  0.0897 -0.1341
  126loPI   C3B 2015  15.714  16.633   8.449 -0.0488  0.2011  0.0776
  126loPI   C4B 2016  15.714  16.294   8.089  0.1781 -0.0122  0.1408
  127loPI    C1 2017   3.494  10.810  10.268  0.0927  0.0190  0.1367
  127loPI    C2 2018   3.706  11.124  10.397  0.2035 -0.0421  0.1038
  127loPI    C3 2019   3.721  10.777  10.596  0.1493 -0.0520  0.0906
  127loPI   PO4 2020   3.494  10.936   9.994  0.1343  0.4116  0.1309
  127loPI   GL1 2021   3.388  10.799   9.586  0.0293  0.0265  0.6499
  127loPI   GL2 2022   3.301  10.628   9.518 -0.0369  0.3980  0.1029
  127loPI   C1A 2023   3.597  10.971   9.288 -0.1158  0.1771  0.1954
  127loPI   C2A 2024   3.491  11.151   8.868 -0.1146  0.3051  0.0018
  127loPI   C3A 2025   3.446  10.978   8.507 -0.0452 -0.0514 -0.1493
  127loPI   C4A 2026   3.495  10.843   8.127  0.2310 -0.1951  0.0240
  127loPI   C5A 2027   3.773  10.531   7.887 -0.2479 -0.1713 -0.3985
  127loPI   C6A 2028   3.900  10.320   7.497 -0.0630 -0.0868 -0.0766
  127loPI   C1B 2029   3.164  10.699   9.064  0.0266 -0.0112  0.0410
  127loPI   C2B 2030   3.071  10.763   8.692 -0.0255  0.0533 -0.0130
  127loPI   C3B 2031   2.999  10.752   8.235  0.0540  0.1284  0.1511
  127loPI   C4B 2032   3.186  10.696   7.800 -0.0655 -0.1974  0.0647
  128loPI    C1 2033   3.459   8.728   9.986 -0.3607 -0.1512  0.0872
  128loPI    C2 2034   3.546   9.020  10.246 -0.2727 -0.0417 -0.0638
  128loPI    C3 2035   3.445   8.657  10.380  0.1195 -0.0871  0.1218
  128loPI   PO4 2036   3.624   8.754   9.784  0.1072  0.1053 -0.1388
  128loPI   GL1 2037   3.644   8.634   9.381  0.2461 -0.1279  0.1821
  128loPI   GL2 2038   3.469   8.464   9.261 -0.0815  0.0938  0.0405
  128loPI   C1A 2039   3.652   8.958   9.099  0.0782 -0.1479 -0.0113
  128loPI   C2A 2040   3.627   9.033   8.628  0.1807 -0.4502 -0.2669
  128loPI   C3A 2041   3.457   9.022   8.173  0.0409 -0.0069 -0.0272
  128loPI   C4A 2042   3.289   9.299   7.913 -0.1049 -0.0492 -0.2105
  128loPI   C5A 2043   3.112   9.680   7.771 -0.1867  0.0756  0.0292
  128loPI   C6A 2044   3.049  10.018   7.569  0.2311  0.1347  0.0379
  128loPI   C1B 2045   3.529   8.580   8.830 -0.2843 -0.1664  0.0225
  128loPI   C2B 2046   3.774   8.593   8.490  0.3234  0.1974 -0.0391
  128loPI   C3B 2047   3.754   8.621   8.032 -0.0913 -0.0422  0.1260
  128loPI   C4B 2048   3.496   8.849   7.690  0.3155  0.0392 -0.3343
  129loPI    C1 2049  11.288   3.079   9.958  0.0271  0.2072  0.1254
  129loPI    C2 2050  11.079   2.817  10.176  0.0685  0.0755  0.0090
  129loPI    C3 2051  11.243   3.137  10.351 -0.1151  0.1083  0.1248
  129loPI   PO4 2052  11.435   2.947   9.839 -0.0848  0.0131  0.2922
  129loPI   GL1 2053  11.454   2.803   9.457 -0.3064  0.0518 -0.0058
  129loPI   GL2 2054  11.569   2.580   9.346 -0.2765  0.0357  0.0327
  129loPI   C1A 2055  11.101   2.732   9.202 -0.0190  0.1908  0.1051
  129loPI   C2A 2056  10.951   2.686   8.840  0.0299  0.1392  0.1457
  129loPI   C3A 2057  10.985   2.486   8.416 -0.2632  0.0337 -0.0134
  129loPI   C4A 2058  10.802   2.257   7.997  0.0485  0.2134 -0.2916
  129loPI   C5A 2059  10.835   2.099   7.538  0.3648  0.1816  0.1846
  129loPI   C6A 2060  11.143   2.169   7.192  0.1272  0.1418 -0.0608
  129loPI   C1B 2061  11.827   2.526   9.000 -0.3724  0.0732 -0.1776
  129loPI   C2B 2062  12.061   2.554   8.569 -0.1043  0.0497 -0.0470
  129loPI   C3B 2063  12.169   2.492   8.133 -0.0334  0.4440  0.0838
  129loPI   C4B 2064  12.294   2.814   7.847  0.0027  0.4191 -0.1257
  130loPI    C1 2065  14.623   6.822  10.661 -0.2071 -0.1969 -0.0985
  130loPI    C2 2066  14.525   7.210  10.666 -0.1809 -0.1912  0.0200
  130loPI    C3 2067  14.273   6.939  10.817 -0.1080 -0.1989  0.1288
  130loPI   PO4 2068  14.683   6.758  10.413  0.1044  0.0282  0.2869
  130loPI   GL1 2069  14.863   6.766   9.947 -0.1401  0.2096 -0.0341
  130loPI   GL2 2070  14.779   6.436  10.028 -0.2585 -0.3856  0.0201
  130loPI   C1A 2071  15.057   7.192   9.776 -0.3534  0.2588 -0.0404
  130loPI   C2A 2072  15.096   7.443   9.479 -0.2180 -0.2846  0.2178
  130loPI   C3A 2073  15.130   7.445   8.960 -0.0576  0.0463 -0.1542
  130loPI   C4A 2074  15.374   7.338   8.632 -0.2852 -0.4314 -0.1735
  130loPI   C5A 2075  15.573   7.568   8.321 -0.2599 -0.0003 -0.2716
  130loPI   C6A 2076  15.762   7.997   8.075  0.5962  0.1807 -0.2605
  130loPI   C1B 2077  14.861   6.466   9.560 -0.2074 -0.0007 -0.1070
  130loPI   C2B 2078  14.967   6.457   9.049  0.2596 -0.2289  0.0189
  130loPI   C3B 2079  15.043   6.464   8.579 -0.0718 -0.0071 -0.1727
  130loPI   C4B 2080  15.095   6.336   8.260 -0.1698  0.0089 -0.0063
  131loPI    C1 2081  14.662   8.758  10.689 -0.0048  0.0861 -0.2130
  131loPI    C2 2082  14.306   8.644  10.831  0.0634 -0.0097 -0.1176
  131loPI    C3 2083  14.641   8.535  11.020  0.1381  0.1969 -0.1282
  131loPI   PO4 2084  14.591   8.670  10.379  0.1708  0.3429 -0.1519
  131loPI   GL1 2085  14.254   8.861   9.990 -0.0203  0.1448  0.1294
  131loPI   GL2 2086  14.559   8.888   9.795  0.0198 -0.1120 -0.0819
  131loPI   C1A 2087  14.238   9.264   9.655  0.0084  0.1107  0.1203
  131loPI   C2A 2088  14.454   9.507   9.405 -0.1037 -0.2449  0.1564
  131loPI   C3A 2089  14.672   9.701   9.005  0.0574  0.2960 -0.3829
  131loPI   C4A 2090  14.651   9.537   8.586  0.1345 -0.1929  0.0319
  131loPI   C5A 2091  14.416   9.461   8.284  0.0014  0.0918  0.2945
  131loPI   C6A 2092  14.141   9.328   8.161 -0.1001 -0.1598  0.0762
  131loPI   C1B 2093  14.268   8.799   9.429 -0.1721 -0.0391 -0.0671
  131loPI   C2B 2094  14.091   8.758   9.022 -0.2880  0.0615  0.0563
  131loPI   C3B 2095  14.018   8.947   8.693  0.2409  0.1742 -0.2181
  131loPI   C4B 2096  13.936   8.956   8.370  0.0450 -0.0877  0.1753
  132loPI    C1 2097   7.859  18.080  10.152  0.0467 -0.1856 -0.0607
  132loPI    C2 2098   8.135  17.910  10.387  0.1268 -0.1745 -0.1463
  132loPI    C3 2099   7.897  18.197  10.533  0.2085 -0.1340 -0.0923
  132loPI   PO4 2100   7.884  18.213   9.787  0.2933  0.0434 -0.1333
  132loPI   GL1 2101   8.168  18.091   9.363 -0.0019  0.1747  0.0613
  132loPI   GL2 2102   8.025  18.386   9.282 -0.0675 -0.3460  0.0677
  132loPI   C1A 2103   8.054  17.794   9.088  0.0322  0.2341 -0.0992
  132loPI   C2A 2104   7.940  17.846   8.552 -0.2632  0.2731  0.0775
  132loPI   C3A 2105   7.635  17.857   8.244 -0.2916 -0.3629  0.2537
  132loPI   C4A 2106   7.326  18.071   7.950  0.6179 -0.5470  0.0184
  132loPI   C5A 2107   7.037  18.071   8.321 -0.0671  0.1812  0.1819
  132loPI   C6A 2108   6.526  18.111   8.337 -0.2732  0.1194  0.0308
  132loPI   C1B 2109   8.258  18.223   8.826  0.0615  0.2807  0.0894
  132loPI   C2B 2110   8.427  18.039   8.404  0.0946  0.0587  0.0869
  132loPI   C3B 2111   8.103  17.758   8.083  0.2846 -0.0286 -0.0770
  132loPI   C4B 2112   7.698  17.726   7.715  0.0903  0.2504  0.0924
  133loPI    C1 2113  13.662   4.534   9.648 -0.0141 -0.0441 -0.0576
  133loPI    C2 2114  13.758   4.270   9.363  0.0144 -0.0184 -0.0718
  133loPI    C3 2115  13.677   4.144   9.734 -0.0490 -0.0544 -0.0979
  133loPI   PO4 2116  13.860   4.753   9.583  0.0420 -0.2087 -0.1316
  133loPI   GL1 2117  13.968   4.745   9.193 -0.1216  0.1916 -0.1968
  133loPI   GL2 2118  13.635   4.700   9.081  0.2567  0.0961 -0.0536
  133loPI   C1A 2119  14.005   4.791   8.760 -0.1201  0.0975 -0.1582
  133loPI   C2A 2120  14.160   4.726   8.312 -0.3674 -0.0999  0.1039
  133loPI   C3A 2121  14.123   4.607   7.839 -0.0906 -0.1693 -0.1111
  133loPI   C4A 2122  14.031   4.145   7.780  0.2998 -0.4611 -0.1619
  133loPI   C5A 2123  14.213   3.794   7.864 -0.1934 -0.0680  0.0992
  133loPI   C6A 2124  14.591   3.576   7.650  0.0981  0.1337 -0.0185
  133loPI   C1B 2125  13.422   4.626   8.662 -0.2055  0.0223  0.0865
  133loPI   C2B 2126  13.275   4.744   8.243  0.0988 -0.0707  0.2742
  133loPI   C3B 2127  13.145   4.668   7.852 -0.2375 -0.1799 -0.0705
  133loPI   C4B 2128  13.117   4.268   7.639 -0.1247  0.0237  0.1441
  134loPI    C1 2129  15.805   3.977  10.099  0.1715 -0.3616 -0.0212
  134loPI    C2 2130  15.506   3.715  10.142 -0.0334 -0.1176  0.0601
  134loPI    C3 2131  15.431   4.108  10.146  0.2806 -0.0543  0.0129
  134loPI   PO4 2132  15.979   3.895   9.920  0.2634  0.1528 -0.0560
  134loPI   GL1 2133  16.119   3.553   9.668  0.0506  0.0779 -0.1752
  134loPI   GL2 2134  16.199   3.167   9.578 -0.1060  0.0141 -0.1603
  134loPI   C1A 2135  16.007   3.646   9.314  0.0830 -0.0636  0.2861
  134loPI   C2A 2136  16.042   3.719   8.883 -0.0277  0.0227  0.3231
  134loPI   C3A 2137  15.790   3.647   8.536  0.0623  0.0097  0.3221
  134loPI   C4A 2138  15.722   3.730   8.086 -0.4751 -0.1634  0.5354
  134loPI   C5A 2139  15.557   3.597   7.695 -0.0950 -0.0462 -0.4028
  134loPI   C6A 2140  15.363   3.609   7.241 -0.1641  0.0933  0.0146
  134loPI   C1B 2141  16.236   3.297   9.096  0.2101  0.1426 -0.0140
  134loPI   C2B 2142  16.516   3.654   8.913  0.0022 -0.3079  0.1634
  134loPI   C3B 2143  16.525   3.824   8.577  0.5075 -0.0055  0.1379
  134loPI   C4B 2144  16.234   3.986   8.297 -0.1842 -0.1207 -0.1677
  135loPI    C1 2145   4.073   6.732   9.636  0.0965 -0.1306  0.1916
  135loPI    C2 2146   4.195   6.477   9.919  0.0553  0.0650  0.3888
  135loPI    C3 2147   3.855   6.682   9.967 -0.1522 -0.1808  0.0230
  135loPI   PO4 2148   4.069   6.597   9.393  0.0793  0.3868 -0.0969
  135loPI   GL1 2149   4.271   6.526   8.929 -0.4243  0.3145 -0.0246
  135loPI   GL2 2150   4.445   6.825   8.943 -0.1758  0.1579  0.4162
  135loPI   C1A 2151   4.131   6.307   8.613  0.0359 -0.0874  0.1724
  135loPI   C2A 2152   4.303   6.206   8.132  0.3747  0.1039 -0.0645
  135loPI   C3A 2153   4.591   6.198   7.826 -0.2059  0.0204  0.2022
  135loPI   C4A 2154   4.790   6.158   7.482 -0.0402  0.1439  0.0788
  135loPI   C5A 2155   5.358   6.331   7.490 -0.3100  0.0959 -0.0849
  135loPI   C6A 2156   5.614   6.493   7.829  0.1064  0.1551 -0.1862
  135loPI   C1B 2157   4.541   6.811   8.507 -0.0347 -0.1286  0.2649
  135loPI   C2B 2158   4.698   6.599   8.209 -0.1007 -0.2746 -0.2718
  135loPI   C3B 2159   4.980   6.563   7.858 -0.0971  0.2551  0.1778
  135loPI   C4B 2160   4.928   6.673   7.356  0.1616 -0.1604  0.1537
  136loPI    C1 2161  10.746  17.098  10.153  0.0226 -0.1793  0.1347
  136loPI    C2 2162  11.012  17.137  10.449  0.1646 -0.0794 -0.0044
  136loPI    C3 2163  10.879  16.774  10.347  0.1661 -0.1203  0.1366
  136loPI   PO4 2164  10.707  17.209  10.062  0.1173  0.0551 -0.1021
  136loPI   GL1 2165  10.760  17.209   9.662  0.0413  0.2597  0.0423
  136loPI   GL2 2166  10.486  17.124   9.408  0.0466  0.1202 -0.0653
  136loPI   C1A 2167  11.021  17.183   9.341  0.2931 -0.1432  0.0149
  136loPI   C2A 2168  10.996  17.231   8.914 -0.0315  0.0485 -0.3463
  136loPI   C3A 2169  10.935  17.206   8.494 -0.0945  0.1535  0.1101
  136loPI   C4A 2170  10.803  17.285   8.108  0.1937 -0.0063 -0.1694
  136loPI   C5A 2171  10.670  17.482   7.821 -0.0312 -0.0393  0.0862
  136loPI   C6A 2172  10.263  17.627   7.824 -0.0533  0.1531  0.1991
  136loPI   C1B 2173  10.557  17.011   8.945  0.0442 -0.1501 -0.0866
  136loPI   C2B 2174  10.369  16.991   8.442  0.1376 -0.2178  0.0833
  136loPI   C3B 2175  10.276  17.099   7.996 -0.2424 -0.4199 -0.1790
  136loPI   C4B 2176   9.903  16.872   7.948  0.1675 -0.1270  0.0002
  137loPI    C1 2177   6.683   0.184  10.039 -0.1010 -0.0119  0.1339
  137loPI    C2 2178   6.422   0.238  10.337 -0.2587  0.1485 -0.0298
  137loPI    C3 2179   6.712   0.506  10.273 -0.2042  0.0968 -0.0004
  137loPI   PO4 2180   6.550   0.182   9.820 -0.1105 -0.1905 -0.1383
  137loPI   GL1 2181   6.491  -0.013   9.478  0.2451 -0.1046 -0.0063
  137loPI   GL2 2182   6.491  -0.323   9.408  0.0214 -0.4104 -0.4328
  137loPI   C1A 2183   6.349   0.161   9.138  0.1331 -0.4364 -0.1945
  137loPI   C2A 2184   6.381   0.130   8.725  0.4782  0.1306 -0.3130
  137loPI   C3A 2185   6.390   0.105   8.278 -0.1139  0.1537 -0.1543
  137loPI   C4A 2186   6.430   0.496   8.008 -0.0411  0.1767  0.3832
  137loPI   C5A 2187   6.418   0.592   7.561 -0.1681  0.2845 -0.0255
  137loPI   C6A 2188   6.467   0.266   7.552 -0.0239  0.1456  0.1386
  137loPI   C1B 2189   6.395  -0.333   8.988  0.1983 -0.0803 -0.0885
  137loPI   C2B 2190   6.193  -0.305   8.478 -0.1554  0.0579  0.2420
  137loPI   C3B 2191   6.211  -0.274   8.066 -0.0909  0.1382 -0.2895
  137loPI   C4B 2192   6.173  -0.083   7.744 -0.0418 -0.2167  0.1040
  138loPI    C1 2193   6.609  16.661   9.885 -0.1004 -0.0147  0.0259
  138loPI    C2 2194   6.352  16.447   9.666 -0.1207  0.0888 -0.0525
  138loPI    C3 2195   6.241  16.588  10.024 -0.0762 -0.1091  0.0409
  138loPI   PO4 2196   6.728  16.855   9.740 -0.2109 -0.1564  0.3917
  138loPI   GL1 2197   6.695  16.999   9.332 -0.3302  0.0307  0.0062
  138loPI   GL2 2198   6.573  17.272   9.138 -0.1528 -0.1443 -0.0790
  138loPI   C1A 2199   6.508  16.843   8.949  0.4403  0.0888 -0.1576
  138loPI   C2A 2200   6.368  16.896   8.602  0.0044 -0.0699 -0.1336
  138loPI   C3A 2201   6.069  16.819   8.325  0.1249 -0.0605 -0.2155
  138loPI   C4A 2202   5.990  16.809   7.889  0.0014  0.1383 -0.0419
  138loPI   C5A 2203   5.889  16.509   7.654  0.0779 -0.0168  0.1584
  138loPI   C6A 2204   5.476  16.264   7.630 -0.1553 -0.2070  0.0838
  138loPI   C1B 2205   6.457  17.430   8.795 -0.0035 -0.1222  0.0418
  138loPI   C2B 2206   6.361  17.320   8.340  0.4043 -0.3195  0.0169
  138loPI   C3B 2207   6.273  17.275   7.965 -0.3710 -0.2530 -0.1162
  138loPI   C4B 2208   6.406  17.106   7.581  0.0182 -0.1426  0.0141
  139loPI    C1 2209   6.565   1.024  10.219 -0.0654 -0.0614  0.0106
  139loPI    C2 2210   6.864   0.909  10.459 -0.0959  0.1327  0.1440
  139loPI    C3 2211   6.651   1.235  10.548 -0.1918  0.1326 -0.0795
  139loPI   PO4 2212   6.672   1.031  10.016  0.2643 -0.4016  0.1343
  139loPI   GL1 2213   6.549   1.156   9.603 -0.1208  0.2123  0.0979
  139loPI   GL2 2214   6.255   1.204   9.564 -0.2950 -0.0606 -0.0474
  139loPI   C1A 2215   6.723   0.990   9.126  0.2756  0.0356  0.2178
  139loPI   C2A 2216   6.606   0.763   8.791 -0.3560 -0.4424 -0.1285
  139loPI   C3A 2217   6.567   0.570   8.468  0.1824 -0.1662  0.1088
  139loPI   C4A 2218   6.371   0.888   8.244 -0.1124  0.1130 -0.1316
  139loPI   C5A 2219   6.339   1.027   7.819  0.0959  0.0048  0.0980
  139loPI   C6A 2220   6.352   1.340   7.640 -0.0568  0.3689  0.2957
  139loPI   C1B 2221   6.198   0.982   9.243  0.4822  0.0110  0.0288
  139loPI   C2B 2222   6.140   1.039   8.774 -0.0432  0.1070 -0.0620
  139loPI   C3B 2223   6.022   1.303   8.385  0.0833 -0.5535 -0.0334
  139loPI   C4B 2224   5.870   1.281   7.920 -0.4919  0.1235 -0.2109
  140loPI    C1 2225  10.504   9.730   9.597  0.0247 -0.0017  0.0933
  140loPI    C2 2226  10.142   9.813   9.449  0.0077 -0.0718  0.0954
  140loPI    C3 2227  10.176   9.614   9.795  0.0481 -0.0679  0.0936
  140loPI   PO4 2228  10.727   9.972   9.633  0.0812 -0.0261  0.0057
  140loPI   GL1 2229  10.826  10.396   9.454 -0.4427  0.2974 -0.2563
  140loPI   GL2 2230  11.211  10.294   9.440  0.0761  0.1546  0.1737
  140loPI   C1A 2231  10.709  10.672   9.127  0.1686 -0.2279  0.2492
  140loPI   C2A 2232  10.883  10.861   8.757  0.2245  0.0207  0.0279
  140loPI   C3A 2233  10.918  10.735   8.350  0.2008  0.2430 -0.1034
  140loPI   C4A 2234  10.834  10.607   7.916 -0.1389  0.0105  0.0899
  140loPI   C5A 2235  11.074  10.685   7.566 -0.0878 -0.0051 -0.0324
  140loPI   C6A 2236  11.216  10.609   7.143 -0.1531  0.1339  0.1483
  140loPI   C1B 2237  11.046  10.257   9.089  0.2426 -0.2628  0.0022
  140loPI   C2B 2238  10.896  10.266   8.722  0.1495 -0.1668 -0.1180
  140loPI   C3B 2239  10.885  10.015   8.298  0.2265 -0.2945  0.1718
  140loPI   C4B 2240  11.045  10.083   7.856  0.1706 -0.0980  0.0138
  141loPI    C1 2241   2.867   2.342   9.927  0.0054  0.2011 -0.0463
  141loPI    C2 2242   2.821   2.689  10.120 -0.0144  0.0517  0.2238
  141loPI    C3 2243   3.176   2.593   9.961  0.0275  0.1365  0.2652
  141loPI   PO4 2244   2.689   2.214   9.738  0.1737 -0.1003 -0.5424
  141loPI   GL1 2245   2.675   2.027   9.386  0.0265  0.2539  0.3935
  141loPI   GL2 2246   2.540   2.226   9.080 -0.3801  0.2436 -0.0417
  141loPI   C1A 2247   2.882   1.764   9.057  0.1299 -0.1362  0.0465
  141loPI   C2A 2248   2.773   1.507   8.662 -0.2732 -0.1595 -0.4901
  141loPI   C3A 2249   2.740   1.270   8.283 -0.2333 -0.4898 -0.1138
  141loPI   C4A 2250   2.557   1.182   7.879  0.0050 -0.0431  0.0371
  141loPI   C5A 2251   2.466   0.875   7.515  0.0881 -0.0801  0.0213
  141loPI   C6A 2252   2.573   0.798   7.157 -0.1961  0.1225  0.0329
  141loPI   C1B 2253   2.976   2.335   8.885 -0.0761  0.6168 -0.1040
  141loPI   C2B 2254   3.165   2.761   8.913 -0.0952 -0.1714 -0.1094
  141loPI   C3B 2255   3.339   3.139   9.021 -0.1424  0.1522 -0.2324
  141loPI   C4B 2256   3.239   3.442   8.829 -0.4507 -0.0787 -0.1122
  142loPI    C1 2257   2.181   1.675   9.732  0.0557  0.0725 -0.0429
  142loPI    C2 2258   2.553   1.637   9.591  0.1048  0.1065  0.0766
  142loPI    C3 2259   2.491   1.808   9.947 -0.0279  0.1290  0.0431
  142loPI   PO4 2260   2.088   1.749   9.468 -0.2367 -0.2553 -0.0877
  142loPI   GL1 2261   1.924   2.066   9.287 -0.1145 -0.1066  0.1256
  142loPI   GL2 2262   1.956   2.406   9.392  0.0293  0.1650 -0.0041
  142loPI   C1A 2263   1.980   2.101   8.803  0.4080  0.0353  0.0066
  142loPI   C2A 2264   2.155   1.865   8.436  0.0040  0.1465  0.0648
  142loPI   C3A 2265   2.500   1.717   8.337 -0.0512  0.0093 -0.2038
  142loPI   C4A 2266   2.341   1.630   8.020  0.4187  0.0757  0.0411
  142loPI   C5A 2267   2.601   1.610   7.704 -0.0706  0.3150  0.1246
  142loPI   C6A 2268   2.997   1.849   7.524  0.0578 -0.1517  0.2397
  142loPI   C1B 2269   1.733   2.466   9.080  0.2599 -0.1948 -0.1484
  142loPI   C2B 2270   1.619   2.406   8.614 -0.2207  0.0255 -0.2756
  142loPI   C3B 2271   1.716   2.282   8.182  0.2184 -0.2247 -0.2392
  142loPI   C4B 2272   1.440   2.105   7.870  0.1289 -0.1900  0.0660
  143loPI    C1 2273   2.023  14.856  10.219 -0.0242 -0.0719  0.2649
  143loPI    C2 2274   2.379  14.946  10.378  0.0556 -0.1832  0.1504
  143loPI    C3 2275   2.289  14.566  10.290  0.0163 -0.1230 -0.0781
  143loPI   PO4 2276   2.007  14.994   9.998 -0.2225  0.2395  0.0970
  143loPI   GL1 2277   1.744  15.125   9.852 -0.0564 -0.1570 -0.3421
  143loPI   GL2 2278   1.913  15.468   9.802  0.1742  0.0429 -0.0306
  143loPI   C1A 2279   1.737  14.902   9.478 -0.1631 -0.3621 -0.0073
  143loPI   C2A 2280   1.490  14.616   9.375  0.2636 -0.3164 -0.2014
  143loPI   C3A 2281   1.174  14.531   9.098 -0.1851 -0.1358 -0.2091
  143loPI   C4A 2282   1.219  14.715   8.684 -0.1009 -0.2131 -0.0322
  143loPI   C5A 2283   1.072  14.539   8.296  0.0367 -0.0032 -0.0491
  143loPI   C6A 2284   0.800  14.682   7.967  0.0096 -0.0980 -0.0067
  143loPI   C1B 2285   1.762  15.376   9.372 -0.2264  0.2023 -0.0196
  143loPI   C2B 2286   1.665  15.468   8.925  0.1124 -0.2243  0.2036
  143loPI   C3B 2287   1.583  15.604   8.519  0.4655  0.0701  0.0945
  143loPI   C4B 2288   1.423  15.446   8.162 -0.0270 -0.0549  0.0242
  144loPI    C1 2289  15.164   6.676  10.488 -0.0517 -0.0225 -0.1197
  144loPI    C2 2290  15.004   6.507  10.814  0.1301 -0.3332 -0.1872
  144loPI    C3 2291  15.300   6.774  10.852 -0.2094  0.0382 -0.0762
  144loPI   PO4 2292  15.230   6.521  10.364  0.0040 -0.1101  0.0312
  144loPI   GL1 2293  15.460   6.682  10.048 -0.0017 -0.2873 -0.0616
  144loPI   GL2 2294  15.656   6.568   9.957  0.0877  0.1190 -0.1033
  144loPI   C1A 2295  15.242   6.730   9.655  0.2060  0.2176  0.0095
  144loPI   C2A 2296  15.266   6.904   9.198 -0.2821 -0.1231 -0.2152
  144loPI   C3A 2297  15.212   6.909   8.762 -0.0883 -0.1328 -0.0329
  144loPI   C4A 2298  15.265   6.923   8.335 -0.4045  0.2137  0.0606
  144loPI   C5A 2299  15.234   6.722   7.924 -0.2124  0.3152 -0.0820
  144loPI   C6A 2300  15.007   6.398   7.763 -0.0179  0.0674  0.0385
  144loPI   C1B 2301  15.705   6.661   9.513  0.2962  0.0663  0.1402
  144loPI   C2B 2302  15.784   6.840   9.173 -0.1176  0.3156 -0.0213
  144loPI   C3B 2303  15.795   6.913   8.764  0.1825 -0.2716 -0.0999
  144loPI   C4B 2304  15.746   7.033   8.338 -0.1111 -0.1466 -0.0810
  145loPI    C1 2305   6.294  15.388  10.224  0.3331 -0.4069  0.1405
  145loPI    C2 2306   6.580  15.318   9.953  0.2899  0.0756 -0.0395
  145loPI    C3 2307   6.596  15.646  10.181 -0.0552  0.0440  0.0365
  145loPI   PO4 2308   6.089  15.428  10.073 -0.0273  0.1627 -0.3105
  145loPI   GL1 2309   6.081  15.615   9.757  0.0184  0.3551  0.2293
  145loPI   GL2 2310   6.381  15.710   9.750  0.0385 -0.1533 -0.3965
  145loPI   C1A 2311   6.208  15.522   9.292 -0.1271 -0.1280 -0.0790
  145loPI   C2A 2312   6.100  15.652   8.896 -0.2756  0.2066 -0.3545
  145loPI   C3A 2313   6.145  15.782   8.470 -0.0189 -0.1601 -0.0515
  145loPI   C4A 2314   6.486  16.015   8.222  0.2617 -0.2542 -0.1098
  145loPI   C5A 2315   6.791  15.812   7.855  0.1502 -0.1485 -0.1803
  145loPI   C6A 2316   7.157  15.683   7.557 -0.0817  0.2275 -0.1386
  145loPI   C1B 2317   6.606  15.802   9.250 -0.1132 -0.2240 -0.2230
  145loPI   C2B 2318   6.620  15.786   8.845  0.1075 -0.1803  0.1562
  145loPI   C3B 2319   6.789  15.755   8.506  0.3017  0.2419 -0.1816
  145loPI   C4B 2320   7.189  15.575   8.102 -0.1105  0.4085 -0.1276
  146loPI    C1 2321   2.962  18.458   9.806 -0.2618 -0.0759 -0.1024
  146loPI    C2 2322   2.974  18.856   9.836  0.2417 -0.0929  0.0066
  146loPI    C3 2323   2.695  18.649  10.035  0.0883  0.1902  0.0921
  146loPI   PO4 2324   3.204  18.411   9.749  0.1364 -0.3169  0.0609
  146loPI   GL1 2325   3.407  18.391   9.403 -0.4869  0.3213 -0.1679
  146loPI   GL2 2326   3.798  18.503   9.392  0.1556  0.0922  0.1681
  146loPI   C1A 2327   3.509  18.316   8.896  0.1439 -0.1954 -0.0369
  146loPI   C2A 2328   3.758  18.502   8.506 -0.5742  0.0578 -0.1428
  146loPI   C3A 2329   3.770  18.650   8.028 -0.2021  0.0150  0.0602
  146loPI   C4A 2330   3.733  18.554   7.602  0.0558 -0.0033 -0.0536
  146loPI   C5A 2331   3.906  18.261   7.288 -0.0644  0.0225 -0.2240
  146loPI   C6A 2332   3.581  18.065   7.005  0.4023 -0.1512  0.1828
  146loPI   C1B 2333   3.894  18.674   8.985  0.0311 -0.0005  0.0400
  146loPI   C2B 2334   4.134  18.848   8.722  0.1829  0.0697 -0.1177
  146loPI   C3B 2335   4.059  19.006   8.336  0.1132 -0.3275  0.0775
  146loPI   C4B 2336   4.116  19.049   7.908  0.3693  0.1586 -0.0598
  147loPI    C1 2337  11.575   7.293  10.060 -0.2384  0.0322 -0.0486
  147loPI    C2 2338  11.401   7.589  10.265 -0.2588 -0.0083 -0.0072
  147loPI    C3 2339  11.471   7.238  10.443 -0.0285  0.0461  0.0112
  147loPI   PO4 2340  11.476   7.403   9.770 -0.0464 -0.0041  0.2973
  147loPI   GL1 2341  11.358   7.391   9.377 -0.2851 -0.1231  0.2702
  147loPI   GL2 2342  11.611   7.095   9.356  0.0695 -0.3341  0.2478
  147loPI   C1A 2343  11.365   7.396   8.885 -0.2690  0.0681 -0.2177
  147loPI   C2A 2344  11.377   7.263   8.514  0.4162 -0.1685  0.0646
  147loPI   C3A 2345  11.238   6.975   8.315  0.0185  0.2848 -0.3746
  147loPI   C4A 2346  11.051   6.817   7.997 -0.1290 -0.1537  0.2746
  147loPI   C5A 2347  10.822   6.619   7.771 -0.3060 -0.1654 -0.4571
  147loPI   C6A 2348  10.518   6.475   7.553 -0.1480  0.1662 -0.0816
  147loPI   C1B 2349  11.743   7.013   8.911  0.0841 -0.0209 -0.1744
  147loPI   C2B 2350  11.920   7.050   8.545 -0.4139 -0.0632 -0.3987
  147loPI   C3B 2351  11.742   6.970   8.238  0.1752  0.0417 -0.0432
  147loPI   C4B 2352  11.647   6.938   7.775  0.0466  0.3496  0.0125
  148loPI    C1 2353  14.272  17.703  10.295  0.0427 -0.0783  0.1612
  148loPI    C2 2354  13.959  17.455  10.271  0.1131 -0.1318 -0.2891
  148loPI    C3 2355  14.316  17.317  10.392  0.0880 -0.1883 -0.2793
  148loPI   PO4 2356  14.277  17.747   9.984 -0.1084 -0.2984  0.2448
  148loPI   GL1 2357  14.036  17.777   9.631 -0.1639 -0.0209 -0.0837
  148loPI   GL2 2358  14.430  17.728   9.535  0.0091  0.0440  0.2316
  148loPI   C1A 2359  13.750  17.906   9.315 -0.0056 -0.0996  0.0197
  148loPI   C2A 2360  13.472  18.130   9.056  0.2545 -0.5001  0.3373
  148loPI   C3A 2361  13.350  18.444   8.751 -0.2155  0.0270 -0.1771
  148loPI   C4A 2362  13.444  18.608   8.330  0.1884  0.3117  0.0313
  148loPI   C5A 2363  13.780  18.558   7.954  0.0672 -0.0043  0.1368
  148loPI   C6A 2364  14.080  18.745   7.684  0.0313  0.0169  0.2521
  148loPI   C1B 2365  14.651  17.820   9.183 -0.0842  0.1490 -0.2075
  148loPI   C2B 2366  14.769  17.717   8.786  0.1649 -0.4855  0.1656
  148loPI   C3B 2367  14.912  17.599   8.324  0.1983 -0.0856 -0.0663
  148loPI   C4B 2368  14.970  17.616   7.906  0.0975  0.1999  0.2170
  149loPI    C1 2369  14.895   4.409  10.370 -0.0844  0.0133 -0.1881
  149loPI    C2 2370  14.500   4.362  10.327 -0.1231  0.1580 -0.0033
  149loPI    C3 2371  14.695   4.161  10.613 -0.1083  0.2883  0.0792
  149loPI   PO4 2372  15.001   4.393  10.125  0.2172  0.1292 -0.1743
  149loPI   GL1 2373  15.162   4.562   9.848  0.2687  0.1007  0.1534
  149loPI   GL2 2374  14.949   4.628   9.604 -0.1680  0.0674 -0.0612
  149loPI   C1A 2375  15.360   4.450   9.436  0.0323  0.2701  0.3026
  149loPI   C2A 2376  15.340   4.343   8.979  0.0443 -0.0279 -0.1161
  149loPI   C3A 2377  15.452   4.513   8.541  0.2643  0.0387 -0.1088
  149loPI   C4A 2378  15.310   4.853   8.367 -0.1940 -0.0028  0.1466
  149loPI   C5A 2379  15.111   4.904   8.006  0.3169  0.0321  0.0237
  149loPI   C6A 2380  14.908   4.918   7.644  0.2326  0.2875 -0.1520
  149loPI   C1B 2381  14.772   4.787   9.149 -0.4159  0.0580  0.1103
  149loPI   C2B 2382  14.804   4.826   8.658  0.1289  0.0206 -0.1006
  149loPI   C3B 2383  14.714   4.835   8.292 -0.0472 -0.1908 -0.0219
  149loPI   C4B 2384  14.544   5.041   8.007  0.1224  0.2187  0.0590
  150loPI    C1 2385  14.249   3.996  10.077 -0.1576 -0.0386  0.1621
  150loPI    C2 2386  14.629   3.883  10.129 -0.1738 -0.2784 -0.2066
  150loPI    C3 2387  14.337   3.703  10.335 -0.1083 -0.2380 -0.0777
  150loPI   PO4 2388  14.218   4.021   9.736 -0.2732 -0.0169  0.1278
  150loPI   GL1 2389  14.175   3.973   9.339 -0.1992 -0.2577  0.1286
  150loPI   GL2 2390  13.883   3.787   9.382 -0.0480  0.0748 -0.4585
  150loPI   C1A 2391  14.212   4.349   9.011  0.0795  0.1008 -0.2374
  150loPI   C2A 2392  14.339   4.386   8.648 -0.3621 -0.0729  0.0105
  150loPI   C3A 2393  14.495   4.438   8.202 -0.0121 -0.0678  0.0836
  150loPI   C4A 2394  14.521   4.350   7.840 -0.3316  0.2832 -0.0279
  150loPI   C5A 2395  14.464   4.125   7.587  0.1777 -0.2594 -0.1453
  150loPI   C6A 2396  14.456   3.963   7.230 -0.4284  0.2302  0.1396
  150loPI   C1B 2397  13.829   4.011   8.965 -0.0774  0.1074 -0.2159
  150loPI   C2B 2398  13.822   4.302   8.645 -0.0291  0.2874  0.1405
  150loPI   C3B 2399  13.728   4.449   8.270  0.1983 -0.1730  0.0119
  150loPI   C4B 2400  13.740   4.828   8.102 -0.0468 -0.0614 -0.0455
  151loPI    C1 2401  15.439  12.963   9.943  0.0003 -0.0282  0.2166
  151loPI    C2 2402  15.341  13.324  10.085 -0.1241  0.0776 -0.1285
  151loPI    C3 2403  15.129  13.002  10.193 -0.1077  0.1289  0.0601
  151loPI   PO4 2404  15.492  12.984   9.742  0.0988  0.4077  0.4446
  151loPI   GL1 2405  15.390  13.124   9.347 -0.0401 -0.1817 -0.0750
  151loPI   GL2 2406  15.285  12.784   9.242 -0.0874  0.0823  0.1784
  151loPI   C1A 2407  15.520  13.086   8.990 -0.0357 -0.1040  0.0713
  151loPI   C2A 2408  15.671  13.264   8.618  0.0489 -0.0330 -0.2129
  151loPI   C3A 2409  15.478  13.412   8.274 -0.1536  0.0763  0.0392
  151loPI   C4A 2410  15.270  13.294   7.882 -0.2332  0.1006 -0.1822
  151loPI   C5A 2411  15.155  13.565   7.521  0.1882 -0.1045  0.2144
  151loPI   C6A 2412  14.900  13.836   7.344 -0.3170 -0.1747 -0.2001
  151loPI   C1B 2413  15.158  12.719   8.916 -0.1839  0.1839  0.1985
  151loPI   C2B 2414  14.720  12.758   8.783 -0.1217 -0.1299  0.1101
  151loPI   C3B 2415  14.558  13.084   8.558  0.0323 -0.2972 -0.0548
  151loPI   C4B 2416  14.647  13.256   8.106  0.1274  0.0017  0.2790
  152loPI    C1 2417   7.618  13.082  10.051  0.0297 -0.2844 -0.0715
  152loPI    C2 2418   7.958  12.942  10.206  0.1158  0.2450  0.2432
  152loPI    C3 2419   7.654  13.039  10.447 -0.0943  0.2018 -0.0007
  152loPI   PO4 2420   7.524  12.954   9.867 -0.3745 -0.0105  0.3250
  152loPI   GL1 2421   7.642  13.003   9.431  0.0682 -0.1464 -0.2083
  152loPI   GL2 2422   7.559  13.336   9.475  0.1560  0.1776 -0.1081
  152loPI   C1A 2423   7.481  13.043   9.018 -0.0548  0.0952  0.0076
  152loPI   C2A 2424   7.425  13.042   8.657 -0.1994  0.1644 -0.4374
  152loPI   C3A 2425   7.436  12.780   8.316  0.4194  0.0427  0.4315
  152loPI   C4A 2426   7.387  12.634   7.961 -0.3553  0.1891 -0.3472
  152loPI   C5A 2427   7.163  12.515   7.615  0.0902 -0.0820 -0.1668
  152loPI   C6A 2428   7.150  12.794   7.178 -0.2425  0.1647 -0.1589
  152loPI   C1B 2429   7.924  13.494   9.248  0.0046 -0.2347  0.0916
  152loPI   C2B 2430   7.818  13.545   8.816 -0.0768  0.1441 -0.0575
  152loPI   C3B 2431   7.807  13.279   8.506 -0.4061 -0.0928 -0.2516
  152loPI   C4B 2432   7.601  13.341   8.065  0.3763  0.0467 -0.1765
  153loPI    C1 2433  11.558  17.231  10.280  0.0596  0.0824  0.0855
  153loPI    C2 2434  11.837  17.040  10.494 -0.0237 -0.4089 -0.2279
  153loPI    C3 2435  11.477  17.112  10.653  0.1309 -0.1688  0.0228
  153loPI   PO4 2436  11.687  17.293  10.076  0.1939  0.3157  0.0449
  153loPI   GL1 2437  11.598  17.206   9.580  0.1902 -0.0917  0.1529
  153loPI   GL2 2438  11.881  17.218   9.310 -0.0471  0.0472 -0.1737
  153loPI   C1A 2439  11.465  17.363   9.199 -0.0173 -0.0273  0.0817
  153loPI   C2A 2440  11.428  17.437   8.656 -0.1872  0.4451 -0.1821
  153loPI   C3A 2441  11.538  17.567   8.175 -0.1104  0.1423 -0.3586
  153loPI   C4A 2442  11.801  17.635   7.822  0.4172  0.1482  0.1215
  153loPI   C5A 2443  11.951  17.474   7.430  0.1401 -0.0561  0.0667
  153loPI   C6A 2444  11.935  17.735   7.072  0.0625 -0.1709 -0.0148
  153loPI   C1B 2445  11.930  16.889   8.963 -0.0202  0.1112  0.0157
  153loPI   C2B 2446  11.788  16.819   8.466 -0.3173 -0.0389 -0.3025
  153loPI   C3B 2447  11.633  16.775   8.036 -0.1235 -0.2511 -0.0303
  153loPI   C4B 2448  11.334  16.663   7.650 -0.0401 -0.3117 -0.1628
  154loPI    C1 2449  16.156  12.994   9.855  0.0687  0.0928  0.0926
  154loPI    C2 2450  15.865  13.167  10.069  0.0516 -0.1463  0.2670
  154loPI    C3 2451  16.181  13.381   9.950 -0.0573  0.0466  0.3216
  154loPI   PO4 2452  16.039  12.918   9.683  0.2238  0.2516 -0.0511
  154loPI   GL1 2453  15.918  12.971   9.314  0.0643  0.1912  0.0371
  154loPI   GL2 2454  15.812  12.622   9.265  0.1225 -0.1073 -0.1291
  154loPI   C1A 2455  16.103  13.379   8.992  0.1163 -0.1091  0.0896
  154loPI   C2A 2456  16.111  13.484   8.557  0.4741 -0.1148 -0.0074
  154loPI   C3A 2457  16.291  13.586   8.151  0.5123 -0.0382 -0.3086
  154loPI   C4A 2458  16.248  13.416   7.604  0.2076 -0.1357  0.0827
  154loPI   C5A 2459  16.012  13.157   7.338  0.2483 -0.0618 -0.1516
  154loPI   C6A 2460  15.767  12.881   7.361  0.3738  0.3511 -0.1980
  154loPI   C1B 2461  15.820  12.740   8.855  0.1409 -0.0256  0.3983
  154loPI   C2B 2462  15.539  12.787   8.492  0.1818 -0.1729  0.0954
  154loPI   C3B 2463  15.496  12.889   8.054 -0.1133  0.1254 -0.1333
  154loPI   C4B 2464  15.366  12.577   7.893  0.1656 -0.0812 -0.2300
  155loPI    C1 2465   3.143   6.914   9.589 -0.4504 -0.3023 -0.0360
  155loPI    C2 2466   3.002   6.957   9.961  0.1067 -0.0436  0.1572
  155loPI    C3 2467   3.289   6.690   9.887  0.1020  0.0096 -0.0585
  155loPI   PO4 2468   3.222   7.143   9.515 -0.0163 -0.0065  0.0978
  155loPI   GL1 2469   3.320   7.448   9.195  0.1717  0.1121 -0.1645
  155loPI   GL2 2470   3.577   7.348   9.162  0.1469 -0.0009  0.3891
  155loPI   C1A 2471   3.289   7.615   8.777 -0.0504  0.0930 -0.2948
  155loPI   C2A 2472   3.455   7.623   8.417  0.3035 -0.2337  0.0602
  155loPI   C3A 2473   3.566   7.549   8.104  0.0026 -0.0853 -0.0321
  155loPI   C4A 2474   3.612   7.321   7.770 -0.2440 -0.4541 -0.0867
  155loPI   C5A 2475   3.685   7.115   7.407  0.3584 -0.3177 -0.0571
  155loPI   C6A 2476   3.978   7.216   6.978  0.1384 -0.5444  0.3831
  155loPI   C1B 2477   3.702   7.325   8.753  0.1465 -0.1739  0.0633
  155loPI   C2B 2478   3.726   7.079   8.296 -0.0893 -0.1870  0.5672
  155loPI   C3B 2479   3.604   6.806   7.953 -0.0717 -0.0917  0.0933
  155loPI   C4B 2480   3.321   6.883   7.667 -0.1355  0.1081 -0.0766
  156loPI    C1 2481  14.604   2.533   9.992 -0.0890 -0.0590 -0.0236
  156loPI    C2 2482  14.582   2.215  10.234  0.2535 -0.1146 -0.0600
  156loPI    C3 2483  14.807   2.529  10.337  0.0425  0.0520 -0.0988
  156loPI   PO4 2484  14.627   2.345   9.762  0.1248 -0.0407 -0.0246
  156loPI   GL1 2485  14.760   2.288   9.399 -0.1456 -0.0957  0.1467
  156loPI   GL2 2486  14.776   2.586   9.280  0.3551 -0.0236 -0.4052
  156loPI   C1A 2487  14.805   2.152   8.918 -0.0930  0.1454  0.0060
  156loPI   C2A 2488  14.811   2.092   8.474  0.1577 -0.3530  0.1251
  156loPI   C3A 2489  14.878   1.809   8.191  0.0355  0.1950 -0.1638
  156loPI   C4A 2490  14.993   1.425   8.078  0.3215  0.0888 -0.0913
  156loPI   C5A 2491  15.278   1.191   7.881  0.0881 -0.0795 -0.1832
  156loPI   C6A 2492  15.315   0.789   7.801 -0.2101  0.1086 -0.1920
  156loPI   C1B 2493  14.775   2.588   8.734  0.0099 -0.2267 -0.0079
  156loPI   C2B 2494  14.909   2.529   8.348 -0.0123  0.0637 -0.0910
  156loPI   C3B 2495  14.847   2.380   8.009  0.1253  0.5273  0.4979
  156loPI   C4B 2496  14.846   1.985   7.738  0.1924  0.0761  0.3850
  157loPI    C1 2497  12.232   6.014   9.260  0.1196 -0.2730  0.0260
  157loPI    C2 2498  12.400   6.263   9.524 -0.0620  0.0093 -0.1184
  157loPI    C3 2499  12.003   6.260   9.478 -0.0288 -0.0008 -0.4224
  157loPI   PO4 2500  12.297   5.831   9.312  0.0720 -0.1447  0.2069
  157loPI   GL1 2501  12.403   5.512   8.984 -0.0955  0.0530  0.0177
  157loPI   GL2 2502  12.699   5.535   9.036  0.2678 -0.1920 -0.1705
  157loPI   C1A 2503  12.125   5.596   8.699  0.1209 -0.2197 -0.0436
  157loPI   C2A 2504  12.135   5.640   8.184  0.0150 -0.1713 -0.3650
  157loPI   C3A 2505  12.339   5.849   7.833  0.0072  0.1601  0.1281
  157loPI   C4A 2506  12.466   5.879   7.430 -0.0795 -0.1376  0.2468
  157loPI   C5A 2507  12.664   6.253   7.344  0.1437  0.2634 -0.0327
  157loPI   C6A 2508  12.763   6.611   6.984  0.0410 -0.3363 -0.0349
  157loPI   C1B 2509  12.566   5.428   8.520 -0.0250 -0.0369 -0.1545
  157loPI   C2B 2510  12.602   5.470   8.064  0.2202 -0.0248 -0.0504
  157loPI   C3B 2511  12.565   5.385   7.644  0.2952 -0.1049 -0.3208
  157loPI   C4B 2512  12.308   5.395   7.213  0.0498  0.0475 -0.0827
  158loPI    C1 2513  10.133  14.182  10.024 -0.1531 -0.2317  0.1679
  158loPI    C2 2514  10.451  14.065  10.237 -0.0312 -0.1495  0.0333
  158loPI    C3 2515  10.321  14.443  10.261 -0.0689 -0.1620  0.0261
  158loPI   PO4 2516  10.168  14.186   9.818  0.2459 -0.0091 -0.1718
  158loPI   GL1 2517  10.139  14.557   9.564 -0.1386  0.1537 -0.1814
  158loPI   GL2 2518  10.181  14.906   9.433  0.0814  0.1131 -0.1227
  158loPI   C1A 2519  10.042  14.469   9.118 -0.0854 -0.0376  0.0884
  158loPI   C2A 2520   9.990  14.325   8.691 -0.0035  0.2616  0.0931
  158loPI   C3A 2521  10.043  14.173   8.203 -0.1934  0.2547  0.1239
  158loPI   C4A 2522   9.971  13.940   7.869 -0.2232 -0.0974  0.2434
  158loPI   C5A 2523   9.864  13.798   7.419  0.0477  0.3963 -0.2890
  158loPI   C6A 2524   9.980  13.820   7.009  0.0263  0.0107  0.0007
  158loPI   C1B 2525  10.109  15.024   9.038 -0.0708 -0.0877 -0.2796
  158loPI   C2B 2526  10.130  15.167   8.584  0.1113 -0.0531 -0.1183
  158loPI   C3B 2527  10.002  15.117   8.165 -0.4019  0.0305  0.1795
  158loPI   C4B 2528   9.714  14.907   7.725 -0.0224 -0.0279 -0.1209
  159loPI    C1 2529  18.977  11.032  10.280 -0.0703  0.0937 -0.0892
  159loPI    C2 2530  18.673  11.202  10.083 -0.0794  0.2379  0.0466
  159loPI    C3 2531  18.608  11.018  10.432 -0.0412  0.1018 -0.0171
  159loPI   PO4 2532  19.127  10.932  10.043 -0.1455  0.1771  0.2953
  159loPI   GL1 2533  19.266  11.180   9.704  0.0215 -0.1686  0.1621
  159loPI   GL2 2534  19.312  11.467   9.512  0.0794  0.1542 -0.1621
  159loPI   C1A 2535  19.043  10.975   9.338  0.0196  0.2164 -0.1568
  159loPI   C2A 2536  19.006  11.082   8.984  0.3394  0.1590 -0.0283
  159loPI   C3A 2537  19.019  10.905   8.541 -0.4330  0.1315 -0.0051
  159loPI   C4A 2538  19.152  10.770   8.105 -0.2525  0.1581 -0.2497
  159loPI   C5A 2539  19.124  10.691   7.712 -0.1426  0.2363  0.4784
  159loPI   C6A 2540  19.011  10.331   7.541  0.0505  0.0535  0.1798
  159loPI   C1B 2541  19.093  11.512   9.097  0.0709  0.0456 -0.0407
  159loPI   C2B 2542  19.107  11.790   8.864  0.2034  0.0433 -0.1892
  159loPI   C3B 2543  19.272  11.901   8.531  0.1912  0.0641  0.2645
  159loPI   C4B 2544  19.565  12.256   8.426  0.1400 -0.1079  0.0619
  160loPI    C1 2545  10.820   2.434   9.636 -0.0326 -0.0396 -0.2356
  160loPI    C2 2546  10.999   2.199   9.906 -0.2834  0.2127  0.1611
  160loPI    C3 2547  11.203   2.495   9.732 -0.1100  0.0255  0.0413
  160loPI   PO4 2548  10.681   2.242   9.431  0.2550  0.3441 -0.0824
  160loPI   GL1 2549  10.699   2.002   9.104  0.1036  0.0756 -0.1644
  160loPI   GL2 2550  10.413   1.944   9.014 -0.2025  0.1319  0.2763
  160loPI   C1A 2551  10.948   2.120   8.774  0.0296 -0.4398  0.0222
  160loPI   C2A 2552  11.101   1.918   8.367 -0.2006  0.1340  0.1575
  160loPI   C3A 2553  11.139   1.832   7.950  0.5130  0.0217 -0.0726
  160loPI   C4A 2554  11.360   1.790   7.589 -0.2373 -0.3352  0.1547
  160loPI   C5A 2555  11.608   1.366   7.419 -0.1398  0.0898 -0.2289
  160loPI   C6A 2556  11.992   1.329   7.444 -0.3521  0.0350  0.0736
  160loPI   C1B 2557  10.557   2.013   8.533  0.3114 -0.0316 -0.0275
  160loPI   C2B 2558  10.472   1.882   8.151  0.2664  0.3005  0.0908
  160loPI   C3B 2559  10.076   1.904   7.809 -0.0502  0.1581  0.1079
  160loPI   C4B 2560   9.836   1.915   7.413 -0.1397  0.0477 -0.1203
  161loPI    C1 2561  16.663  13.438   9.947  0.0690  0.1203  0.0363
  161loPI    C2 2562  16.814  13.652  10.249  0.1850  0.1031 -0.0089
  161loPI    C3 2563  16.520  13.390  10.317  0.1944  0.1165  0.0849
  161loPI   PO4 2564  16.639  13.584   9.707 -0.1407 -0.1260  0.2525
  161loPI   GL1 2565  16.688  13.528   9.246  0.0809  0.0437  0.0564
  161loPI   GL2 2566  16.852  13.776   9.313  0.0673 -0.0192 -0.0713
  161loPI   C1A 2567  16.938  13.731   8.865 -0.4475 -0.0064 -0.4846
  161loPI   C2A 2568  16.932  13.726   8.435  0.1186 -0.0058 -0.1374
  161loPI   C3A 2569  16.970  13.860   8.099  0.0444 -0.0447 -0.2013
  161loPI   C4A 2570  17.172  13.831   7.697 -0.1245 -0.0140  0.1541
  161loPI   C5A 2571  17.244  13.915   7.321 -0.1580  0.0369 -0.2082
  161loPI   C6A 2572  17.252  14.161   6.935  0.0663  0.1472  0.0973
  161loPI   C1B 2573  16.674  14.197   9.185  0.3117  0.0726 -0.2925
  161loPI   C2B 2574  16.614  14.252   8.733  0.0823 -0.4336  0.4383
  161loPI   C3B 2575  16.508  14.068   8.312  0.2331  0.2017  0.0475
  161loPI   C4B 2576  16.505  14.010   7.961 -0.3053 -0.0205 -0.2689
  162loPI    C1 2577   0.966   7.201   9.991 -0.1866  0.1586  0.0351
  162loPI    C2 2578   1.309   7.320   9.823 -0.1811 -0.1345 -0.1687
  162loPI    C3 2579   1.245   7.381  10.213 -0.0002  0.1380 -0.1789
  162loPI   PO4 2580   0.888   7.104   9.834 -0.0267  0.0557 -0.5027
  162loPI   GL1 2581   0.590   7.195   9.485  0.0262 -0.0597  0.2499
  162loPI   GL2 2582   0.468   6.926   9.632  0.1072  0.0040 -0.1073
  162loPI   C1A 2583   0.459   7.305   9.132 -0.3455  0.1425  0.1473
  162loPI   C2A 2584   0.490   7.355   8.715 -0.3869  0.3116  0.0769
  162loPI   C3A 2585   0.603   7.527   8.349 -0.1800  0.2401  0.0982
  162loPI   C4A 2586   0.790   7.629   7.928 -0.1815 -0.1348  0.0625
  162loPI   C5A 2587   1.050   7.601   7.592  0.0142 -0.0593  0.1727
  162loPI   C6A 2588   1.266   7.631   7.279 -0.1223 -0.1422 -0.0713
  162loPI   C1B 2589   0.198   6.940   9.309 -0.1806  0.2239 -0.0728
  162loPI   C2B 2590   0.173   6.915   8.926  0.0182  0.0754  0.0919
  162loPI   C3B 2591   0.258   6.950   8.418 -0.0606  0.2312 -0.1091
  162loPI   C4B 2592   0.065   6.781   8.024 -0.0836  0.0823  0.0466
  163loPI    C1 2593   8.070  10.207   9.591  0.2538  0.0961 -0.0711
  163loPI    C2 2594   8.063   9.897   9.845 -0.0078 -0.0756 -0.2825
  163loPI    C3 2595   7.927  10.255   9.962  0.0481 -0.1061 -0.1215
  163loPI   PO4 2596   7.923  10.055   9.410 -0.2400 -0.0792  0.4233
  163loPI   GL1 2597   8.027   9.891   9.132  0.1912  0.0865 -0.3795
  163loPI   GL2 2598   7.767   9.855   8.840  0.0887  0.1820 -0.1381
  163loPI   C1A 2599   8.269  10.055   8.742  0.2210  0.1499  0.1987
  163loPI   C2A 2600   8.232  10.282   8.375  0.1375  0.1928  0.0707
  163loPI   C3A 2601   8.476  10.487   8.006 -0.0850 -0.1142 -0.0277
  163loPI   C4A 2602   8.478  10.568   7.510  0.2793  0.0102  0.2225
  163loPI   C5A 2603   8.254  10.576   7.163 -0.1054  0.0467 -0.0530
  163loPI   C6A 2604   7.926  10.656   6.821 -0.0578 -0.0291 -0.3406
  163loPI   C1B 2605   7.805  10.096   8.356 -0.2837  0.1405  0.1848
  163loPI   C2B 2606   8.000  10.155   7.933  0.0692  0.0274  0.0248
  163loPI   C3B 2607   8.165  10.140   7.546  0.1711  0.0326 -0.3097
  163loPI   C4B 2608   8.366  10.049   7.217  0.1066  0.2370  0.1643
  164loPI    C1 2609   4.699   5.928   9.427 -0.2357 -0.1095  0.3683
  164loPI    C2 2610   4.429   6.138   9.220  0.0491 -0.0657  0.0321
  164loPI    C3 2611   4.335   5.776   9.362 -0.2062 -0.0236 -0.0253
  164loPI   PO4 2612   4.863   5.907   9.223 -0.4556  0.0397 -0.1400
  164loPI   GL1 2613   4.788   5.814   8.819 -0.2382 -0.2809  0.1227
  164loPI   GL2 2614   4.407   5.830   8.885  0.1360  0.1056 -0.0516
  164loPI   C1A 2615   5.106   6.060   8.608  0.0035 -0.1471 -0.3299
  164loPI   C2A 2616   5.536   6.061   8.505 -0.0184 -0.0257 -0.5244
  164loPI   C3A 2617   5.701   5.908   8.108 -0.0039 -0.3076 -0.1429
  164loPI   C4A 2618   5.739   5.854   7.732  0.0736  0.0453 -0.0185
  164loPI   C5A 2619   5.694   5.930   7.337  0.0265 -0.1422  0.0727
  164loPI   C6A 2620   5.628   6.267   7.013 -0.0581 -0.2079 -0.1022
  164loPI   C1B 2621   4.251   5.810   8.452 -0.2035  0.3658 -0.2648
  164loPI   C2B 2622   4.207   5.658   7.958 -0.0301  0.0113 -0.1800
  164loPI   C3B 2623   4.160   6.041   7.700 -0.0894  0.0404  0.1369
  164loPI   C4B 2624   4.101   6.271   7.447  0.2427 -0.0221 -0.0517
  165loPI    C1 2625  11.263   3.646  10.022  0.0597 -0.0362  0.2413
  165loPI    C2 2626  11.027   3.819  10.294 -0.1129 -0.0744  0.1174
  165loPI    C3 2627  11.389   3.687  10.399 -0.1570 -0.0411  0.3156
  165loPI   PO4 2628  11.230   3.909   9.754  0.3487  0.1428  0.1774
  165loPI   GL1 2629  11.301   3.779   9.326  0.1419 -0.0639 -0.0500
  165loPI   GL2 2630  11.269   4.023   9.090  0.3618  0.1852 -0.0021
  165loPI   C1A 2631  11.176   3.624   8.804  0.3362  0.0162  0.0147
  165loPI   C2A 2632  11.244   3.569   8.385 -0.0178 -0.1355 -0.0714
  165loPI   C3A 2633  11.354   3.893   8.116  0.0422 -0.1913 -0.0000
  165loPI   C4A 2634  11.273   3.959   7.717  0.2061  0.0517 -0.0659
  165loPI   C5A 2635  11.026   3.889   7.442 -0.0681 -0.0397 -0.0203
  165loPI   C6A 2636  10.864   3.742   7.155  0.1573  0.1302  0.3625
  165loPI   C1B 2637  11.232   4.089   8.603  0.0071  0.1800  0.1532
  165loPI   C2B 2638  10.949   4.281   8.176 -0.0140 -0.1916 -0.3143
  165loPI   C3B 2639  10.923   4.321   7.748  0.4221 -0.0415  0.0345
  165loPI   C4B 2640  10.700   4.278   7.313  0.0225 -0.0029  0.0779
  166loPI    C1 2641   5.480   3.108  10.090  0.0022 -0.1389  0.0289
  166loPI    C2 2642   5.162   2.961   9.895  0.0791 -0.3304  0.0458
  166loPI    C3 2643   5.142   3.029  10.289 -0.0630  0.0178 -0.0181
  166loPI   PO4 2644   5.664   3.002   9.899  0.1417 -0.0444  0.1270
  166loPI   GL1 2645   5.851   3.249   9.563 -0.1820  0.0951 -0.1456
  166loPI   GL2 2646   6.106   3.006   9.616 -0.1298 -0.1307  0.1581
  166loPI   C1A 2647   5.769   3.447   9.123 -0.1306  0.0444 -0.3823
  166loPI   C2A 2648   5.582   3.277   8.776 -0.2662 -0.1785  0.0503
  166loPI   C3A 2649   5.468   3.168   8.397 -0.2361  0.0949  0.2911
  166loPI   C4A 2650   5.239   2.968   8.102  0.1614 -0.0996  0.1933
  166loPI   C5A 2651   4.992   2.964   7.716  0.0544 -0.0656  0.0178
  166loPI   C6A 2652   5.179   2.608   7.344 -0.1205  0.1720 -0.3223
  166loPI   C1B 2653   6.294   2.889   9.238  0.1415 -0.0519  0.2455
  166loPI   C2B 2654   6.278   2.800   8.764  0.0852 -0.0701 -0.2423
  166loPI   C3B 2655   6.132   2.713   8.260 -0.0157 -0.1205 -0.0975
  166loPI   C4B 2656   6.010   2.594   7.796  0.1338 -0.1818 -0.1426
  167loPI    C1 2657   9.481   2.873   9.883  0.2160 -0.0950  0.0694
  167loPI    C2 2658   9.391   2.945  10.266  0.0778 -0.1998  0.0576
  167loPI    C3 2659   9.740   2.773  10.172  0.1014 -0.1969  0.1383
  167loPI   PO4 2660   9.253   2.915   9.791  0.2926 -0.2431  0.1069
  167loPI   GL1 2661   9.299   3.353   9.479 -0.0642  0.1503  0.3153
  167loPI   GL2 2662   9.486   3.161   9.454  0.0015  0.2715  0.2112
  167loPI   C1A 2663   9.062   3.258   9.054  0.0925  0.2986 -0.0258
  167loPI   C2A 2664   9.259   3.135   8.623 -0.1328  0.1157 -0.0327
  167loPI   C3A 2665   9.396   2.867   8.243  0.0045  0.0159 -0.4240
  167loPI   C4A 2666   9.584   2.781   7.856 -0.0306 -0.1864 -0.3793
  167loPI   C5A 2667   9.800   2.777   7.463  0.3476  0.0380 -0.1038
  167loPI   C6A 2668  10.252   2.828   7.404 -0.5039  0.0704  0.0185
  167loPI   C1B 2669   9.570   3.221   8.992 -0.1924 -0.1801 -0.3227
  167loPI   C2B 2670   9.741   3.328   8.508 -0.0154  0.1427 -0.2524
  167loPI   C3B 2671   9.826   3.267   8.106 -0.0846  0.2802  0.0593
  167loPI   C4B 2672   9.889   3.215   7.682 -0.0134 -0.0111 -0.0981
  168loPI    C1 2673  14.392  11.028   9.883  0.0304 -0.1101  0.0454
  168loPI    C2 2674  14.079  11.243   9.756  0.0135 -0.0988  0.1065
  168loPI    C3 2675  14.257  11.332  10.104  0.0232 -0.1665  0.1192
  168loPI   PO4 2676  14.534  11.028   9.715 -0.0957 -0.1238 -0.1587
  168loPI   GL1 2677  14.711  11.162   9.271  0.0100  0.0323 -0.2228
  168loPI   GL2 2678  14.932  11.000   9.447 -0.0388 -0.2221  0.1599
  168loPI   C1A 2679  14.742  11.168   8.768 -0.0837 -0.0623  0.1693
  168loPI   C2A 2680  14.870  11.144   8.437 -0.1007 -0.0044 -0.0008
  168loPI   C3A 2681  15.225  11.039   8.209 -0.0484  0.3680  0.0224
  168loPI   C4A 2682  15.459  11.136   7.835 -0.1385 -0.1226  0.1485
  168loPI   C5A 2683  15.839  11.227   7.564  0.0283  0.1499 -0.1265
  168loPI   C6A 2684  16.206  11.124   7.327  0.0151  0.0303 -0.4075
  168loPI   C1B 2685  15.165  11.300   9.151 -0.1264 -0.1173  0.1272
  168loPI   C2B 2686  15.232  11.318   8.684 -0.0009  0.0264  0.0451
  168loPI   C3B 2687  15.175  11.565   8.296  0.1768  0.2286 -0.0501
  168loPI   C4B 2688  15.179  11.538   7.861  0.0362  0.0082 -0.0804
  169loPI    C1 2689  10.715  12.816  10.244  0.1098 -0.0058 -0.0827
  169loPI    C2 2690  10.611  12.460  10.393  0.1798 -0.0457 -0.1286
  169loPI    C3 2691  10.559  12.791  10.611 -0.2205 -0.0421 -0.2219
  169loPI   PO4 2692  10.670  12.888   9.988  0.0035  0.0201 -0.0604
  169loPI   GL1 2693  11.036  12.813   9.636  0.0179 -0.2387 -0.1459
  169loPI   GL2 2694  10.969  13.185   9.533  0.2702  0.0765 -0.2381
  169loPI   C1A 2695  11.020  12.877   9.155  0.2119 -0.1560  0.1030
  169loPI   C2A 2696  11.042  12.840   8.745  0.2501 -0.1687  0.1026
  169loPI   C3A 2697  11.029  12.688   8.310  0.1325  0.0421  0.1221
  169loPI   C4A 2698  10.788  12.721   7.884  0.0314  0.0809 -0.1652
  169loPI   C5A 2699  10.336  12.654   7.601 -0.1047 -0.2061  0.0527
  169loPI   C6A 2700  10.176  12.414   7.447  0.0035 -0.1044  0.0068
  169loPI   C1B 2701  10.719  13.518   9.304 -0.1423 -0.2474 -0.0432
  169loPI   C2B 2702  10.850  13.837   8.997 -0.0775  0.0956  0.1178
  169loPI   C3B 2703  10.907  13.894   8.644 -0.1044 -0.1839 -0.2603
  169loPI   C4B 2704  11.068  14.136   8.346  0.2423 -0.4731  0.1394
  170loPI    C1 2705   5.740   8.643  10.048 -0.1588  0.4890  0.1421
  170loPI    C2 2706   5.435   8.417  10.175 -0.1467  0.3879 -0.0068
  170loPI    C3 2707   5.694   8.568  10.439 -0.2010  0.2945  0.1008
  170loPI   PO4 2708   5.785   8.530   9.747 -0.1663 -0.0849  0.0151
  170loPI   GL1 2709   5.810   8.861   9.493  0.0341 -0.0541 -0.0006
  170loPI   GL2 2710   6.072   8.825   9.474  0.3272  0.2274 -0.0963
  170loPI   C1A 2711   5.610   8.871   9.150  0.2077 -0.1186 -0.0530
  170loPI   C2A 2712   5.548   8.878   8.709  0.1379  0.1513  0.0832
  170loPI   C3A 2713   5.540   8.853   8.199  0.5611  0.2147  0.0260
  170loPI   C4A 2714   5.263   8.839   7.895  0.4832  0.0786 -0.1248
  170loPI   C5A 2715   5.034   8.632   7.544  0.0424  0.0527  0.0045
  170loPI   C6A 2716   4.906   8.470   7.130  0.0028  0.3379 -0.0126
  170loPI   C1B 2717   6.311   8.739   9.058  0.1715 -0.3758 -0.1550
  170loPI   C2B 2718   6.190   8.929   8.622  0.1648 -0.2170  0.0294
  170loPI   C3B 2719   6.032   8.947   8.270  0.0256  0.0314 -0.1519
  170loPI   C4B 2720   5.986   8.918   7.783 -0.0364  0.0525 -0.0527
  171loPI    C1 2721   0.262   9.098  10.397  0.0354  0.0750 -0.0210
  171loPI    C2 2722   0.099   9.357  10.654 -0.0315  0.0214 -0.0092
  171loPI    C3 2723   0.387   9.107  10.777 -0.1677 -0.1070  0.0519
  171loPI   PO4 2724   0.086   9.049  10.217 -0.2535 -0.3632  0.1454
  171loPI   GL1 2725  -0.184   9.053   9.847 -0.1265 -0.2186 -0.1021
  171loPI   GL2 2726   0.067   8.962   9.664 -0.1381 -0.3401  0.0704
  171loPI   C1A 2727  -0.406   8.989   9.434  0.2270  0.2085 -0.1947
  171loPI   C2A 2728  -0.499   8.918   9.048  0.0126  0.2894  0.2586
  171loPI   C3A 2729  -0.670   8.817   8.599  0.3722  0.0268 -0.0060
  171loPI   C4A 2730  -0.871   8.813   8.177 -0.1410  0.1344  0.0423
  171loPI   C5A 2731  -0.873   8.591   7.870  0.1689 -0.1056  0.2472
  171loPI   C6A 2732  -0.901   8.643   7.395  0.0514 -0.1687  0.1498
  171loPI   C1B 2733   0.242   8.740   9.304  0.1402  0.3736  0.2633
  171loPI   C2B 2734   0.349   8.626   8.866  0.0171 -0.0760 -0.2217
  171loPI   C3B 2735   0.198   8.449   8.397  0.1764 -0.3250  0.1034
  171loPI   C4B 2736   0.282   8.459   8.052 -0.2162 -0.0451 -0.1852
  172loPI    C1 2737  14.879  12.102   9.737 -0.1568  0.1207  0.1911
  172loPI    C2 2738  14.509  12.113   9.891 -0.1315  0.1330  0.2513
  172loPI    C3 2739  14.826  12.081  10.133 -0.1100 -0.2144  0.1820
  172loPI   PO4 2740  14.898  11.961   9.582  0.0215 -0.3215 -0.0285
  172loPI   GL1 2741  14.892  11.702   9.167  0.0718 -0.2188  0.2929
  172loPI   GL2 2742  15.098  11.837   9.184 -0.2125  0.0427 -0.1755
  172loPI   C1A 2743  14.795  11.674   8.746  0.0557  0.1942 -0.0710
  172loPI   C2A 2744  14.760  11.835   8.314  0.0995 -0.0050  0.2715
  172loPI   C3A 2745  14.951  12.069   8.106  0.1097 -0.0554  0.1378
  172loPI   C4A 2746  14.880  12.406   7.854 -0.1049  0.0573 -0.1607
  172loPI   C5A 2747  14.836  12.638   7.483 -0.1279 -0.2150 -0.2609
  172loPI   C6A 2748  14.641  12.740   7.173  0.0741 -0.0729  0.0999
  172loPI   C1B 2749  15.467  11.763   9.033 -0.0948  0.2588  0.2783
  172loPI   C2B 2750  15.668  11.410   8.953 -0.1103 -0.0577  0.1888
  172loPI   C3B 2751  15.657  11.495   8.553 -0.1234  0.3448 -0.2308
  172loPI   C4B 2752  15.667  11.511   8.168  0.0414  0.0697  0.1285
  173loPI    C1 2753  14.524  13.652   9.610  0.1947  0.0061 -0.2860
  173loPI    C2 2754  14.600  14.037   9.684 -0.1632  0.0988 -0.3812
  173loPI    C3 2755  14.539  13.784   9.987  0.2239  0.0805 -0.3130
  173loPI   PO4 2756  14.345  13.665   9.442  0.0193 -0.2040 -0.0461
  173loPI   GL1 2757  14.124  13.583   9.044  0.4133  0.2345 -0.2002
  173loPI   GL2 2758  13.902  13.765   8.860 -0.0803 -0.0336  0.0428
  173loPI   C1A 2759  14.124  13.354   8.763  0.0362  0.2503 -0.0157
  173loPI   C2A 2760  14.033  13.293   8.265  0.0063 -0.0854 -0.0615
  173loPI   C3A 2761  14.170  13.180   7.845 -0.2566  0.0062 -0.0201
  173loPI   C4A 2762  13.936  12.983   7.449  0.2424 -0.0475 -0.1575
  173loPI   C5A 2763  13.796  12.535   7.495  0.0821 -0.1818 -0.2659
  173loPI   C6A 2764  13.711  12.036   7.464 -0.2775 -0.1455 -0.0379
  173loPI   C1B 2765  13.905  13.704   8.486 -0.2607  0.2114  0.0853
  173loPI   C2B 2766  13.879  13.881   8.123  0.0418  0.0360  0.4979
  173loPI   C3B 2767  13.585  14.009   7.802  0.2026  0.0289  0.3272
  173loPI   C4B 2768  13.396  14.247   7.470 -0.1657 -0.1385  0.0090
  174loPI    C1 2769  16.348   9.323  10.100  0.0417 -0.3550 -0.0308
  174loPI    C2 2770  16.100   9.017  10.029  0.0123 -0.3091 -0.1275
  174loPI    C3 2771  16.312   9.028  10.368 -0.2751 -0.2432  0.0537
  174loPI   PO4 2772  16.307   9.465   9.800  0.0497  0.0136  0.0801
  174loPI   GL1 2773  16.057   9.184   9.537 -0.1552 -0.0513 -0.3219
  174loPI   GL2 2774  16.236   9.268   9.296  0.2045  0.0953 -0.3493
  174loPI   C1A 2775  15.695   9.111   9.247  0.3627 -0.0574 -0.2683
  174loPI   C2A 2776  15.557   8.929   8.908  0.1173  0.3347  0.0447
  174loPI   C3A 2777  15.445   8.708   8.560 -0.2090  0.3465  0.1273
  174loPI   C4A 2778  15.416   8.608   8.110  0.0533 -0.0915 -0.3918
  174loPI   C5A 2779  15.203   8.621   7.749 -0.1183 -0.1762 -0.0774
  174loPI   C6A 2780  15.239   8.874   7.311  0.3063 -0.1413 -0.2233
  174loPI   C1B 2781  16.214   9.682   8.948 -0.1407 -0.0615 -0.0482
  174loPI   C2B 2782  16.055   9.928   8.620  0.0287  0.0619 -0.0017
  174loPI   C3B 2783  16.086  10.068   8.226 -0.0155  0.0242  0.3551
  174loPI   C4B 2784  16.088  10.345   8.009  0.2115 -0.3704 -0.4915
  175loPI    C1 2785  15.913  12.093   9.984 -0.0684 -0.0782 -0.0125
  175loPI    C2 2786  15.896  11.800  10.257 -0.0632  0.0083  0.0813
  175loPI    C3 2787  15.735  12.158  10.337 -0.1876 -0.0093 -0.0849
  175loPI   PO4 2788  15.758  11.997   9.781 -0.3387  0.1976  0.0617
  175loPI   GL1 2789  15.842  12.035   9.351 -0.0745  0.4255 -0.0400
  175loPI   GL2 2790  16.029  11.733   9.213  0.0410 -0.0271 -0.0402
  175loPI   C1A 2791  16.035  12.267   9.028  0.0064  0.1144 -0.2105
  175loPI   C2A 2792  16.051  12.265   8.635 -0.0226 -0.1585  0.1133
  175loPI   C3A 2793  15.774  12.394   8.222  0.1713 -0.1001 -0.2254
  175loPI   C4A 2794  15.852  12.227   7.808 -0.1584 -0.2318  0.0565
  175loPI   C5A 2795  15.632  12.406   7.435 -0.2377  0.1176 -0.0220
  175loPI   C6A 2796  15.296  12.220   7.206  0.2048  0.1602 -0.1584
  175loPI   C1B 2797  15.868  11.832   8.813  0.2332  0.1482 -0.0413
  175loPI   C2B 2798  16.033  11.862   8.333  0.1143 -0.2703  0.4441
  175loPI   C3B 2799  16.289  11.986   8.015  0.1019  0.1162 -0.2596
  175loPI   C4B 2800  16.767  12.048   7.970  0.3509 -0.1777 -0.1425
  176loPI    C1 2801   2.332  15.709  10.056 -0.1207  0.1272  0.3209
  176loPI    C2 2802   2.148  15.396  10.224  0.1336 -0.1429  0.1074
  176loPI    C3 2803   2.519  15.494  10.336  0.0751  0.0513  0.1348
  176loPI   PO4 2804   2.356  15.641   9.779  0.1319  0.1116  0.0409
  176loPI   GL1 2805   2.283  15.865   9.468  0.2609  0.0800 -0.1031
  176loPI   GL2 2806   2.318  16.096   9.448 -0.1144 -0.1056  0.1533
  176loPI   C1A 2807   2.334  15.594   9.120 -0.0748  0.3092 -0.2627
  176loPI   C2A 2808   2.150  15.464   8.739  0.0543 -0.0074  0.1706
  176loPI   C3A 2809   1.961  15.333   8.300  0.0028  0.1876 -0.3410
  176loPI   C4A 2810   1.742  15.121   8.027 -0.1569 -0.0918 -0.1191
  176loPI   C5A 2811   1.856  14.943   7.609 -0.2499  0.3769 -0.3747
  176loPI   C6A 2812   1.917  14.646   7.278 -0.4325  0.1783  0.1465
  176loPI   C1B 2813   2.234  16.110   9.035  0.0677  0.2732  0.1591
  176loPI   C2B 2814   2.322  15.939   8.592 -0.0877 -0.1633  0.2216
  176loPI   C3B 2815   2.289  15.906   8.241 -0.1372 -0.0159  0.0379
  176loPI   C4B 2816   2.372  15.872   7.746 -0.0003  0.2561 -0.2020
  177loPI    C1 2817   3.181   7.894   9.809  0.3320 -0.1334  0.2097
  177loPI    C2 2818   2.930   7.670  10.025 -0.0267  0.0640  0.0076
  177loPI    C3 2819   3.265   7.811  10.191 -0.0921 -0.1273  0.3100
  177loPI   PO4 2820   3.133   7.820   9.548 -0.1638  0.0052  0.1529
  177loPI   GL1 2821   2.944   7.811   9.114  0.0763  0.0921  0.1334
  177loPI   GL2 2822   2.986   8.193   9.206 -0.3843 -0.1713  0.0227
  177loPI   C1A 2823   2.802   7.481   8.819 -0.0809 -0.1278  0.0241
  177loPI   C2A 2824   2.877   7.291   8.462 -0.2315 -0.1423  0.0767
  177loPI   C3A 2825   3.194   7.217   8.131 -0.0887 -0.3431 -0.1857
  177loPI   C4A 2826   3.109   7.546   7.812  0.2042  0.0091 -0.0527
  177loPI   C5A 2827   3.221   7.921   8.051 -0.2859  0.2943  0.1945
  177loPI   C6A 2828   3.055   7.917   8.334  0.3914  0.0483 -0.0820
  177loPI   C1B 2829   2.993   8.415   8.780  0.1822  0.0415  0.4397
  177loPI   C2B 2830   2.779   8.345   8.309  0.0131 -0.0263  0.0096
  177loPI   C3B 2831   2.795   8.189   7.925 -0.0342  0.1512 -0.0581
  177loPI   C4B 2832   2.612   8.332   7.517 -0.2345 -0.0883 -0.0645
  178loPI    C1 2833  12.100   3.384   9.815  0.0452  0.3044 -0.2861
  178loPI    C2 2834  12.475   3.432   9.947  0.0211  0.0661 -0.1246
  178loPI    C3 2835  12.172   3.413  10.208 -0.0422 -0.2769 -0.2181
  178loPI   PO4 2836  12.017   3.593   9.669 -0.2781  0.1582  0.2030
  178loPI   GL1 2837  11.973   3.694   9.281  0.0523  0.3973  0.1267
  178loPI   GL2 2838  12.085   3.346   9.228  0.2322  0.0250  0.1173
  178loPI   C1A 2839  11.630   3.633   8.973  0.3572 -0.2050 -0.3001
  178loPI   C2A 2840  11.638   3.830   8.581  0.0117 -0.0372  0.1426
  178loPI   C3A 2841  11.787   3.731   8.211 -0.1454 -0.1535 -0.0664
  178loPI   C4A 2842  11.714   3.618   7.723  0.0898 -0.0831 -0.2230
  178loPI   C5A 2843  11.386   3.510   7.444 -0.0493  0.2386 -0.0746
  178loPI   C6A 2844  11.099   3.280   7.349  0.0932  0.0442 -0.3071
  178loPI   C1B 2845  12.013   3.337   8.834 -0.0414  0.0932 -0.0283
  178loPI   C2B 2846  11.653   3.318   8.477 -0.1308  0.1375  0.0117
  178loPI   C3B 2847  11.545   3.263   8.082  0.0077  0.4285 -0.2478
  178loPI   C4B 2848  11.484   3.118   7.759 -0.1821  0.0249  0.0635
  179loPI    C1 2849   0.818  11.984  10.219 -0.0137  0.0042  0.1010
  179loPI    C2 2850   0.495  11.800  10.365 -0.0201  0.0494  0.1443
  179loPI    C3 2851   0.555  12.188  10.441  0.0036  0.0605  0.0701
  179loPI   PO4 2852   0.821  11.910   9.937  0.1761  0.0128 -0.1486
  179loPI   GL1 2853   0.664  11.894   9.474  0.1280 -0.2525  0.0801
  179loPI   GL2 2854   0.885  11.764   9.438  0.1334  0.0250  0.2015
  179loPI   C1A 2855   0.505  11.766   9.150 -0.1376 -0.1399  0.0689
  179loPI   C2A 2856   0.511  11.547   8.818 -0.0379  0.3456  0.0944
  179loPI   C3A 2857   0.221  11.424   8.591 -0.2311  0.3463  0.2796
  179loPI   C4A 2858  -0.055  11.492   8.355  0.2648 -0.0807  0.0642
  179loPI   C5A 2859  -0.177  11.234   7.938  0.0899  0.1137  0.1336
  179loPI   C6A 2860  -0.395  11.311   7.569  0.1637 -0.1147  0.2889
  179loPI   C1B 2861   0.904  11.466   9.110 -0.0295 -0.2986 -0.0740
  179loPI   C2B 2862   0.932  11.277   8.679  0.2366 -0.0503  0.2080
  179loPI   C3B 2863   0.997  11.321   8.253 -0.0805  0.4508 -0.3092
  179loPI   C4B 2864   0.876  11.548   7.892 -0.1750 -0.0897  0.0697
  180loPI    C1 2865   0.922   3.589  10.057  0.0506  0.0806 -0.2248
  180loPI    C2 2866   0.560   3.618   9.889 -0.0550 -0.2014 -0.0524
  180loPI    C3 2867   0.596   3.621  10.288  0.1168 -0.3296 -0.0660
  180loPI   PO4 2868   1.047   3.547   9.816 -0.2683  0.2192  0.3477
  180loPI   GL1 2869   1.159   3.770   9.387  0.0054  0.0378 -0.1131
  180loPI   GL2 2870   0.806   3.823   9.463 -0.3800 -0.0098  0.2047
  180loPI   C1A 2871   1.152   3.820   8.879 -0.3035  0.0387 -0.3605
  180loPI   C2A 2872   1.335   4.072   8.452 -0.1904  0.3511 -0.0738
  180loPI   C3A 2873   1.374   4.076   8.050  0.0215  0.2165  0.2527
  180loPI   C4A 2874   1.479   4.058   7.586  0.0594 -0.0053 -0.2787
  180loPI   C5A 2875   1.357   3.930   7.198  0.3145  0.3034  0.2396
  180loPI   C6A 2876   1.230   3.824   6.806 -0.0507  0.0557  0.3440
  180loPI   C1B 2877   0.668   3.928   9.026 -0.1843  0.2681 -0.0540
  180loPI   C2B 2878   0.791   4.005   8.564  0.0141  0.0430 -0.1115
  180loPI   C3B 2879   0.853   4.154   8.163 -0.0891 -0.1396  0.1296
  180loPI   C4B 2880   1.021   4.430   7.860 -0.3238 -0.0167  0.1692
  181loPI    C1 2881   5.661   8.028   9.779  0.1431 -0.1515 -0.1482
  181loPI    C2 2882   6.005   7.830   9.830  0.2285 -0.0035 -0.1435
  181loPI    C3 2883   5.882   8.092  10.106  0.0737 -0.1112 -0.1089
  181loPI   PO4 2884   5.656   8.005   9.554  0.2942  0.1284 -0.0359
  181loPI   GL1 2885   5.673   8.330   9.251  0.0301  0.0212 -0.0262
  181loPI   GL2 2886   5.963   8.419   9.195  0.1191  0.0176  0.0114
  181loPI   C1A 2887   5.443   8.349   8.790 -0.0376 -0.2203 -0.3757
  181loPI   C2A 2888   5.573   8.323   8.391  0.1434 -0.1311  0.4267
  181loPI   C3A 2889   5.681   8.311   8.010 -0.1123  0.0562  0.2682
  181loPI   C4A 2890   5.552   8.594   7.646  0.2305 -0.0224 -0.2307
  181loPI   C5A 2891   5.537   9.007   7.473  0.1124  0.1199  0.0559
  181loPI   C6A 2892   5.270   9.205   7.518  0.3421  0.1858  0.1903
  181loPI   C1B 2893   5.905   8.486   8.718  0.1185 -0.1913  0.3583
  181loPI   C2B 2894   6.096   8.409   8.287  0.0815  0.0959 -0.2108
  181loPI   C3B 2895   6.101   8.388   7.738  0.3481 -0.0371 -0.1831
  181loPI   C4B 2896   6.177   7.946   7.424  0.0052  0.3043 -0.2540
  182loPI    C1 2897  13.195   6.432   9.752 -0.0991  0.0031  0.1474
  182loPI    C2 2898  13.219   6.295  10.127 -0.0051 -0.0784  0.1120
  182loPI    C3 2899  13.281   6.683  10.052 -0.3150 -0.0050  0.2181
  182loPI   PO4 2900  13.020   6.250   9.660  0.1248 -0.2217 -0.2979
  182loPI   GL1 2901  12.788   6.063   9.270 -0.2026  0.0819  0.1960
  182loPI   GL2 2902  13.053   5.806   9.261  0.0594 -0.3446 -0.2381
  182loPI   C1A 2903  12.589   6.129   8.847 -0.1874 -0.0067 -0.1135
  182loPI   C2A 2904  12.645   5.947   8.418  0.1633 -0.0449  0.2489
  182loPI   C3A 2905  12.835   6.005   8.046 -0.0840  0.0350 -0.4871
  182loPI   C4A 2906  12.868   5.711   7.733 -0.0692  0.1277  0.1883
  182loPI   C5A 2907  13.119   5.459   7.506 -0.0370  0.0084  0.3284
  182loPI   C6A 2908  13.190   5.184   7.096  0.0139 -0.0540 -0.0021
  182loPI   C1B 2909  13.086   6.025   8.844  0.1147 -0.0137  0.1350
  182loPI   C2B 2910  13.110   6.165   8.425 -0.3225 -0.0312  0.0210
  182loPI   C3B 2911  12.988   6.519   8.158 -0.1205 -0.3330 -0.4720
  182loPI   C4B 2912  12.596   6.833   8.099 -0.0062 -0.0261 -0.0002
  183loPI    C1 2913   8.230   2.560   9.922 -0.0894 -0.3451 -0.0290
  183loPI    C2 2914   8.236   2.514  10.319 -0.0166  0.0778  0.0226
  183loPI    C3 2915   7.896   2.613  10.135 -0.0411 -0.0779 -0.0167
  183loPI   PO4 2916   8.501   2.478   9.858  0.3682  0.0401 -0.0543
  183loPI   GL1 2917   8.573   2.459   9.506  0.1243 -0.0228  0.2510
  183loPI   GL2 2918   8.453   2.747   9.374 -0.1242 -0.0766 -0.1676
  183loPI   C1A 2919   8.647   2.104   9.206 -0.2252  0.1285 -0.0413
  183loPI   C2A 2920   8.903   2.016   8.769 -0.0108 -0.0758 -0.0885
  183loPI   C3A 2921   8.722   2.066   8.339 -0.1725  0.1388 -0.3273
  183loPI   C4A 2922   8.714   2.340   7.919 -0.0847  0.3150  0.0960
  183loPI   C5A 2923   8.901   2.093   7.587 -0.0302  0.1251 -0.0702
  183loPI   C6A 2924   9.068   1.760   7.278  0.1865  0.1917 -0.1615
  183loPI   C1B 2925   8.540   2.544   8.971 -0.0000 -0.0856 -0.1671
  183loPI   C2B 2926   8.366   2.327   8.732  0.0765 -0.1560 -0.4816
  183loPI   C3B 2927   8.219   2.300   8.248  0.1403  0.0427 -0.0724
  183loPI   C4B 2928   8.058   2.485   8.044 -0.1237  0.1466  0.0763
  184loPI    C1 2929  13.998  15.957   9.694  0.0316 -0.2288 -0.0309
  184loPI    C2 2930  14.054  16.139  10.046  0.0027 -0.1428 -0.0706
  184loPI    C3 2931  13.708  16.184   9.851  0.0274 -0.1715 -0.1212
  184loPI   PO4 2932  14.084  16.043   9.493  0.2389 -0.2641  0.1085
  184loPI   GL1 2933  14.101  16.130   9.071 -0.0029  0.1032 -0.0003
  184loPI   GL2 2934  14.432  16.386   9.098  0.0607  0.2050  0.2554
  184loPI   C1A 2935  13.923  16.244   8.666  0.3297  0.2179  0.0202
  184loPI   C2A 2936  13.990  16.543   8.315 -0.0692  0.2028  0.1916
  184loPI   C3A 2937  13.766  16.824   8.099  0.2422  0.2567 -0.0682
  184loPI   C4A 2938  13.522  16.806   7.779  0.0027  0.0040  0.0705
  184loPI   C5A 2939  13.530  16.425   7.409  0.1479 -0.0477  0.1197
  184loPI   C6A 2940  13.616  16.394   6.999 -0.1556 -0.2993 -0.0834
  184loPI   C1B 2941  13.992  16.667   8.960  0.0130  0.0171  0.1967
  184loPI   C2B 2942  13.793  16.925   8.601 -0.0612 -0.0449  0.0357
  184loPI   C3B 2943  13.780  17.303   8.519 -0.2020 -0.1995  0.2239
  184loPI   C4B 2944  13.512  17.579   8.414  0.2002  0.0516 -0.2070
  185loPI    C1 2945   1.416   0.105   9.997 -0.0374 -0.0285 -0.2668
  185loPI    C2 2946   1.482   0.467  10.153 -0.0514 -0.1205 -0.0425
  185loPI    C3 2947   1.605   0.383   9.781  0.1468  0.0446 -0.0162
  185loPI   PO4 2948   1.148   0.034   9.800  0.1800 -0.0240 -0.0247
  185loPI   GL1 2949   0.779   0.076   9.588 -0.1611 -0.0202  0.2008
  185loPI   GL2 2950   0.842  -0.103   9.438 -0.2059  0.0926  0.0822
  185loPI   C1A 2951   0.686   0.375   9.244 -0.0333  0.2992  0.0056
  185loPI   C2A 2952   0.813   0.575   8.901  0.0355  0.1242 -0.2152
  185loPI   C3A 2953   0.856   0.535   8.488 -0.1818 -0.2128  0.0512
  185loPI   C4A 2954   0.564   0.596   8.113 -0.2419 -0.1014  0.0641
  185loPI   C5A 2955   0.336   0.621   7.758 -0.2314  0.1197 -0.1534
  185loPI   C6A 2956   0.087   0.958   7.498 -0.0016 -0.0366  0.0635
  185loPI   C1B 2957   0.645  -0.107   9.032  0.0328  0.1296  0.3721
  185loPI   C2B 2958   0.595   0.131   8.703  0.0642 -0.0552 -0.0634
  185loPI   C3B 2959   0.578   0.100   8.303 -0.2501 -0.0175  0.1032
  185loPI   C4B 2960   0.785   0.056   7.954  0.3312 -0.0557  0.0587
  186loPI    C1 2961  15.560   7.146  10.557 -0.0288 -0.0662  0.0270
  186loPI    C2 2962  15.949   7.218  10.611 -0.0282 -0.0808  0.0422
  186loPI    C3 2963  15.748   6.996  10.876 -0.0314 -0.1297 -0.0010
  186loPI   PO4 2964  15.606   7.183  10.219  0.1603  0.0676 -0.0476
  186loPI   GL1 2965  15.551   7.368   9.884  0.1321  0.3778 -0.1482
  186loPI   GL2 2966  15.339   7.653   9.829  0.1772  0.0075 -0.0093
  186loPI   C1A 2967  15.573   7.176   9.520  0.0617  0.1718 -0.0677
  186loPI   C2A 2968  15.616   7.264   9.068  0.0185 -0.0527  0.0210
  186loPI   C3A 2969  15.855   7.376   8.727  0.2305 -0.0656  0.2954
  186loPI   C4A 2970  16.281   7.170   8.537  0.2107  0.0229 -0.1655
  186loPI   C5A 2971  16.472   7.308   8.206 -0.0246  0.1207  0.0138
  186loPI   C6A 2972  16.396   7.154   7.866 -0.0504  0.2150  0.0360
  186loPI   C1B 2973  15.497   7.676   9.313  0.3751  0.1198 -0.2522
  186loPI   C2B 2974  15.657   7.773   8.964 -0.0067 -0.1327 -0.1806
  186loPI   C3B 2975  15.772   7.940   8.569  0.0672 -0.1811 -0.0063
  186loPI   C4B 2976  15.815   8.360   8.425 -0.0610 -0.2123  0.0764
  187loPI    C1 2977  15.812  10.360  10.137 -0.0172 -0.0006 -0.0447
  187loPI    C2 2978  16.187  10.344  10.276 -0.0485  0.1607  0.0605
  187loPI    C3 2979  15.976  10.683  10.308 -0.1908  0.0815 -0.0310
  187loPI   PO4 2980  15.769  10.272   9.936  0.1333  0.2285  0.2036
  187loPI   GL1 2981  15.793   9.964   9.631 -0.1467  0.2363  0.1970
  187loPI   GL2 2982  15.501   9.963   9.538  0.3000 -0.0297  0.1268
  187loPI   C1A 2983  15.829  10.062   9.174  0.0148  0.0688 -0.2489
  187loPI   C2A 2984  15.604   9.893   8.875  0.0097 -0.1362  0.0045
  187loPI   C3A 2985  15.500  10.024   8.463  0.1871  0.0728  0.0566
  187loPI   C4A 2986  15.544  10.054   7.997 -0.3846 -0.1687 -0.1940
  187loPI   C5A 2987  15.620   9.782   7.663 -0.0939 -0.0689  0.0623
  187loPI   C6A 2988  15.521   9.843   7.295  0.0911  0.1536 -0.3472
  187loPI   C1B 2989  15.208   9.869   9.188 -0.1636 -0.0627 -0.0752
  187loPI   C2B 2990  15.110   9.784   8.756  0.1405  0.0996 -0.2586
  187loPI   C3B 2991  15.138   9.705   8.350 -0.3474  0.0424 -0.0657
  187loPI   C4B 2992  14.882   9.510   8.047  0.1502 -0.3076 -0.0506
  188loPI    C1 2993   1.239   2.153   9.880  0.0799 -0.4389 -0.1005
  188loPI    C2 2994   1.505   2.004  10.139  0.0701 -0.2367  0.0282
  188loPI    C3 2995   1.114   1.975  10.216  0.0690 -0.1179  0.0692
  188loPI   PO4 2996   1.286   2.057   9.710 -0.0838 -0.1983  0.1850
  188loPI   GL1 2997   1.413   1.969   9.324  0.0998  0.0550  0.2526
  188loPI   GL2 2998   1.359   1.615   9.393  0.3720  0.1408 -0.0764
  188loPI   C1A 2999   1.497   1.993   8.860 -0.3426 -0.1955 -0.4406
  188loPI   C2A 3000   1.537   1.947   8.493  0.0747  0.0383 -0.2558
  188loPI   C3A 3001   1.677   1.763   8.214 -0.0254  0.0602 -0.0696
  188loPI   C4A 3002   1.942   1.908   7.885 -0.2221 -0.1800  0.1530
  188loPI   C5A 3003   1.814   1.891   7.483 -0.2867  0.0847 -0.2453
  188loPI   C6A 3004   2.029   2.140   7.111  0.3274 -0.0237 -0.2571
  188loPI   C1B 3005   1.271   1.481   8.928  0.2037  0.6025  0.0827
  188loPI   C2B 3006   1.233   1.569   8.471  0.2189  0.0886  0.1484
  188loPI   C3B 3007   1.047   1.604   8.011 -0.0546 -0.1881 -0.1811
  188loPI   C4B 3008   1.292   1.533   7.570  0.0139  0.0039 -0.0922
  189loPI    C1 3009   7.272  13.968  10.073 -0.2718 -0.1201  0.0175
  189loPI    C2 3010   6.934  14.142  10.199 -0.2086 -0.1121  0.1776
  189loPI    C3 3011   7.264  14.362  10.142 -0.2720 -0.0930 -0.1330
  189loPI   PO4 3012   7.276  13.884   9.874  0.0971 -0.2831 -0.1311
  189loPI   GL1 3013   7.246  14.091   9.600  0.4225  0.0779  0.2470
  189loPI   GL2 3014   7.389  14.334   9.617 -0.0679 -0.0436  0.2675
  189loPI   C1A 3015   6.963  14.079   9.171  0.0856  0.3283 -0.0300
  189loPI   C2A 3016   6.785  13.806   8.852  0.0133 -0.0740 -0.1806
  189loPI   C3A 3017   6.868  13.681   8.423 -0.0309  0.0385  0.2292
  189loPI   C4A 3018   7.126  13.203   8.304 -0.4631 -0.0726  0.2162
  189loPI   C5A 3019   6.937  12.939   8.021  0.1549  0.0136  0.0496
  189loPI   C6A 3020   6.706  12.740   7.694 -0.2390 -0.0764 -0.1192
  189loPI   C1B 3021   7.484  14.569   9.263  0.0010  0.4237 -0.0486
  189loPI   C2B 3022   7.414  14.683   8.832  0.0277  0.3867 -0.1077
  189loPI   C3B 3023   7.363  14.604   8.350 -0.0092 -0.0909 -0.2817
  189loPI   C4B 3024   7.379  14.255   8.085  0.0170  0.2200  0.1979
  190loPI    C1 3025  18.136  18.788  10.873 -0.1169 -0.0977  0.0959
  190loPI    C2 3026  18.128  19.169  10.754  0.0307 -0.1297 -0.0197
  190loPI    C3 3027  18.213  19.080  11.134 -0.3430 -0.0320  0.0910
  190loPI   PO4 3028  17.938  18.689  10.778 -0.1442 -0.0528 -0.1179
  190loPI   GL1 3029  17.982  18.580  10.254  0.0161  0.0092  0.0248
  190loPI   GL2 3030  18.205  18.397  10.040 -0.6759 -0.2255  0.1486
  190loPI   C1A 3031  17.703  18.588   9.859 -0.0331 -0.0566  0.0895
  190loPI   C2A 3032  17.735  18.597   9.361 -0.0096  0.2778  0.1199
  190loPI   C3A 3033  17.750  18.606   8.936  0.1044  0.1530 -0.0658
  190loPI   C4A 3034  17.917  18.685   8.510  0.0535  0.2838 -0.1288
  190loPI   C5A 3035  18.093  18.686   8.199  0.1877 -0.1619  0.3642
  190loPI   C6A 3036  18.149  18.486   7.774 -0.4923  0.2969 -0.0905
  190loPI   C1B 3037  18.386  18.159   9.780  0.2114 -0.3353 -0.0869
  190loPI   C2B 3038  18.541  18.232   9.393 -0.1057  0.1740  0.0756
  190loPI   C3B 3039  18.739  18.192   9.030 -0.0434  0.0489 -0.2177
  190loPI   C4B 3040  19.066  18.339   8.762 -0.4263 -0.0930  0.3107
  191loPI    C1 3041  17.239  16.972  10.408  0.0376  0.3105  0.0087
  191loPI    C2 3042  16.855  16.922  10.505  0.0252  0.0708 -0.1548
  191loPI    C3 3043  17.074  17.200  10.692 -0.2042  0.1530 -0.0033
  191loPI   PO4 3044  17.313  17.051  10.178 -0.1812 -0.1849  0.0127
  191loPI   GL1 3045  17.397  16.858   9.837 -0.2025 -0.0516 -0.1579
  191loPI   GL2 3046  17.650  17.201   9.839  0.0478  0.1588  0.2084
  191loPI   C1A 3047  17.312  16.868   9.451  0.1610  0.1199 -0.0685
  191loPI   C2A 3048  17.104  16.587   9.379  0.2880  0.4319  0.0717
  191loPI   C3A 3049  16.993  16.452   8.946 -0.3802 -0.1532  0.2767
  191loPI   C4A 3050  17.065  16.530   8.421  0.4222  0.0682 -0.2244
  191loPI   C5A 3051  17.134  16.582   8.002 -0.1399  0.0923  0.1903
  191loPI   C6A 3052  17.085  16.771   7.534  0.2409  0.2971  0.1535
  191loPI   C1B 3053  17.622  17.287   9.349 -0.2297 -0.1001 -0.0545
  191loPI   C2B 3054  17.712  17.099   9.020  0.0399  0.1293 -0.3381
  191loPI   C3B 3055  17.924  16.945   8.719 -0.5964  0.0298 -0.2598
  191loPI   C4B 3056  18.285  17.145   8.432  0.1604 -0.0100 -0.2607
  192loPI    C1 3057  16.080  17.104   9.896  0.1787  0.0953 -0.0935
  192loPI    C2 3058  16.091  17.151  10.293 -0.3578  0.3326 -0.0975
  192loPI    C3 3059  15.913  16.830  10.135  0.2358  0.0134 -0.1471
  192loPI   PO4 3060  16.029  17.260   9.774 -0.3109 -0.2772 -0.1819
  192loPI   GL1 3061  15.894  17.240   9.358 -0.2180 -0.0023  0.1686
  192loPI   GL2 3062  15.676  17.429   9.435  0.0202 -0.1498  0.0701
  192loPI   C1A 3063  15.813  17.232   8.955  0.1840 -0.1447  0.0758
  192loPI   C2A 3064  15.913  17.322   8.492  0.0232  0.1215 -0.2505
  192loPI   C3A 3065  15.832  17.037   8.137  0.0681  0.0799 -0.0055
  192loPI   C4A 3066  15.574  16.796   7.969  0.2636 -0.1030  0.1244
  192loPI   C5A 3067  15.060  16.658   7.901  0.0256 -0.1933 -0.2877
  192loPI   C6A 3068  14.831  16.459   7.594  0.0859  0.1271 -0.1587
  192loPI   C1B 3069  15.669  17.687   9.152  0.0745 -0.2357 -0.1387
  192loPI   C2B 3070  15.869  17.797   8.793  0.0339  0.1719 -0.4349
  192loPI   C3B 3071  16.197  17.788   8.419 -0.0773  0.1727 -0.0164
  192loPI   C4B 3072  16.232  17.716   7.998 -0.1999 -0.1970 -0.0489
  193loPI    C1 3073   4.520   1.365   9.989  0.2629 -0.1907 -0.0724
  193loPI    C2 3074   4.360   1.575  10.289  0.2223  0.0223 -0.2406
  193loPI    C3 3075   4.693   1.363  10.349  0.1517 -0.0278 -0.0165
  193loPI   PO4 3076   4.568   1.556   9.804  0.0373 -0.4642 -0.1110
  193loPI   GL1 3077   4.134   1.883   9.617 -0.1252  0.2114  0.0138
  193loPI   GL2 3078   3.843   2.075   9.657 -0.2241 -0.0967  0.2144
  193loPI   C1A 3079   4.373   1.962   9.172 -0.0804 -0.0054  0.0279
  193loPI   C2A 3080   4.728   2.192   9.050  0.0880  0.1126  0.3178
  193loPI   C3A 3081   5.029   2.220   8.769 -0.3186 -0.0702  0.0990
  193loPI   C4A 3082   5.136   1.943   8.406  0.2744 -0.1135 -0.0865
  193loPI   C5A 3083   5.108   1.774   7.884 -0.1637  0.2102 -0.0937
  193loPI   C6A 3084   5.310   1.781   7.454 -0.1998  0.2258 -0.0469
  193loPI   C1B 3085   3.923   2.224   9.133  0.0530  0.0602  0.0793
  193loPI   C2B 3086   3.873   2.273   8.663 -0.3990 -0.0713 -0.1720
  193loPI   C3B 3087   3.831   2.299   8.228  0.0834  0.0050 -0.2760
  193loPI   C4B 3088   3.803   2.344   7.803 -0.3705 -0.1334  0.2385
  194loPI    C1 3089  12.925  16.777  10.044 -0.0113  0.0025 -0.1449
  194loPI    C2 3090  12.786  17.070  10.278  0.0579  0.1349 -0.2685
  194loPI    C3 3091  12.982  16.761  10.440 -0.2377  0.0268 -0.1101
  194loPI   PO4 3092  12.958  16.901   9.832  0.0123  0.0880  0.1456
  194loPI   GL1 3093  12.925  16.809   9.401  0.3146  0.1495  0.0723
  194loPI   GL2 3094  12.729  16.580   9.229  0.1353  0.0581  0.0040
  194loPI   C1A 3095  12.985  17.072   9.107 -0.3151 -0.0179  0.2778
  194loPI   C2A 3096  12.732  17.127   8.704 -0.1563  0.3132  0.1511
  194loPI   C3A 3097  12.688  17.223   8.311 -0.0320  0.1301  0.0731
  194loPI   C4A 3098  12.522  17.181   7.826  0.2771 -0.0208 -0.1009
  194loPI   C5A 3099  12.381  16.734   7.591 -0.2293 -0.2138 -0.2882
  194loPI   C6A 3100  12.115  16.334   7.521  0.1321 -0.3790 -0.2284
  194loPI   C1B 3101  12.440  16.874   9.035  0.0880 -0.1493 -0.1400
  194loPI   C2B 3102  12.306  16.907   8.627  0.1046 -0.0494  0.1759
  194loPI   C3B 3103  12.381  16.828   8.188  0.0053  0.4140  0.0717
  194loPI   C4B 3104  12.076  16.608   7.948 -0.0298 -0.2231 -0.2129
  195loPI    C1 3105   9.183  14.942  10.116 -0.0512  0.0076  0.0559
  195loPI    C2 3106   8.847  15.111  10.253  0.1191  0.3173  0.0984
  195loPI    C3 3107   9.099  14.931  10.507 -0.0535  0.0089  0.0555
  195loPI   PO4 3108   9.086  14.929   9.876  0.2347 -0.0832  0.1827
  195loPI   GL1 3109   8.746  14.745   9.830  0.0950  0.1763  0.0019
  195loPI   GL2 3110   8.637  14.513   9.819 -0.2172 -0.1044  0.0866
  195loPI   C1A 3111   8.684  14.954   9.352  0.0311 -0.0711 -0.0901
  195loPI   C2A 3112   8.737  14.719   8.976 -0.1709  0.4166 -0.2279
  195loPI   C3A 3113   8.790  14.589   8.617 -0.2362 -0.4969  0.2952
  195loPI   C4A 3114   9.003  14.339   8.393 -0.0471  0.0652 -0.0352
  195loPI   C5A 3115   8.988  14.018   8.100 -0.0137  0.1771  0.4475
  195loPI   C6A 3116   8.708  13.609   8.170 -0.1689 -0.1874 -0.0500
  195loPI   C1B 3117   8.844  14.478   9.457  0.0567  0.3463  0.0876
  195loPI   C2B 3118   9.125  14.161   9.276  0.0213 -0.1478  0.0921
  195loPI   C3B 3119   9.100  14.198   8.858  0.2215 -0.3373 -0.1202
  195loPI   C4B 3120   9.128  13.879   8.542 -0.1188  0.3102 -0.3892
  196loPI    C1 3121   4.994  16.214  10.221 -0.1563  0.1183  0.3035
  196loPI    C2 3122   4.781  15.945  10.426 -0.1369 -0.1416 -0.0089
  196loPI    C3 3123   4.982  16.231  10.620 -0.0817 -0.4077  0.3356
  196loPI   PO4 3124   5.054  16.062  10.003  0.3530 -0.1246  0.1677
  196loPI   GL1 3125   5.315  15.922   9.684 -0.1448 -0.0455 -0.2466
  196loPI   GL2 3126   5.349  16.175   9.411  0.0238  0.0411 -0.0398
  196loPI   C1A 3127   5.281  15.556   9.328  0.1750  0.0467 -0.2286
  196loPI   C2A 3128   5.259  15.065   9.212  0.0073 -0.1326 -0.1382
  196loPI   C3A 3129   5.333  14.921   8.876 -0.1806  0.2744 -0.5342
  196loPI   C4A 3130   5.516  15.058   8.532  0.0461  0.5396  0.1173
  196loPI   C5A 3131   5.836  14.820   8.340 -0.0070 -0.1484 -0.1896
  196loPI   C6A 3132   6.039  15.031   8.004 -0.0496 -0.2234 -0.1658
  196loPI   C1B 3133   5.239  15.952   9.057 -0.0047 -0.1113  0.0949
  196loPI   C2B 3134   4.904  15.958   8.695  0.1124  0.3427 -0.2696
  196loPI   C3B 3135   5.023  15.822   8.272 -0.2900 -0.0939  0.1693
  196loPI   C4B 3136   5.241  15.693   7.904  0.1015 -0.1654 -0.0637
  197loPI    C1 3137   0.229   8.629  10.567  0.2030  0.1808 -0.1563
  197loPI    C2 3138  -0.093   8.846  10.664 -0.1280 -0.2485 -0.2584
  197loPI    C3 3139   0.148   8.707  10.951  0.1432  0.3196 -0.1967
  197loPI   PO4 3140   0.135   8.552  10.351  0.4462 -0.0657 -0.1611
  197loPI   GL1 3141   0.159   8.284   9.917  0.1999 -0.0531 -0.2747
  197loPI   GL2 3142  -0.034   8.481   9.874 -0.2896  0.2049 -0.1729
  197loPI   C1A 3143   0.293   8.235   9.511  0.2937 -0.0262 -0.0349
  197loPI   C2A 3144   0.384   8.093   9.219  0.3902  0.0823 -0.2346
  197loPI   C3A 3145   0.280   8.143   8.760  0.0937  0.0339 -0.1543
  197loPI   C4A 3146   0.332   7.969   8.312 -0.1969 -0.3792  0.0624
  197loPI   C5A 3147   0.489   8.032   7.887 -0.2826  0.0886  0.1019
  197loPI   C6A 3148   0.381   8.181   7.557  0.1016  0.0815 -0.1391
  197loPI   C1B 3149  -0.198   8.480   9.388 -0.3151  0.0738  0.1019
  197loPI   C2B 3150  -0.553   8.245   9.064  0.0556 -0.0938  0.0455
  197loPI   C3B 3151  -0.467   8.038   8.673 -0.0699 -0.0513  0.2672
  197loPI   C4B 3152  -0.117   8.021   8.450 -0.1793 -0.3209  0.1555
  198loPI    C1 3153   6.114   7.317   9.706  0.0514 -0.0568 -0.0837
  198loPI    C2 3154   6.440   7.127   9.839  0.0242 -0.1474 -0.1459
  198loPI    C3 3155   6.447   7.523   9.787  0.0077 -0.0977  0.2104
  198loPI   PO4 3156   6.019   7.144   9.427 -0.0103 -0.0109 -0.2319
  198loPI   GL1 3157   6.260   7.033   9.098  0.1512 -0.1885 -0.1370
  198loPI   GL2 3158   6.122   7.341   8.975  0.3073 -0.0424 -0.0670
  198loPI   C1A 3159   6.530   6.908   8.823 -0.0307 -0.0137 -0.2702
  198loPI   C2A 3160   6.547   6.807   8.433 -0.0393  0.3650 -0.0692
  198loPI   C3A 3161   6.500   6.623   8.060  0.2458  0.1153  0.1533
  198loPI   C4A 3162   6.255   6.624   7.648 -0.3813  0.0142  0.2440
  198loPI   C5A 3163   5.990   6.367   7.443 -0.1545 -0.0113 -0.1179
  198loPI   C6A 3164   6.285   6.160   7.191 -0.0573 -0.0397 -0.2471
  198loPI   C1B 3165   6.413   7.519   8.612 -0.1123  0.1496 -0.2019
  198loPI   C2B 3166   6.409   7.949   8.492 -0.0896  0.2122 -0.3863
  198loPI   C3B 3167   6.794   8.058   8.690  0.5238 -0.0870  0.3300
  198loPI   C4B 3168   6.825   7.749   8.940 -0.0533  0.0568 -0.2248
  199loPI    C1 3169  18.951   5.701  10.642 -0.0385  0.0371  0.0354
  199loPI    C2 3170  18.694   5.505  10.878 -0.1061  0.0498 -0.0272
  199loPI    C3 3171  18.854   5.851  10.999  0.0049 -0.0378  0.0789
  199loPI   PO4 3172  18.814   5.701  10.309 -0.1817  0.0303 -0.2589
  199loPI   GL1 3173  18.724   5.503   9.840  0.1529  0.1895  0.1276
  199loPI   GL2 3174  18.702   5.734   9.733 -0.0149 -0.0132 -0.1626
  199loPI   C1A 3175  18.985   5.551   9.430  0.2243  0.2297 -0.2618
  199loPI   C2A 3176  19.088   5.539   9.035 -0.2923 -0.1047 -0.1619
  199loPI   C3A 3177  19.055   5.652   8.616 -0.0362  0.1177  0.1950
  199loPI   C4A 3178  18.880   5.707   8.109 -0.1724 -0.1389  0.1646
  199loPI   C5A 3179  18.762   5.513   7.834 -0.1233  0.0996 -0.1887
  199loPI   C6A 3180  18.440   5.570   7.542  0.0052 -0.0606  0.3236
  199loPI   C1B 3181  18.920   6.042   9.428  0.0346  0.1332  0.1877
  199loPI   C2B 3182  18.995   6.064   9.041 -0.2256 -0.2846 -0.2339
  199loPI   C3B 3183  19.006   6.145   8.592  0.1992  0.2119 -0.1213
  199loPI   C4B 3184  19.107   6.296   8.156 -0.3051 -0.1226  0.2973
  200loPI    C1 3185   4.261  13.444  10.402 -0.2397  0.1398 -0.0400
  200loPI    C2 3186   4.178  13.828  10.476  0.1769  0.1912  0.1933
  200loPI    C3 3187   4.373  13.609  10.748 -0.0382 -0.1838  0.0541
  200loPI   PO4 3188   4.075  13.309  10.230 -0.0404  0.0002  0.1210
  200loPI   GL1 3189   3.913  13.298   9.845 -0.1059  0.1049 -0.0892
  200loPI   GL2 3190   3.686  13.616   9.834 -0.2391  0.0135 -0.0264
  200loPI   C1A 3191   3.750  13.425   9.404 -0.2137 -0.0716  0.1610
  200loPI   C2A 3192   3.816  13.310   8.942  0.2118 -0.1102  0.1022
  200loPI   C3A 3193   3.721  13.260   8.526 -0.2857 -0.2192  0.2175
  200loPI   C4A 3194   3.675  13.020   8.207 -0.2346  0.4384  0.0316
  200loPI   C5A 3195   3.432  13.139   7.977 -0.0303 -0.1688  0.4006
  200loPI   C6A 3196   3.001  13.042   7.781  0.3021 -0.0755 -0.2291
  200loPI   C1B 3197   3.300  13.771   9.549  0.3585 -0.0382  0.0238
  200loPI   C2B 3198   3.157  14.138   9.325  0.5519  0.0351  0.0771
  200loPI   C3B 3199   2.985  14.204   8.854 -0.0267 -0.2210 -0.0256
  200loPI   C4B 3200   3.007  14.043   8.490 -0.2321 -0.1420  0.5804
  201loPI    C1 3201  12.381   3.075   9.509 -0.0534  0.0486  0.3219
  201loPI    C2 3202  12.592   2.738   9.549 -0.1378 -0.0699 -0.1725
  201loPI    C3 3203  12.440   2.918   9.872  0.2024 -0.3120  0.1297
  201loPI   PO4 3204  12.533   3.314   9.420 -0.1651 -0.1126 -0.0822
  201loPI   GL1 3205  12.785   3.644   9.149 -0.2941 -0.2904 -0.2896
  201loPI   GL2 3206  12.441   3.625   9.034 -0.0679 -0.3548  0.2299
  201loPI   C1A 3207  12.956   3.480   8.782  0.1841  0.0340  0.0302
  201loPI   C2A 3208  13.041   3.657   8.363  0.2169 -0.2817 -0.1928
  201loPI   C3A 3209  13.212   3.644   7.943 -0.5317 -0.1553 -0.2572
  201loPI   C4A 3210  13.251   3.415   7.524  0.1714 -0.2934 -0.3330
  201loPI   C5A 3211  13.152   3.081   7.240 -0.0134  0.1352  0.2371
  201loPI   C6A 3212  13.248   2.549   7.341  0.2173  0.0379 -0.2699
  201loPI   C1B 3213  12.460   3.574   8.700 -0.0782  0.0398  0.2819
  201loPI   C2B 3214  12.360   3.638   8.237  0.0029  0.1389  0.1948
  201loPI   C3B 3215  12.141   3.857   7.863 -0.2907 -0.3144 -0.3394
  201loPI   C4B 3216  12.111   3.742   7.457  0.2538  0.3677  0.0528
  202loPI    C1 3217   0.181   5.259   9.771  0.3301 -0.0070  0.0910
  202loPI    C2 3218   0.239   5.372  10.150  0.1720  0.1419  0.0723
  202loPI    C3 3219   0.204   5.648   9.863 -0.2004  0.0485  0.0218
  202loPI   PO4 3220   0.434   5.036   9.813 -0.2120  0.2257 -0.1060
  202loPI   GL1 3221   0.635   4.820   9.484 -0.1284 -0.3126 -0.1203
  202loPI   GL2 3222   0.831   4.850   9.224 -0.1690  0.1420 -0.0181
  202loPI   C1A 3223   0.273   4.573   9.166  0.0562 -0.0586  0.0381
  202loPI   C2A 3224   0.121   4.553   8.728 -0.1611  0.3299 -0.2412
  202loPI   C3A 3225  -0.028   4.353   8.377  0.3108  0.4004 -0.0343
  202loPI   C4A 3226  -0.024   4.230   8.059 -0.0618  0.2167  0.1266
  202loPI   C5A 3227   0.228   4.107   7.826  0.0287  0.0571 -0.2072
  202loPI   C6A 3228   0.402   3.918   7.473  0.1671  0.1254  0.1988
  202loPI   C1B 3229   0.772   4.909   8.765  0.1254  0.2187 -0.0042
  202loPI   C2B 3230   0.423   4.918   8.472  0.2045  0.1123 -0.1490
  202loPI   C3B 3231   0.073   4.802   8.203 -0.0849 -0.1547 -0.1092
  202loPI   C4B 3232  -0.104   4.985   8.036  0.1633  0.3949  0.1264
  203loPI    C1 3233  14.957  13.622   9.838  0.2450 -0.2600 -0.0868
  203loPI    C2 3234  14.794  13.305  10.020  0.4184 -0.2705  0.0532
  203loPI    C3 3235  14.968  13.592  10.237  0.1555 -0.0166 -0.0642
  203loPI   PO4 3236  15.136  13.487   9.684  0.0149 -0.0349  0.1012
  203loPI   GL1 3237  15.213  13.584   9.264  0.3073 -0.0612 -0.0143
  203loPI   GL2 3238  15.557  13.552   9.147  0.0227 -0.0036 -0.0926
  203loPI   C1A 3239  15.285  13.982   9.055  0.2249  0.1219 -0.0042
  203loPI   C2A 3240  15.368  14.145   8.645  0.0368 -0.5529 -0.2395
  203loPI   C3A 3241  15.220  14.004   8.321 -0.1690  0.0001 -0.0563
  203loPI   C4A 3242  15.393  13.861   7.983  0.2295 -0.1100  0.1587
  203loPI   C5A 3243  15.643  13.636   7.665  0.0297  0.0497  0.0581
  203loPI   C6A 3244  15.864  13.710   7.240 -0.2744 -0.3051  0.0284
  203loPI   C1B 3245  15.338  13.617   8.726 -0.3956  0.0404  0.3046
  203loPI   C2B 3246  14.947  13.548   8.444  0.0454 -0.0194 -0.2563
  203loPI   C3B 3247  14.851  13.765   8.056 -0.0214 -0.2279 -0.0617
  203loPI   C4B 3248  14.530  14.052   7.787 -0.4110  0.0534  0.1228
  204loPI    C1 3249   9.949   9.156   9.986  0.0347  0.1495 -0.0448
  204loPI    C2 3250   9.893   9.467  10.230 -0.1687  0.0182  0.0784
  204loPI    C3 3251   9.972   9.105  10.382 -0.0971 -0.0242 -0.0583
  204loPI   PO4 3252  10.166   9.110   9.855  0.2243  0.1069  0.4896
  204loPI   GL1 3253  10.436   8.997   9.503 -0.0662  0.1849 -0.2629
  204loPI   GL2 3254  10.581   9.206   9.661 -0.2287  0.3372  0.4952
  204loPI   C1A 3255  10.331   8.955   9.049 -0.2995  0.1001 -0.1436
  204loPI   C2A 3256  10.411   8.873   8.641  0.0320 -0.2635 -0.4601
  204loPI   C3A 3257  10.356   8.780   8.245  0.0161  0.0460 -0.0796
  204loPI   C4A 3258  10.429   8.665   7.670  0.1750 -0.0938  0.0670
  204loPI   C5A 3259  10.677   8.381   7.374  0.1449  0.0046  0.0353
  204loPI   C6A 3260  11.039   8.271   7.320  0.1052  0.0633 -0.0450
  204loPI   C1B 3261  10.662   9.383   9.247  0.3765  0.0771 -0.1196
  204loPI   C2B 3262  10.625   9.324   8.829 -0.0860 -0.2280 -0.3015
  204loPI   C3B 3263  10.736   9.307   8.434  0.2460 -0.4602  0.1699
  204loPI   C4B 3264  10.637   9.600   8.087  0.0896 -0.1140 -0.2525
  205loPI    C1 3265   0.128  14.724  10.539  0.0208  0.0954  0.0266
  205loPI    C2 3266  -0.014  14.959  10.830 -0.0131 -0.0346  0.1159
  205loPI    C3 3267   0.334  14.767  10.879 -0.0384 -0.0879  0.0870
  205loPI   PO4 3268  -0.099  14.878  10.286  0.1611  0.0327 -0.0696
  205loPI   GL1 3269  -0.275  14.949   9.942  0.3881 -0.2284  0.2114
  205loPI   GL2 3270  -0.298  15.371   9.886 -0.3449  0.3828  0.0459
  205loPI   C1A 3271  -0.115  14.947   9.511 -0.3868 -0.1344  0.1059
  205loPI   C2A 3272  -0.127  14.955   9.113  0.2752  0.0660 -0.1510
  205loPI   C3A 3273  -0.289  15.056   8.644 -0.0350 -0.0279  0.0475
  205loPI   C4A 3274  -0.095  15.087   8.201 -0.0196 -0.1503  0.1170
  205loPI   C5A 3275  -0.175  15.213   7.769  0.1094  0.0417 -0.0674
  205loPI   C6A 3276  -0.038  15.071   7.354 -0.3557 -0.0947 -0.0158
  205loPI   C1B 3277  -0.282  15.455   9.472 -0.2087  0.2496 -0.0877
  205loPI   C2B 3278  -0.223  15.424   9.034 -0.0238  0.6608  0.0137
  205loPI   C3B 3279   0.127  15.295   8.793 -0.3848  0.2087  0.0143
  205loPI   C4B 3280   0.367  15.027   8.441  0.2470 -0.0024  0.2212
  206loPI    C1 3281   2.958   4.250   9.942 -0.0976 -0.3742 -0.1155
  206loPI    C2 3282   3.202   4.039  10.178  0.1101 -0.1885 -0.1613
  206loPI    C3 3283   2.838   3.898  10.090 -0.0147 -0.2108  0.3585
  206loPI   PO4 3284   3.217   4.290   9.731  0.1677  0.5011  0.1153
  206loPI   GL1 3285   3.311   4.302   9.236  0.0326  0.0252  0.1383
  206loPI   GL2 3286   3.021   4.467   9.241  0.1869 -0.1147  0.3412
  206loPI   C1A 3287   3.231   3.962   8.915  0.0922 -0.3490 -0.0134
  206loPI   C2A 3288   3.463   3.954   8.580  0.4402 -0.0145 -0.0372
  206loPI   C3A 3289   3.519   3.973   8.142 -0.1608  0.0190  0.0351
  206loPI   C4A 3290   3.352   4.116   7.749  0.0545 -0.1626  0.0390
  206loPI   C5A 3291   3.286   4.350   7.293 -0.3279 -0.1044 -0.1612
  206loPI   C6A 3292   3.325   4.361   6.816 -0.0809  0.0113 -0.0071
  206loPI   C1B 3293   3.041   4.410   8.778  0.0556  0.1820 -0.2742
  206loPI   C2B 3294   2.961   4.304   8.292  0.1177 -0.0658  0.0439
  206loPI   C3B 3295   2.706   4.009   8.129 -0.2612  0.2182  0.0973
  206loPI   C4B 3296   2.704   3.756   7.789  0.0636  0.2126  0.2075
  207loPI    C1 3297   5.195   6.276   9.751 -0.3382 -0.0332 -0.0584
  207loPI    C2 3298   5.318   6.469  10.079 -0.4699  0.0567 -0.0614
  207loPI    C3 3299   5.573   6.236   9.877 -0.2772  0.3137 -0.1208
  207loPI   PO4 3300   5.107   6.479   9.606  0.1855  0.0442  0.1170
  207loPI   GL1 3301   4.967   6.565   9.155 -0.0712 -0.1557 -0.1850
  207loPI   GL2 3302   4.982   6.838   8.966  0.3155  0.1469  0.2404
  207loPI   C1A 3303   4.799   6.385   8.787 -0.2957  0.0949 -0.1844
  207loPI   C2A 3304   4.645   6.136   8.462  0.1257  0.0943 -0.0880
  207loPI   C3A 3305   4.649   5.770   8.208  0.1727 -0.2233  0.2458
  207loPI   C4A 3306   4.799   5.693   7.893 -0.2514  0.2268  0.1923
  207loPI   C5A 3307   4.911   5.536   7.518  0.3380 -0.3712 -0.0023
  207loPI   C6A 3308   4.867   5.770   7.060 -0.0720 -0.0217 -0.0445
  207loPI   C1B 3309   5.086   6.655   8.519  0.0677 -0.0761  0.0502
  207loPI   C2B 3310   5.126   6.271   8.181 -0.2887 -0.3474 -0.0565
  207loPI   C3B 3311   5.173   5.960   7.910  0.0790 -0.1184  0.0078
  207loPI   C4B 3312   5.234   5.837   7.487 -0.0862  0.1778 -0.0149
  208loPI    C1 3313  18.097   0.766  10.374  0.2647 -0.1079 -0.0337
  208loPI    C2 3314  17.998   1.152  10.405  0.1502 -0.1490  0.1282
  208loPI    C3 3315  18.362   1.030  10.515  0.2897 -0.0421 -0.2018
  208loPI   PO4 3316  18.055   0.696  10.072  0.2673 -0.0116 -0.1148
  208loPI   GL1 3317  18.174   0.791   9.704 -0.1236  0.0520 -0.1504
  208loPI   GL2 3318  18.076   1.175   9.900 -0.2130  0.0110 -0.3626
  208loPI   C1A 3319  17.921   0.995   9.337 -0.0749 -0.0467  0.1965
  208loPI   C2A 3320  17.651   0.986   8.988 -0.0153  0.3301  0.0229
  208loPI   C3A 3321  17.560   1.093   8.572 -0.0793  0.0868 -0.0801
  208loPI   C4A 3322  17.621   1.322   8.253 -0.3087 -0.1024 -0.0743
  208loPI   C5A 3323  18.042   1.406   7.980 -0.5799  0.3206 -0.3151
  208loPI   C6A 3324  18.343   1.578   7.774 -0.5186  0.1564  0.0419
  208loPI   C1B 3325  18.102   1.475   9.532 -0.2876 -0.1348  0.1431
  208loPI   C2B 3326  18.239   1.350   9.197  0.1397 -0.0593  0.0996
  208loPI   C3B 3327  18.087   1.143   8.826  0.0046 -0.0390  0.0781
  208loPI   C4B 3328  18.081   1.150   8.415 -0.0140 -0.1517  0.1791
  209loPI    C1 3329   1.155   5.023  10.475  0.3078 -0.2169  0.1998
  209loPI    C2 3330   1.311   5.385  10.539  0.0623 -0.0817  0.0498
  209loPI    C3 3331   1.077   5.216  10.816  0.1292 -0.1006  0.0949
  209loPI   PO4 3332   1.055   5.084  10.175  0.1108  0.2622 -0.2499
  209loPI   GL1 3333   1.301   5.063   9.728  0.1033  0.1382 -0.0196
  209loPI   GL2 3334   0.895   5.184   9.738  0.1553  0.0154 -0.1575
  209loPI   C1A 3335   1.281   4.827   9.412  0.1842 -0.0673  0.0366
  209loPI   C2A 3336   1.308   4.878   8.919 -0.1122  0.1103 -0.0161
  209loPI   C3A 3337   1.246   4.958   8.519  0.0519 -0.0187 -0.1436
  209loPI   C4A 3338   1.229   4.936   8.019  0.1400  0.3107 -0.1925
  209loPI   C5A 3339   1.224   4.920   7.514 -0.2252  0.0479 -0.4096
  209loPI   C6A 3340   1.221   5.201   7.259 -0.4158 -0.0610 -0.3192
  209loPI   C1B 3341   1.022   5.264   9.354  0.2826 -0.0426  0.0247
  209loPI   C2B 3342   1.039   5.260   8.855  0.3586  0.1290 -0.0584
  209loPI   C3B 3343   0.887   5.260   8.356 -0.4251  0.0056  0.2280
  209loPI   C4B 3344   0.824   5.345   7.911  0.2564  0.0670 -0.1370
  210loPI    C1 3345  14.112  11.811  10.088 -0.0438 -0.1611 -0.0323
  210loPI    C2 3346  13.854  12.114  10.047  0.0624 -0.0644  0.0089
  210loPI    C3 3347  13.896  11.933  10.402  0.2144  0.0687  0.0602
  210loPI   PO4 3348  14.164  11.766   9.833  0.1081  0.2843 -0.2310
  210loPI   GL1 3349  14.416  11.765   9.479 -0.2009  0.1440 -0.1606
  210loPI   GL2 3350  14.461  11.471   9.522  0.1107  0.1902  0.1123
  210loPI   C1A 3351  14.073  11.928   9.142 -0.2042  0.1038  0.1731
  210loPI   C2A 3352  14.072  11.860   8.746 -0.0042 -0.3131  0.2722
  210loPI   C3A 3353  14.063  11.859   8.250 -0.2467  0.2468 -0.1307
  210loPI   C4A 3354  14.420  11.787   8.009  0.0818 -0.1189  0.0421
  210loPI   C5A 3355  14.679  11.815   7.744  0.0181  0.0853 -0.2099
  210loPI   C6A 3356  15.044  11.725   7.458 -0.2445 -0.0822  0.0252
  210loPI   C1B 3357  14.333  11.493   9.058  0.2242  0.3118 -0.0536
  210loPI   C2B 3358  14.334  11.552   8.574 -0.1756 -0.1078 -0.1613
  210loPI   C3B 3359  14.500  11.403   8.320  0.0220  0.1277 -0.2659
  210loPI   C4B 3360  14.720  11.401   7.972 -0.2593 -0.5914 -0.0977
  211loPI    C1 3361   7.156   6.961   9.764  0.1878  0.1570  0.0388
  211loPI    C2 3362   6.920   7.281   9.726 -0.1163 -0.0497  0.1477
  211loPI    C3 3363   7.193   7.268  10.017  0.2169  0.3010 -0.1376
  211loPI   PO4 3364   7.179   6.877   9.594  0.0462 -0.0522  0.2112
  211loPI   GL1 3365   7.438   6.601   9.312 -0.1566 -0.1035  0.0261
  211loPI   GL2 3366   7.612   6.920   9.300 -0.1549 -0.1709  0.0987
  211loPI   C1A 3367   7.386   6.523   8.908 -0.0332 -0.2673  0.2761
  211loPI   C2A 3368   7.321   6.367   8.564  0.1561 -0.3347 -0.0591
  211loPI   C3A 3369   7.210   6.280   8.195 -0.0207 -0.0807  0.0823
  211loPI   C4A 3370   6.915   6.383   7.845 -0.2459  0.1082 -0.0760
  211loPI   C5A 3371   6.678   6.382   7.420  0.0589 -0.3682 -0.0627
  211loPI   C6A 3372   6.509   6.592   7.144  0.2928 -0.1672  0.1385
  211loPI   C1B 3373   7.454   6.993   8.900 -0.0003 -0.1416  0.3110
  211loPI   C2B 3374   7.345   7.084   8.470  0.0978  0.1210  0.1950
  211loPI   C3B 3375   7.260   7.152   8.053  0.0954  0.0709 -0.1046
  211loPI   C4B 3376   7.025   7.418   7.764 -0.2310  0.0468  0.0996
  212loPI    C1 3377   3.658   8.206   9.759 -0.2875 -0.0812 -0.0201
  212loPI    C2 3378   3.487   8.226  10.120  0.0052  0.0627  0.1130
  212loPI    C3 3379   3.747   7.933  10.037  0.2028  0.2284  0.1383
  212loPI   PO4 3380   3.535   8.114   9.559 -0.0099  0.0947  0.2807
  212loPI   GL1 3381   3.486   7.998   9.148  0.0206  0.0259  0.2330
  212loPI   GL2 3382   3.750   7.838   9.133 -0.3734 -0.0761 -0.3862
  212loPI   C1A 3383   3.342   8.090   8.872 -0.0519 -0.0795 -0.0987
  212loPI   C2A 3384   3.366   8.274   8.470 -0.2564  0.0917 -0.0422
  212loPI   C3A 3385   3.347   8.402   8.151 -0.2478  0.0087  0.0717
  212loPI   C4A 3386   3.242   8.349   7.724  0.4012 -0.2915 -0.0344
  212loPI   C5A 3387   3.068   8.670   7.457 -0.0615 -0.0184 -0.0313
  212loPI   C6A 3388   2.840   8.992   7.240  0.0340  0.1342  0.0219
  212loPI   C1B 3389   3.978   7.751   8.845 -0.2771  0.1363 -0.1262
  212loPI   C2B 3390   3.994   7.571   8.379 -0.1880  0.1011 -0.2090
  212loPI   C3B 3391   4.211   7.672   7.985 -0.0941  0.0257 -0.5288
  212loPI   C4B 3392   3.975   7.788   7.613 -0.1435 -0.1948 -0.0027
  213loPI    C1 3393   5.171   0.310   9.909  0.0065 -0.1199  0.0350
  213loPI    C2 3394   4.805   0.223   9.774 -0.0196 -0.1384  0.1170
  213loPI    C3 3395   4.855   0.515  10.043  0.0843  0.2069 -0.2666
  213loPI   PO4 3396   5.259   0.079   9.994  0.0655  0.3475 -0.0871
  213loPI   GL1 3397   5.519  -0.145   9.642  0.0068 -0.0269  0.1915
  213loPI   GL2 3398   5.741  -0.230   9.705 -0.1106 -0.2748  0.0206
  213loPI   C1A 3399   5.379  -0.360   9.318  0.0281  0.0829  0.1372
  213loPI   C2A 3400   5.312  -0.269   8.799 -0.2562 -0.3252 -0.1757
  213loPI   C3A 3401   5.187  -0.142   8.427  0.1218 -0.2790 -0.1165
  213loPI   C4A 3402   4.966   0.048   8.010 -0.2054 -0.2281 -0.0464
  213loPI   C5A 3403   4.973   0.283   7.667  0.2019  0.0325 -0.1504
  213loPI   C6A 3404   5.107   0.775   7.661 -0.1490  0.2274 -0.0639
  213loPI   C1B 3405   5.844  -0.148   9.300  0.1221 -0.2024  0.0588
  213loPI   C2B 3406   5.950  -0.118   8.879 -0.3751  0.3464  0.2555
  213loPI   C3B 3407   5.834   0.009   8.449 -0.1341 -0.2127  0.0157
  213loPI   C4B 3408   5.448   0.179   8.143  0.1509 -0.2385 -0.0321
  214loPI    C1 3409   9.885  18.846  10.056 -0.1079 -0.0560 -0.0229
  214loPI    C2 3410   9.909  18.689  10.423 -0.0656 -0.0935 -0.0416
  214loPI    C3 3411   9.561  18.835  10.290 -0.0430  0.0687  0.0745
  214loPI   PO4 3412   9.950  18.684   9.944 -0.1019 -0.0205  0.0310
  214loPI   GL1 3413   9.903  18.328   9.579  0.1074  0.0835 -0.2185
  214loPI   GL2 3414   9.817  17.950   9.459  0.0531 -0.0102  0.1478
  214loPI   C1A 3415  10.071  18.465   9.201 -0.2847 -0.0343 -0.1345
  214loPI   C2A 3416  10.074  18.421   8.706  0.1759 -0.0911  0.0614
  214loPI   C3A 3417   9.884  18.424   8.226 -0.1592 -0.2493  0.1666
  214loPI   C4A 3418   9.792  18.274   7.848  0.0285 -0.0957  0.2289
  214loPI   C5A 3419   9.844  17.949   7.642 -0.1928 -0.0323  0.0238
  214loPI   C6A 3420   9.555  17.663   7.500 -0.1386  0.2297 -0.1926
  214loPI   C1B 3421   9.704  18.062   9.011  0.0477  0.0227 -0.0988
  214loPI   C2B 3422   9.669  18.162   8.574  0.0601 -0.1147  0.1667
  214loPI   C3B 3423   9.645  17.946   8.225 -0.1358  0.0015 -0.0417
  214loPI   C4B 3424   9.343  18.115   7.930  0.2833  0.0906  0.1623
  215loPI    C1 3425   0.264  16.536  10.736  0.0304 -0.0160 -0.0029
  215loPI    C2 3426   0.496  16.709  11.012 -0.0685 -0.1935  0.1948
  215loPI    C3 3427   0.191  16.476  11.125 -0.2233 -0.1212 -0.0642
  215loPI   PO4 3428   0.287  16.803  10.545  0.2487  0.0292 -0.1780
  215loPI   GL1 3429   0.245  17.179  10.214 -0.1503 -0.0367  0.4748
  215loPI   GL2 3430   0.148  17.351  10.011  0.1580  0.0120 -0.1281
  215loPI   C1A 3431   0.434  16.986   9.763 -0.0555  0.3274  0.0499
  215loPI   C2A 3432   0.531  16.872   9.375 -0.2733 -0.5086 -0.0687
  215loPI   C3A 3433   0.633  17.056   8.913 -0.1616 -0.0571 -0.0128
  215loPI   C4A 3434   0.760  17.226   8.578  0.1158  0.2069  0.0063
  215loPI   C5A 3435   0.874  17.495   8.216  0.1949  0.0207 -0.2910
  215loPI   C6A 3436   0.922  17.820   7.909 -0.0925  0.0591 -0.1393
  215loPI   C1B 3437   0.001  17.146   9.645 -0.0307 -0.0129 -0.1177
  215loPI   C2B 3438   0.009  16.810   9.429  0.0533 -0.1445  0.1579
  215loPI   C3B 3439   0.211  16.491   9.508  0.0002 -0.1038  0.1338
  215loPI   C4B 3440   0.687  16.368   9.537  0.0639  0.0337 -0.0477
  216loPI    C1 3441  11.898   4.026   9.684  0.1565 -0.0135  0.1885
  216loPI    C2 3442  11.693   3.910  10.008 -0.3136  0.1335 -0.0457
  216loPI    C3 3443  11.938   4.226  10.028 -0.0024 -0.1193  0.2698
  216loPI   PO4 3444  11.678   4.054   9.523 -0.2821 -0.3614 -0.0857
  216loPI   GL1 3445  11.864   4.176   9.159  0.0212 -0.0393 -0.2024
  216loPI   GL2 3446  12.163   4.103   9.196 -0.0163  0.2191 -0.2338
  216loPI   C1A 3447  11.746   4.296   8.771 -0.2113 -0.0728 -0.0097
  216loPI   C2A 3448  11.688   4.266   8.341  0.2029 -0.0877  0.0068
  216loPI   C3A 3449  11.762   4.109   7.875 -0.2572  0.0815 -0.0142
  216loPI   C4A 3450  11.632   3.999   7.388 -0.0884 -0.4076 -0.1328
  216loPI   C5A 3451  11.751   4.154   6.994 -0.2204  0.0354  0.0964
  216loPI   C6A 3452  11.928   4.265   6.562  0.1914  0.0722  0.4164
  216loPI   C1B 3453  12.250   4.051   8.757 -0.1982 -0.0448  0.0333
  216loPI   C2B 3454  12.204   4.158   8.334  0.3309 -0.0613 -0.0069
  216loPI   C3B 3455  12.206   4.394   7.959  0.0210 -0.1114  0.4790
  216loPI   C4B 3456  12.173   4.196   7.562  0.0097 -0.0426 -0.2396
  217loPI    C1 3457  18.409   8.358  10.647 -0.0119 -0.0313  0.0852
  217loPI    C2 3458  18.807   8.325  10.627 -0.0191 -0.0545 -0.0337
  217loPI    C3 3459  18.637   8.515  10.935  0.0801 -0.1075  0.0546
  217loPI   PO4 3460  18.307   8.462  10.430 -0.5231  0.1837 -0.2804
  217loPI   GL1 3461  18.073   8.425  10.017 -0.0930 -0.1162 -0.2714
  217loPI   GL2 3462  18.332   8.216   9.840 -0.1245  0.3208 -0.3011
  217loPI   C1A 3463  17.792   8.499   9.610 -0.3967  0.2550  0.2716
  217loPI   C2A 3464  17.669   8.562   9.146  0.3201  0.2844 -0.0045
  217loPI   C3A 3465  17.436   8.669   8.841  0.1468 -0.1567 -0.0409
  217loPI   C4A 3466  17.252   8.492   8.489  0.1414 -0.1827  0.3268
  217loPI   C5A 3467  17.241   8.360   8.145  0.2224  0.1851 -0.0919
  217loPI   C6A 3468  17.084   8.367   7.764  0.2263 -0.3887 -0.0759
  217loPI   C1B 3469  18.180   8.129   9.457 -0.2813 -0.4323  0.0640
  217loPI   C2B 3470  17.996   8.124   8.893 -0.0073  0.0987  0.2074
  217loPI   C3B 3471  18.199   8.318   8.464  0.1554 -0.2112  0.0148
  217loPI   C4B 3472  18.415   8.162   8.109 -0.3090  0.1002  0.0413
  218loPI    C1 3473  11.587   1.461   9.935 -0.0634 -0.0540 -0.1936
  218loPI    C2 3474  11.350   1.177  10.088 -0.0919  0.0846  0.0255
  218loPI    C3 3475  11.713   1.240  10.244  0.1256 -0.1753 -0.3546
  218loPI   PO4 3476  11.489   1.502   9.666 -0.0191 -0.2621  0.0105
  218loPI   GL1 3477  11.825   1.617   9.438 -0.1186 -0.4312 -0.1269
  218loPI   GL2 3478  12.120   1.451   9.532  0.0449 -0.1509  0.0534
  218loPI   C1A 3479  11.700   1.591   9.086  0.4471  0.1521 -0.1273
  218loPI   C2A 3480  11.765   1.505   8.695  0.2543  0.1310 -0.1821
  218loPI   C3A 3481  11.760   1.297   8.344  0.0239 -0.1655  0.1431
  218loPI   C4A 3482  11.748   1.053   7.965  0.4293  0.0409  0.2381
  218loPI   C5A 3483  11.692   0.851   7.514 -0.0437  0.1471  0.1457
  218loPI   C6A 3484  11.402   0.697   7.145 -0.0840  0.3200 -0.1047
  218loPI   C1B 3485  12.222   1.418   9.052  0.3240  0.1587 -0.1885
  218loPI   C2B 3486  12.304   1.232   8.592  0.0491  0.0454 -0.2550
  218loPI   C3B 3487  12.240   1.054   8.276  0.1383 -0.0228  0.0871
  218loPI   C4B 3488  12.204   0.858   7.845  0.2280  0.1163  0.0280
  219loPI    C1 3489  12.485  15.954   9.428  0.0337  0.0318 -0.1825
  219loPI    C2 3490  12.343  15.979   9.801  0.2666  0.0499 -0.0930
  219loPI    C3 3491  12.129  16.123   9.495  0.0132 -0.0870  0.0165
  219loPI   PO4 3492  12.703  16.076   9.398  0.0924 -0.0161 -0.0422
  219loPI   GL1 3493  12.877  16.064   8.951 -0.2533  0.2841 -0.0974
  219loPI   GL2 3494  12.604  16.119   8.837 -0.1404  0.1195 -0.2647
  219loPI   C1A 3495  12.968  15.738   8.606 -0.1332 -0.0964  0.1430
  219loPI   C2A 3496  12.746  15.526   8.287  0.0176 -0.0587  0.1557
  219loPI   C3A 3497  12.412  15.269   8.231  0.1737 -0.1737  0.1591
  219loPI   C4A 3498  12.467  15.076   7.752  0.1019 -0.1535 -0.2111
  219loPI   C5A 3499  12.699  14.980   7.467  0.1849 -0.2403 -0.0390
  219loPI   C6A 3500  12.651  14.702   7.114 -0.1702  0.3719  0.0291
  219loPI   C1B 3501  12.695  16.524   8.753 -0.2851 -0.1457  0.3116
  219loPI   C2B 3502  12.927  16.691   8.356  0.3063 -0.0763  0.2384
  219loPI   C3B 3503  13.147  16.640   8.083 -0.1136  0.3124  0.2417
  219loPI   C4B 3504  13.162  16.360   7.764  0.0873  0.1621  0.1403
  220loPI    C1 3505   4.778  13.380  10.504  0.2122  0.2128 -0.1373
  220loPI    C2 3506   5.029  13.171  10.734  0.1170 -0.0262 -0.2470
  220loPI    C3 3507   4.866  13.508  10.872  0.1885 -0.0798 -0.0269
  220loPI   PO4 3508   4.807  13.275  10.211  0.1520  0.2568 -0.3862
  220loPI   GL1 3509   4.463  13.221   9.916  0.0460  0.1042  0.1677
  220loPI   GL2 3510   4.273  12.980   9.884  0.1062 -0.3182  0.0218
  220loPI   C1A 3511   4.299  13.505   9.577 -0.2825 -0.0072 -0.3411
  220loPI   C2A 3512   4.589  13.633   9.232 -0.1972 -0.3088 -0.1581
  220loPI   C3A 3513   4.692  13.568   8.750 -0.2052 -0.0240 -0.1204
  220loPI   C4A 3514   4.681  13.389   8.300 -0.1504  0.2838 -0.1590
  220loPI   C5A 3515   4.544  12.993   8.140  0.2228  0.4802  0.0297
  220loPI   C6A 3516   4.211  12.804   8.072 -0.1715  0.1115 -0.0218
  220loPI   C1B 3517   4.171  13.080   9.442  0.0076 -0.2105  0.2500
  220loPI   C2B 3518   4.040  12.898   8.981 -0.2955  0.2178  0.1243
  220loPI   C3B 3519   4.135  12.942   8.529 -0.0003  0.0041 -0.1493
  220loPI   C4B 3520   4.135  13.306   8.230 -0.1493  0.1282 -0.2634
  221loPI    C1 3521  18.275  17.695  10.610 -0.1351  0.0849 -0.0401
  221loPI    C2 3522  18.420  18.015  10.800 -0.1034 -0.0305  0.1314
  221loPI    C3 3523  18.144  17.785  10.977 -0.0472 -0.1591  0.0531
  221loPI   PO4 3524  18.246  17.711  10.350  0.1143 -0.1031 -0.3526
  221loPI   GL1 3525  18.450  17.705   9.939  0.3627  0.0163  0.0796
  221loPI   GL2 3526  18.657  17.374   9.880  0.2894 -0.1813  0.0202
  221loPI   C1A 3527  18.332  17.713   9.531 -0.1636  0.0209  0.2347
  221loPI   C2A 3528  18.419  17.754   9.115  0.1025  0.1517 -0.2917
  221loPI   C3A 3529  18.449  17.967   8.705 -0.0457  0.1256  0.1363
  221loPI   C4A 3530  18.666  18.223   8.429  0.2150 -0.0873 -0.0651
  221loPI   C5A 3531  19.052  18.455   8.256 -0.0444 -0.0707  0.3297
  221loPI   C6A 3532  19.408  18.494   8.100 -0.2495  0.0055 -0.1287
  221loPI   C1B 3533  18.606  17.318   9.444 -0.1892 -0.1092 -0.4671
  221loPI   C2B 3534  18.751  17.112   9.089  0.0912  0.0782 -0.0847
  221loPI   C3B 3535  18.721  16.954   8.610  0.0477 -0.1828 -0.0160
  221loPI   C4B 3536  18.699  16.543   8.473  0.0929  0.2529  0.2592
  222loPI    C1 3537  18.725  18.593  10.747 -0.1133  0.0075  0.1373
  222loPI    C2 3538  18.621  18.976  10.797  0.0873  0.0736  0.0566
  222loPI    C3 3539  18.619  18.727  11.109 -0.1809  0.1046  0.0820
  222loPI   PO4 3540  18.720  18.611  10.466 -0.0886  0.1141  0.2342
  222loPI   GL1 3541  18.958  18.370  10.096  0.4914  0.1375 -0.0574
  222loPI   GL2 3542  19.020  18.718  10.059 -0.2069 -0.1477 -0.1246
  222loPI   C1A 3543  18.838  17.988   9.871 -0.2012  0.0382 -0.1508
  222loPI   C2A 3544  18.811  17.820   9.436 -0.1426 -0.0350  0.1997
  222loPI   C3A 3545  18.900  17.704   8.993  0.0717  0.1056  0.0083
  222loPI   C4A 3546  18.931  17.815   8.563 -0.2344  0.0334  0.0934
  222loPI   C5A 3547  18.953  17.899   8.165 -0.4276 -0.0640 -0.0943
  222loPI   C6A 3548  19.026  18.081   7.721 -0.2952 -0.2256 -0.4297
  222loPI   C1B 3549  18.785  18.607   9.622 -0.3082  0.0968 -0.0370
  222loPI   C2B 3550  18.801  18.642   9.116 -0.0257 -0.0557  0.2095
  222loPI   C3B 3551  18.804  18.703   8.599 -0.0203 -0.3627  0.0251
  222loPI   C4B 3552  18.611  18.697   8.244  0.0364 -0.1003  0.1814
  223loPI    C1 3553  10.204  12.560  10.154  0.1338 -0.0909  0.0114
  223loPI    C2 3554  10.165  12.911  10.343  0.1610  0.0009 -0.1513
  223loPI    C3 3555  10.104  12.569  10.541  0.1987  0.0952  0.0253
  223loPI   PO4 3556  10.201  12.684   9.845  0.0636 -0.1783 -0.1079
  223loPI   GL1 3557  10.306  12.398   9.475 -0.1368  0.1862 -0.0416
  223loPI   GL2 3558  10.607  12.505   9.440  0.1592 -0.0349 -0.3213
  223loPI   C1A 3559  10.406  12.156   9.107  0.0455  0.1775 -0.3610
  223loPI   C2A 3560  10.395  12.169   8.689  0.1305 -0.1592  0.0771
  223loPI   C3A 3561  10.406  12.051   8.378 -0.2552 -0.0547  0.1228
  223loPI   C4A 3562  10.417  11.802   8.008 -0.2864  0.0619 -0.1091
  223loPI   C5A 3563  10.513  11.790   7.643 -0.2338  0.0264 -0.1083
  223loPI   C6A 3564  10.397  11.481   7.331  0.0121  0.1494 -0.1037
  223loPI   C1B 3565  10.518  12.591   8.938 -0.1230  0.2613 -0.1240
  223loPI   C2B 3566  10.542  12.644   8.579  0.1208 -0.0946  0.2136
  223loPI   C3B 3567  10.468  12.517   8.201 -0.0461  0.0362  0.0338
  223loPI   C4B 3568  10.474  12.280   7.859  0.4062 -0.1942  0.2485
  224loPI    C1 3569   4.000   8.864  10.085  0.1740  0.0805  0.0203
  224loPI    C2 3570   4.275   8.575  10.115  0.1294 -0.0048 -0.3456
  224loPI    C3 3571   3.887   8.480  10.096  0.0863  0.1037 -0.0529
  224loPI   PO4 3572   4.117   9.049   9.889  0.4512 -0.2251  0.0665
  224loPI   GL1 3573   4.116   9.057   9.440  0.0833  0.1344  0.1538
  224loPI   GL2 3574   4.343   9.205   9.453  0.0432 -0.0141 -0.1974
  224loPI   C1A 3575   4.037   9.263   9.033  0.0279 -0.0289  0.2292
  224loPI   C2A 3576   4.160   9.252   8.608 -0.1478  0.1605 -0.0669
  224loPI   C3A 3577   4.035   9.056   8.317 -0.0609  0.0725 -0.1622
  224loPI   C4A 3578   3.851   9.100   7.877 -0.0340 -0.5022 -0.0864
  224loPI   C5A 3579   3.601   9.315   7.451 -0.2053 -0.2106  0.0527
  224loPI   C6A 3580   3.460   9.621   7.196  0.0623 -0.2340 -0.1503
  224loPI   C1B 3581   4.486   8.899   9.095  0.2650  0.0312 -0.2738
  224loPI   C2B 3582   4.605   9.063   8.722 -0.3050 -0.3082 -0.0128
  224loPI   C3B 3583   4.551   9.074   8.267  0.1461 -0.1269  0.0760
  224loPI   C4B 3584   4.354   8.934   7.834 -0.2356 -0.2042 -0.0956
  225loPI    C1 3585   3.660   0.001  10.303 -0.2209 -0.1917 -0.0028
  225loPI    C2 3586   3.340   0.194  10.446 -0.1880 -0.0839 -0.0732
  225loPI    C3 3587   3.461  -0.147  10.617 -0.0989  0.0862  0.2100
  225loPI   PO4 3588   3.639   0.060  10.060 -0.1924  0.1949 -0.0522
  225loPI   GL1 3589   3.709  -0.055   9.640  0.1635 -0.0628 -0.1025
  225loPI   GL2 3590   3.464  -0.144   9.626  0.1319  0.1628 -0.2396
  225loPI   C1A 3591   3.898   0.030   9.411 -0.4477 -0.1316  0.1730
  225loPI   C2A 3592   3.956   0.223   9.028  0.1280  0.0342 -0.0543
  225loPI   C3A 3593   3.912   0.508   8.681 -0.2529  0.1354  0.4334
  225loPI   C4A 3594   3.860   0.484   8.194  0.0394 -0.2514 -0.0135
  225loPI   C5A 3595   3.988   0.553   7.714 -0.0526 -0.1503 -0.0942
  225loPI   C6A 3596   4.027   0.402   7.257 -0.2009 -0.1346 -0.0145
  225loPI   C1B 3597   3.454  -0.105   9.108 -0.0730  0.0508 -0.1513
  225loPI   C2B 3598   3.518  -0.045   8.725 -0.1403 -0.2549  0.0966
  225loPI   C3B 3599   3.297  -0.331   8.420  0.3198  0.2071  0.1856
  225loPI   C4B 3600   3.210  -0.463   8.050  0.4027  0.2188  0.0028
  226loPI    C1 3601  18.683  11.767  10.237  0.0942 -0.3874  0.0038
  226loPI    C2 3602  18.856  11.553  10.528  0.1222 -0.1845  0.1386
  226loPI    C3 3603  18.622  11.863  10.621  0.0336 -0.1922 -0.0539
  226loPI   PO4 3604  18.628  11.727  10.046 -0.1204  0.3152  0.0297
  226loPI   GL1 3605  18.801  11.729   9.606 -0.2662 -0.1455 -0.4939
  226loPI   GL2 3606  18.821  11.425   9.641 -0.1859  0.1386  0.3121
  226loPI   C1A 3607  19.091  11.991   9.367 -0.1204 -0.1976 -0.1221
  226loPI   C2A 3608  19.367  12.338   9.284  0.0355 -0.0853  0.2346
  226loPI   C3A 3609  19.763  12.268   9.146  0.3387  0.0934 -0.1789
  226loPI   C4A 3610  19.939  12.398   8.785 -0.0006  0.0433  0.0629
  226loPI   C5A 3611  19.934  12.736   8.495  0.2689 -0.0690 -0.0570
  226loPI   C6A 3612  19.885  12.717   8.032 -0.4198  0.0003  0.1053
  226loPI   C1B 3613  18.634  11.520   9.236 -0.1869  0.2538  0.1733
  226loPI   C2B 3614  18.646  11.599   8.811  0.1526 -0.2667 -0.0473
  226loPI   C3B 3615  18.507  11.581   8.452  0.0623  0.2202  0.1190
  226loPI   C4B 3616  18.409  11.248   8.287  0.0570  0.1271 -0.0187
  227loPI    C1 3617  12.723   2.380   9.849 -0.0348 -0.0383 -0.0895
  227loPI    C2 3618  12.684   2.293  10.237 -0.1405  0.2024 -0.0438
  227loPI    C3 3619  12.788   2.662  10.125  0.0404  0.0941 -0.2408
  227loPI   PO4 3620  12.488   2.248   9.728 -0.1082  0.0269  0.0619
  227loPI   GL1 3621  12.486   2.032   9.319  0.2741  0.3508  0.1127
  227loPI   GL2 3622  12.183   1.865   9.166 -0.3488 -0.0512  0.1749
  227loPI   C1A 3623  12.656   1.968   8.952 -0.0210 -0.1658 -0.2266
  227loPI   C2A 3624  12.834   1.880   8.554  0.0299  0.0560 -0.0939
  227loPI   C3A 3625  12.993   1.877   8.108  0.0998 -0.0546 -0.0117
  227loPI   C4A 3626  12.799   2.093   7.696 -0.0441 -0.0712 -0.0406
  227loPI   C5A 3627  12.460   2.293   7.791 -0.1063 -0.0633 -0.0542
  227loPI   C6A 3628  12.081   2.427   7.611 -0.0670  0.0774  0.2253
  227loPI   C1B 3629  12.248   1.753   8.653 -0.1022  0.2499 -0.3531
  227loPI   C2B 3630  12.389   1.751   8.269  0.3509 -0.1754 -0.1591
  227loPI   C3B 3631  12.483   1.784   7.878  0.1192  0.0091 -0.0033
  227loPI   C4B 3632  12.461   1.754   7.358  0.1961  0.3424 -0.3697
  228loPI    C1 3633   9.573  17.136  10.398 -0.2805 -0.0725  0.2203
  228loPI    C2 3634   9.639  17.025  10.777  0.0046  0.0189  0.1998
  228loPI    C3 3635   9.785  17.373  10.642  0.1382 -0.1383 -0.0689
  228loPI   PO4 3636   9.398  16.918  10.246 -0.2190  0.3126 -0.0437
  228loPI   GL1 3637   9.474  16.714   9.794 -0.0404  0.3051  0.0227
  228loPI   GL2 3638   9.258  16.736   9.682 -0.3058  0.0656  0.0770
  228loPI   C1A 3639   9.614  17.084   9.493  0.3019  0.3984 -0.3799
  228loPI   C2A 3640   9.547  17.156   9.042 -0.0090  0.1841 -0.3968
  228loPI   C3A 3641   9.353  17.096   8.705 -0.2773 -0.0246  0.0223
  228loPI   C4A 3642   9.023  16.925   8.462 -0.3024 -0.0780 -0.1055
  228loPI   C5A 3643   8.904  16.731   8.086  0.2255 -0.0803  0.0194
  228loPI   C6A 3644   8.854  16.587   7.646  0.3476 -0.1290  0.1141
  228loPI   C1B 3645   8.906  16.582   9.640  0.3186 -0.1220  0.0794
  228loPI   C2B 3646   8.637  16.873   9.442 -0.0936 -0.1246  0.0546
  228loPI   C3B 3647   8.555  17.207   9.164 -0.4392 -0.1121  0.2363
  228loPI   C4B 3648   8.213  17.467   9.393 -0.0643 -0.0710 -0.1241
  229loPI    C1 3649   0.874  14.222  10.698 -0.0923  0.0544  0.0158
  229loPI    C2 3650   1.188  14.052  10.877 -0.0523  0.0399 -0.0677
  229loPI    C3 3651   1.086  14.428  10.967  0.0337  0.0700 -0.0948
  229loPI   PO4 3652   0.916  14.181  10.452  0.2508  0.1162 -0.2959
  229loPI   GL1 3653   0.972  14.127  10.058 -0.0249 -0.0376  0.0108
  229loPI   GL2 3654   1.279  14.231   9.918 -0.0630 -0.1650  0.2325
  229loPI   C1A 3655   0.967  13.847   9.697 -0.0870  0.0772 -0.1506
  229loPI   C2A 3656   1.052  13.630   9.336 -0.1520 -0.0845  0.2507
  229loPI   C3A 3657   0.711  13.350   9.077  0.0706 -0.0504 -0.1438
  229loPI   C4A 3658   0.732  12.984   8.902 -0.0444 -0.3916  0.3091
  229loPI   C5A 3659   0.467  12.605   8.783 -0.2030 -0.3729  0.5044
  229loPI   C6A 3660   0.158  12.264   8.807  0.1535 -0.0889  0.4085
  229loPI   C1B 3661   1.076  14.346   9.606  0.0341 -0.1819  0.4654
  229loPI   C2B 3662   0.765  14.333   9.307  0.0445  0.0752  0.0006
  229loPI   C3B 3663   0.902  14.252   8.820  0.2959 -0.1082  0.1511
  229loPI   C4B 3664   0.931  14.058   8.447 -0.2160 -0.1007 -0.3831
  230loPI    C1 3665  12.616   4.728   9.870  0.0111  0.1311  0.1250
  230loPI    C2 3666  12.341   4.908   9.642  0.0376 -0.2170 -0.1919
  230loPI    C3 3667  12.230   4.710   9.972 -0.0029  0.2726  0.0990
  230loPI   PO4 3668  12.828   4.668   9.715 -0.0774  0.0703  0.1307
  230loPI   GL1 3669  12.822   4.790   9.248  0.0910 -0.1368  0.0434
  230loPI   GL2 3670  12.636   4.991   9.249  0.2674 -0.0497  0.1362
  230loPI   C1A 3671  13.034   4.554   8.879  0.0415 -0.2957  0.0254
  230loPI   C2A 3672  12.845   4.533   8.420  0.3353 -0.2021  0.1246
  230loPI   C3A 3673  12.723   4.393   8.092 -0.1334  0.1852  0.5285
  230loPI   C4A 3674  12.546   4.482   7.637  0.0111 -0.0435  0.1191
  230loPI   C5A 3675  12.840   4.554   7.367 -0.2361  0.1596  0.0889
  230loPI   C6A 3676  13.295   4.633   7.335 -0.0671  0.1416  0.1927
  230loPI   C1B 3677  12.810   4.941   8.731  0.2238  0.3165  0.0797
  230loPI   C2B 3678  12.878   5.063   8.255 -0.0954  0.0697 -0.1061
  230loPI   C3B 3679  12.932   5.111   7.856  0.0564  0.3139 -0.3263
  230loPI   C4B 3680  12.784   5.024   7.393  0.1181  0.2238 -0.1054
  231loPI    C1 3681  18.076   2.467  10.444  0.2889  0.1528 -0.0875
  231loPI    C2 3682  18.301   2.365  10.759  0.1847 -0.1616 -0.1109
  231loPI    C3 3683  17.904   2.397  10.798  0.1956  0.0397 -0.1543
  231loPI   PO4 3684  18.198   2.709  10.309  0.2078 -0.0341  0.0970
  231loPI   GL1 3685  18.195   2.980   9.920  0.0814  0.3019  0.0581
  231loPI   GL2 3686  18.228   2.653   9.799 -0.1395 -0.0849  0.1109
  231loPI   C1A 3687  18.261   3.003   9.397 -0.0856  0.1243  0.4291
  231loPI   C2A 3688  18.441   2.910   9.068  0.0721  0.3081 -0.1555
  231loPI   C3A 3689  18.365   2.724   8.590  0.2798 -0.0956 -0.1205
  231loPI   C4A 3690  18.512   2.642   8.102 -0.1111  0.1482  0.1324
  231loPI   C5A 3691  18.749   2.935   7.771 -0.0959 -0.1339  0.2810
  231loPI   C6A 3692  19.081   3.290   7.861 -0.0865 -0.0164 -0.3509
  231loPI   C1B 3693  17.808   2.574   9.471 -0.0760 -0.2142  0.0488
  231loPI   C2B 3694  17.456   2.559   9.338  0.1626  0.2358 -0.0077
  231loPI   C3B 3695  17.478   2.388   8.965 -0.3429 -0.1003  0.2140
  231loPI   C4B 3696  17.388   2.264   8.534 -0.0718  0.0887 -0.0520
  232loPI    C1 3697  14.319  14.595   9.726 -0.1361 -0.0646  0.1650
  232loPI    C2 3698  14.703  14.654   9.822 -0.0518  0.1030 -0.2502
  232loPI    C3 3699  14.415  14.845  10.023  0.0896  0.1023 -0.0439
  232loPI   PO4 3700  14.382  14.520   9.504  0.0392 -0.0911  0.0274
  232loPI   GL1 3701  14.796  14.414   9.383 -0.0886 -0.2202 -0.1146
  232loPI   GL2 3702  14.793  14.777   9.317 -0.3513 -0.1265 -0.1087
  232loPI   C1A 3703  14.691  14.371   8.928 -0.2680  0.1447 -0.1683
  232loPI   C2A 3704  14.790  14.158   8.639  0.0190 -0.0033 -0.1042
  232loPI   C3A 3705  14.686  14.321   8.237 -0.1484 -0.2196  0.1809
  232loPI   C4A 3706  14.557  14.677   7.888  0.0625  0.0564 -0.1667
  232loPI   C5A 3707  14.436  14.889   7.567  0.2457 -0.1154 -0.2894
  232loPI   C6A 3708  14.708  14.997   7.267  0.3101  0.0306 -0.2609
  232loPI   C1B 3709  14.739  14.835   8.925  0.0115 -0.1438  0.0826
  232loPI   C2B 3710  14.681  14.825   8.559  0.1996 -0.1237 -0.0274
  232loPI   C3B 3711  14.714  15.136   8.280  0.1650  0.1144 -0.0973
  232loPI   C4B 3712  14.559  15.195   7.921 -0.2028 -0.2367  0.2006
  233loPI    C1 3713  15.153   2.823  10.136 -0.1167 -0.0940  0.0408
  233loPI    C2 3714  15.290   2.496  10.321  0.0771  0.1075  0.2603
  233loPI    C3 3715  15.227   2.832  10.529 -0.0780  0.2242  0.0288
  233loPI   PO4 3716  15.328   2.822   9.944 -0.1969 -0.0349  0.1543
  233loPI   GL1 3717  15.178   2.855   9.628  0.1575  0.0481  0.2711
  233loPI   GL2 3718  15.333   2.568   9.496 -0.0466 -0.1718 -0.1201
  233loPI   C1A 3719  15.157   2.947   9.204  0.0302  0.1113  0.0128
  233loPI   C2A 3720  15.226   2.909   8.802 -0.3955 -0.0208 -0.1687
  233loPI   C3A 3721  15.200   2.988   8.317  0.1759 -0.1077 -0.0105
  233loPI   C4A 3722  15.319   2.843   8.002  0.1313  0.2308 -0.0513
  233loPI   C5A 3723  15.174   2.711   7.690  0.1400 -0.1504 -0.1157
  233loPI   C6A 3724  14.926   2.531   7.371  0.0182  0.1182  0.0110
  233loPI   C1B 3725  15.199   2.469   9.025  0.1110 -0.0033  0.0545
  233loPI   C2B 3726  15.349   2.478   8.575 -0.0339 -0.0530  0.1111
  233loPI   C3B 3727  15.380   2.390   8.120 -0.1821  0.0807 -0.1900
  233loPI   C4B 3728  15.258   2.206   7.659  0.0624  0.0175  0.0487
  234loPI    C1 3729  17.188   1.000  10.025  0.0253 -0.1629 -0.0403
  234loPI    C2 3730  16.938   1.271  10.182  0.2069  0.0527 -0.1189
  234loPI    C3 3731  17.176   1.056  10.421  0.0221 -0.0789 -0.0520
  234loPI   PO4 3732  17.054   0.996   9.743  0.0761 -0.0438  0.0201
  234loPI   GL1 3733  17.240   0.817   9.374 -0.2253 -0.1072 -0.0611
  234loPI   GL2 3734  16.963   0.638   9.375  0.1191 -0.0020  0.0087
  234loPI   C1A 3735  17.176   0.838   8.991 -0.1338 -0.0675 -0.0230
  234loPI   C2A 3736  17.082   1.044   8.649  0.0983 -0.1368  0.0601
  234loPI   C3A 3737  17.113   1.314   8.391  0.0638 -0.1212 -0.0885
  234loPI   C4A 3738  17.227   1.500   8.004 -0.0354  0.1718 -0.0390
  234loPI   C5A 3739  17.340   1.514   7.555  0.0269  0.0622 -0.0426
  234loPI   C6A 3740  17.174   1.535   7.220  0.1708  0.2447 -0.0854
  234loPI   C1B 3741  16.630   0.351   9.151 -0.2089  0.0313 -0.3023
  234loPI   C2B 3742  16.393   0.340   8.839  0.3347 -0.0268 -0.1794
  234loPI   C3B 3743  16.353   0.405   8.502  0.1589 -0.1820 -0.0297
  234loPI   C4B 3744  16.541   0.334   8.235 -0.0812 -0.1415  0.3576
  235loPI    C1 3745   3.846  12.688  10.368  0.0411 -0.2553 -0.3579
  235loPI    C2 3746   4.043  12.367  10.502  0.2709  0.0381  0.0258
  235loPI    C3 3747   4.082  12.718  10.689 -0.1448  0.2442 -0.2597
  235loPI   PO4 3748   3.554  12.617  10.383 -0.0265 -0.2249 -0.0125
  235loPI   GL1 3749   3.352  12.536  10.075  0.1635 -0.3458 -0.2501
  235loPI   GL2 3750   3.463  12.324   9.738 -0.1083 -0.1133  0.2042
  235loPI   C1A 3751   3.202  12.718   9.700  0.0563 -0.0479 -0.1567
  235loPI   C2A 3752   3.148  12.633   9.314  0.0983  0.0049  0.2281
  235loPI   C3A 3753   3.083  12.759   8.925 -0.0182 -0.0802  0.0215
  235loPI   C4A 3754   3.089  12.674   8.594 -0.2023  0.0319 -0.0643
  235loPI   C5A 3755   3.227  12.757   8.219  0.1012  0.1276  0.0179
  235loPI   C6A 3756   3.071  12.534   7.828  0.2414  0.1008 -0.1037
  235loPI   C1B 3757   3.695  12.361   9.297 -0.0691  0.0628 -0.0475
  235loPI   C2B 3758   3.865  12.420   8.796 -0.3763  0.3381 -0.3452
  235loPI   C3B 3759   3.916  12.546   8.390 -0.1033  0.1082 -0.1270
  235loPI   C4B 3760   4.063  12.353   8.105 -0.1008  0.2517  0.1791
  236loPI    C1 3761   2.275   5.213   9.873  0.1218  0.0592  0.1781
  236loPI    C2 3762   2.320   5.595   9.984  0.0256  0.0666  0.1929
  236loPI    C3 3763   1.975   5.405  10.056  0.0297  0.0139  0.0761
  236loPI   PO4 3764   2.505   5.049   9.833  0.3310 -0.0817  0.2090
  236loPI   GL1 3765   2.445   5.042   9.432 -0.0518  0.0698  0.0945
  236loPI   GL2 3766   2.550   5.270   9.163  0.1927 -0.2978  0.1274
  236loPI   C1A 3767   2.638   4.733   9.070 -0.0436  0.3980 -0.1181
  236loPI   C2A 3768   2.673   4.745   8.584  0.4256 -0.0038 -0.0419
  236loPI   C3A 3769   2.553   4.815   8.189  0.0429 -0.2414 -0.0000
  236loPI   C4A 3770   2.660   4.857   7.874 -0.3683 -0.0409 -0.2431
  236loPI   C5A 3771   2.316   5.201   7.557 -0.0871  0.0308  0.0699
  236loPI   C6A 3772   2.221   5.498   7.232  0.0480 -0.2701  0.2775
  236loPI   C1B 3773   2.793   5.132   8.852  0.1951  0.0198 -0.2112
  236loPI   C2B 3774   2.689   5.327   8.450  0.2536  0.1398 -0.2181
  236loPI   C3B 3775   2.623   5.306   8.020  0.1432 -0.2130  0.0386
  236loPI   C4B 3776   2.811   5.233   7.552 -0.0257 -0.0728  0.1167
  237loPI    C1 3777   5.750  17.313   9.945 -0.1237  0.2654 -0.0660
  237loPI    C2 3778   5.976  17.073  10.171 -0.2391  0.1934 -0.0263
  237loPI    C3 3779   5.867  17.433  10.308 -0.0455  0.2796 -0.0958
  237loPI   PO4 3780   5.833  17.183   9.684  0.0152  0.0434  0.1833
  237loPI   GL1 3781   5.830  17.163   9.288  0.2988  0.3106 -0.2202
  237loPI   GL2 3782   6.085  17.184   9.177 -0.0140  0.1467  0.3312
  237loPI   C1A 3783   5.674  16.974   8.925 -0.2357  0.1181 -0.1917
  237loPI   C2A 3784   5.541  17.048   8.459  0.1828 -0.3992  0.1494
  237loPI   C3A 3785   5.589  17.052   8.135  0.5460 -0.1230  0.2940
  237loPI   C4A 3786   5.767  17.360   7.907  0.2186 -0.0648 -0.0596
  237loPI   C5A 3787   6.056  17.522   7.572  0.3585 -0.4186  0.0703
  237loPI   C6A 3788   6.491  17.671   7.403 -0.0704  0.0974 -0.1023
  237loPI   C1B 3789   5.931  17.425   8.759  0.0562 -0.0345 -0.0343
  237loPI   C2B 3790   5.777  17.553   8.435 -0.0507 -0.2231  0.0040
  237loPI   C3B 3791   5.618  17.774   8.125  0.1567  0.2131  0.1011
  237loPI   C4B 3792   5.611  17.784   7.633  0.1477 -0.4025  0.0317
  238loPI    C1 3793   0.303   0.862  10.097  0.2342  0.0087 -0.0124
  238loPI    C2 3794   0.595   1.026   9.880  0.1370  0.0397 -0.1211
  238loPI    C3 3795   0.600   1.057  10.279  0.1796  0.2075 -0.1339
  238loPI   PO4 3796   0.029   1.029  10.008 -0.0557  0.0582 -0.0515
  238loPI   GL1 3797  -0.125   0.816   9.643  0.2543 -0.2417  0.0729
  238loPI   GL2 3798   0.218   1.061   9.500  0.2546 -0.2399  0.1555
  238loPI   C1A 3799  -0.471   0.753   9.329  0.2117 -0.1617 -0.1354
  238loPI   C2A 3800  -0.505   0.438   8.981  0.1106  0.1481 -0.2270
  238loPI   C3A 3801  -0.258   0.331   8.723 -0.1585 -0.2009  0.0653
  238loPI   C4A 3802  -0.297   0.279   8.274  0.2127 -0.0054 -0.3021
  238loPI   C5A 3803  -0.432   0.179   7.935  0.0024  0.1699  0.1841
  238loPI   C6A 3804  -0.448   0.186   7.468 -0.1737 -0.0350 -0.0400
  238loPI   C1B 3805   0.070   0.919   9.045 -0.1404 -0.2255 -0.2652
  238loPI   C2B 3806  -0.067   0.798   8.667  0.0510  0.1017  0.0080
  238loPI   C3B 3807  -0.202   0.746   8.211 -0.0937 -0.0880  0.0624
  238loPI   C4B 3808  -0.216   0.698   7.831  0.1515 -0.1286  0.2033
  239loPI    C1 3809   1.283  17.555  10.317  0.1730  0.2335 -0.2842
  239loPI    C2 3810   1.056  17.734  10.593  0.2912  0.0797 -0.0842
  239loPI    C3 3811   1.354  17.935  10.420 -0.0895  0.3345 -0.4652
  239loPI   PO4 3812   1.165  17.531  10.137 -0.1839  0.0859  0.3932
  239loPI   GL1 3813   0.936  17.620   9.811  0.0283  0.0607  0.1081
  239loPI   GL2 3814   0.859  17.316   9.822 -0.1448  0.0926  0.2651
  239loPI   C1A 3815   1.086  17.635   9.376 -0.3143 -0.2700 -0.0091
  239loPI   C2A 3816   1.274  17.719   8.996  0.3620  0.1769 -0.0047
  239loPI   C3A 3817   1.411  17.731   8.622  0.0290  0.1207 -0.0777
  239loPI   C4A 3818   1.348  17.533   8.227  0.0114 -0.2305 -0.0854
  239loPI   C5A 3819   1.256  17.349   7.796 -0.1963  0.0552  0.3381
  239loPI   C6A 3820   1.435  17.274   7.404 -0.0307 -0.3093 -0.1067
  239loPI   C1B 3821   0.637  17.462   9.401  0.1867 -0.0215  0.0858
  239loPI   C2B 3822   0.788  17.547   9.020 -0.3127 -0.0455  0.0897
  239loPI   C3B 3823   0.935  17.803   8.646 -0.2468 -0.5138  0.0101
  239loPI   C4B 3824   0.903  18.011   8.345 -0.0174 -0.1155  0.1677
  240loPI    C1 3825   3.628   7.125   9.826 -0.2126 -0.3662  0.1525
  240loPI    C2 3826   3.702   7.421  10.084 -0.1604 -0.2615  0.0185
  240loPI    C3 3827   3.336   7.378   9.931 -0.1029 -0.0974 -0.1702
  240loPI   PO4 3828   3.877   7.190   9.587  0.0251 -0.1918 -0.2549
  240loPI   GL1 3829   3.926   6.990   9.124  0.2775  0.1420 -0.0342
  240loPI   GL2 3830   4.180   7.253   9.001  0.2108 -0.2271 -0.0042
  240loPI   C1A 3831   3.987   6.832   8.657  0.1040 -0.0739  0.0263
  240loPI   C2A 3832   4.151   6.671   8.227 -0.2075 -0.0462 -0.2985
  240loPI   C3A 3833   4.265   6.597   7.823 -0.1873 -0.5167 -0.2010
  240loPI   C4A 3834   4.198   6.782   7.416 -0.2707 -0.2813 -0.1319
  240loPI   C5A 3835   4.312   6.557   6.999  0.1553  0.1434 -0.3755
  240loPI   C6A 3836   4.689   6.605   6.818  0.1656  0.5244 -0.3153
  240loPI   C1B 3837   4.285   7.242   8.590 -0.2093 -0.0435 -0.2999
  240loPI   C2B 3838   4.383   7.223   8.177  0.1674 -0.1967 -0.0585
  240loPI   C3B 3839   4.102   7.122   7.787  0.0538  0.1654  0.1832
  240loPI   C4B 3840   4.147   7.346   7.435 -0.0074 -0.1504 -0.0326
  241loPI    C1 3841  13.234   2.281  10.217 -0.0320  0.0443 -0.0304
  241loPI    C2 3842  13.307   2.674  10.239  0.0420  0.0360 -0.1208
  241loPI    C3 3843  13.521   2.418  10.460 -0.0780  0.0548  0.0182
  241loPI   PO4 3844  13.169   2.224  10.000 -0.3214  0.1037 -0.0821
  241loPI   GL1 3845  13.393   2.047   9.628 -0.3124  0.2554  0.0667
  241loPI   GL2 3846  12.975   2.064   9.527  0.1159 -0.0996  0.2113
  241loPI   C1A 3847  13.354   2.224   9.339 -0.1723 -0.1416  0.1073
  241loPI   C2A 3848  13.117   2.152   8.944  0.0013  0.0398  0.1393
  241loPI   C3A 3849  13.303   2.155   8.477  0.0642 -0.2950 -0.1539
  241loPI   C4A 3850  13.495   2.197   8.115 -0.1332 -0.0501 -0.2317
  241loPI   C5A 3851  13.334   2.098   7.702  0.0467 -0.0805  0.0631
  241loPI   C6A 3852  13.185   1.918   7.404 -0.2343 -0.0802 -0.2562
  241loPI   C1B 3853  12.786   2.377   9.222 -0.0278 -0.2025  0.0942
  241loPI   C2B 3854  12.800   2.510   8.708  0.0763 -0.1006 -0.2094
  241loPI   C3B 3855  12.619   2.724   8.338  0.1372 -0.3063 -0.0498
  241loPI   C4B 3856  12.663   3.111   8.017  0.3554 -0.0210 -0.2892
  242loPI    C1 3857  13.619   8.432  10.049  0.0893  0.1034 -0.1479
  242loPI    C2 3858  13.322   8.447   9.781 -0.1254 -0.0026  0.0805
  242loPI    C3 3859  13.238   8.441  10.172  0.1689 -0.2717  0.1436
  242loPI   PO4 3860  13.763   8.663   9.989 -0.0116  0.0351 -0.1296
  242loPI   GL1 3861  13.768   8.853   9.605  0.2582 -0.5331 -0.2371
  242loPI   GL2 3862  13.483   8.890   9.492  0.1430  0.2577  0.1187
  242loPI   C1A 3863  13.842   9.138   9.221  0.2208 -0.0308  0.3426
  242loPI   C2A 3864  13.619   9.297   8.949  0.2042  0.0010  0.2782
  242loPI   C3A 3865  13.388   9.309   8.495  0.0696 -0.0430  0.2804
  242loPI   C4A 3866  13.563   9.406   8.148 -0.0406 -0.3521 -0.0224
  242loPI   C5A 3867  13.525   9.791   7.979  0.0514  0.0672 -0.0480
  242loPI   C6A 3868  13.250  10.220   8.072  0.1075  0.0633  0.2315
  242loPI   C1B 3869  13.549   8.798   8.988  0.0998  0.0757 -0.3937
  242loPI   C2B 3870  13.507   8.856   8.607  0.0289 -0.1403  0.0975
  242loPI   C3B 3871  13.511   8.784   8.158 -0.3109  0.2154 -0.0575
  242loPI   C4B 3872  13.321   8.854   7.797  0.1403  0.0548  0.1313
  243loPI    C1 3873   4.510   7.318   9.772 -0.1983  0.1679  0.1779
  243loPI    C2 3874   4.730   7.230  10.095 -0.0654  0.2640  0.1147
  243loPI    C3 3875   4.547   6.938   9.891 -0.1585  0.2039  0.2822
  243loPI   PO4 3876   4.633   7.369   9.579  0.1938 -0.0475  0.0471
  243loPI   GL1 3877   4.686   7.432   9.235 -0.4461  0.3740 -0.0258
  243loPI   GL2 3878   4.830   7.751   9.260 -0.1211 -0.3540  0.4022
  243loPI   C1A 3879   4.537   7.607   8.822 -0.0188 -0.1783  0.2737
  243loPI   C2A 3880   4.695   7.656   8.469  0.1013 -0.3128  0.0457
  243loPI   C3A 3881   4.873   7.523   8.133 -0.1850  0.2218 -0.0424
  243loPI   C4A 3882   5.044   7.283   7.862  0.3957 -0.0329 -0.1053
  243loPI   C5A 3883   5.157   7.175   7.398  0.1906  0.0074  0.0306
  243loPI   C6A 3884   5.342   7.416   7.128  0.3413  0.1845 -0.1565
  243loPI   C1B 3885   4.927   7.887   8.890 -0.0655 -0.3517  0.0462
  243loPI   C2B 3886   5.070   8.155   8.616  0.0743 -0.0029  0.0899
  243loPI   C3B 3887   5.135   8.192   8.170 -0.0409  0.1748  0.3521
  243loPI   C4B 3888   5.201   8.215   7.744 -0.0695 -0.0941  0.1851
  244loPI    C1 3889   2.764  10.355  10.181  0.0546  0.1607 -0.0596
  244loPI    C2 3890   2.805  10.139  10.516 -0.0990 -0.0294 -0.1611
  244loPI    C3 3891   2.763  10.537  10.537 -0.0490 -0.0342  0.0415
  244loPI   PO4 3892   2.865  10.205   9.991  0.1692 -0.0758 -0.2522
  244loPI   GL1 3893   2.993  10.255   9.656  0.0268 -0.0805  0.0739
  244loPI   GL2 3894   2.722  10.091   9.511 -0.0312 -0.0419  0.0405
  244loPI   C1A 3895   3.110  10.261   9.272  0.0249  0.0965  0.2036
  244loPI   C2A 3896   3.021  10.253   8.835 -0.2212  0.1191  0.0604
  244loPI   C3A 3897   2.952  10.265   8.447 -0.1325 -0.1509 -0.2027
  244loPI   C4A 3898   2.908  10.206   8.022 -0.1719  0.0976 -0.0202
  244loPI   C5A 3899   2.754  10.404   7.602 -0.1006 -0.1003 -0.1160
  244loPI   C6A 3900   2.827  10.866   7.492 -0.2351 -0.1476 -0.1099
  244loPI   C1B 3901   2.614   9.976   9.140 -0.3666 -0.1149 -0.2782
  244loPI   C2B 3902   2.577  10.106   8.733  0.2374  0.0453  0.3242
  244loPI   C3B 3903   2.387  10.009   8.304 -0.0537 -0.2599 -0.1131
  244loPI   C4B 3904   2.357  10.241   7.987  0.2326  0.1697  0.2479
  245loPI    C1 3905  11.550  14.688   9.821  0.2249 -0.0238  0.2093
  245loPI    C2 3906  11.927  14.791   9.736  0.1343  0.0498 -0.1179
  245loPI    C3 3907  11.763  14.902  10.083  0.3851  0.0890 -0.0097
  245loPI   PO4 3908  11.573  14.475   9.592  0.1025  0.4169  0.0995
  245loPI   GL1 3909  11.746  14.652   9.259 -0.0114 -0.1977  0.0701
  245loPI   GL2 3910  11.993  14.701   8.988 -0.1449  0.2280  0.1346
  245loPI   C1A 3911  11.499  14.872   8.900 -0.0219 -0.1890  0.2953
  245loPI   C2A 3912  11.381  15.016   8.534  0.1751 -0.0880  0.2150
  245loPI   C3A 3913  11.239  14.964   8.093  0.1178  0.1380  0.0015
  245loPI   C4A 3914  10.943  14.845   7.723 -0.0614 -0.0289 -0.0353
  245loPI   C5A 3915  10.603  14.987   7.469 -0.1124 -0.0668  0.3062
  245loPI   C6A 3916  10.237  15.151   7.595 -0.1624  0.0009 -0.0563
  245loPI   C1B 3917  11.819  14.611   8.572  0.0978  0.0697  0.1260
  245loPI   C2B 3918  11.800  14.604   8.181  0.3116  0.1751  0.0386
  245loPI   C3B 3919  11.587  14.870   7.769  0.0519  0.0248  0.2340
  245loPI   C4B 3920  11.371  15.007   7.396 -0.0694  0.1048  0.0380
  246loPI    C1 3921  16.822  12.153   9.693 -0.2867  0.1062 -0.0109
  246loPI    C2 3922  16.766  12.518   9.846 -0.2193  0.0686  0.1048
  246loPI    C3 3923  17.010  12.260  10.030  0.0000  0.0823 -0.1610
  246loPI   PO4 3924  16.619  12.076   9.578  0.1850 -0.0198  0.1386
  246loPI   GL1 3925  16.443  11.967   9.244 -0.0291 -0.0478  0.3638
  246loPI   GL2 3926  16.533  11.635   9.365 -0.2443 -0.0217 -0.0126
  246loPI   C1A 3927  16.398  11.919   8.709  0.1806 -0.1094 -0.1659
  246loPI   C2A 3928  16.555  11.717   8.361 -0.2209 -0.0208 -0.0826
  246loPI   C3A 3929  16.628  11.594   7.961 -0.2276 -0.1980 -0.1314
  246loPI   C4A 3930  16.473  11.146   7.742 -0.1774  0.0823  0.1956
  246loPI   C5A 3931  16.616  10.801   7.423  0.0562  0.0128  0.0908
  246loPI   C6A 3932  16.421  10.374   7.438  0.0303  0.1538 -0.0066
  246loPI   C1B 3933  16.680  11.476   8.995 -0.4473 -0.0656 -0.0171
  246loPI   C2B 3934  16.732  11.128   8.779  0.0346  0.0115  0.0066
  246loPI   C3B 3935  16.822  10.749   8.524  0.1539 -0.1113  0.4391
  246loPI   C4B 3936  17.063  10.521   8.217 -0.3070  0.1699  0.0457
  247loPI    C1 3937  13.941   6.494  10.185  0.3830 -0.2578  0.3238
  247loPI    C2 3938  14.076   6.824  10.367  0.1061  0.1122 -0.1202
  247loPI    C3 3939  14.330   6.588  10.169  0.2646  0.2121 -0.0379
  247loPI   PO4 3940  13.783   6.579  10.059 -0.3641  0.1450  0.1377
  247loPI   GL1 3941  13.837   6.631   9.656 -0.0079  0.1549  0.1827
  247loPI   GL2 3942  13.770   6.514   9.444 -0.0825  0.0359  0.1709
  247loPI   C1A 3943  14.110   6.847   9.405 -0.1546 -0.0937 -0.0061
  247loPI   C2A 3944  14.082   6.970   9.020 -0.0214  0.1792 -0.0419
  247loPI   C3A 3945  14.260   7.021   8.623 -0.1272 -0.4094  0.3561
  247loPI   C4A 3946  14.369   7.140   8.200 -0.0264 -0.1114 -0.0379
  247loPI   C5A 3947  14.165   7.190   7.826 -0.0703  0.0060  0.0944
  247loPI   C6A 3948  13.721   7.295   7.574 -0.3481  0.0985 -0.2222
  247loPI   C1B 3949  14.022   6.503   9.030  0.0800  0.0423  0.1091
  247loPI   C2B 3950  14.162   6.556   8.615  0.0605 -0.0189  0.2464
  247loPI   C3B 3951  14.312   6.375   8.183  0.0517  0.2369  0.0515
  247loPI   C4B 3952  14.647   6.198   7.973  0.2633 -0.1584  0.1291
  248loPI    C1 3953  13.599   7.020  10.014 -0.1282 -0.3311 -0.0065
  248loPI    C2 3954  13.583   6.929  10.403 -0.0246 -0.0205  0.0732
  248loPI    C3 3955  13.302   7.163  10.241 -0.1003 -0.1973 -0.0539
  248loPI   PO4 3956  13.874   7.087   9.928  0.0644 -0.0173  0.1021
  248loPI   GL1 3957  13.774   7.290   9.566  0.0133  0.1453 -0.2325
  248loPI   GL2 3958  13.794   7.535   9.709  0.0483 -0.0048  0.0039
  248loPI   C1A 3959  13.779   7.378   9.189 -0.1493 -0.2301  0.1516
  248loPI   C2A 3960  13.817   7.337   8.737  0.2693 -0.2897  0.0304
  248loPI   C3A 3961  13.911   7.468   8.271 -0.3895 -0.0424 -0.0616
  248loPI   C4A 3962  14.123   7.838   7.964  0.1365 -0.0424 -0.0302
  248loPI   C5A 3963  14.260   8.312   7.897 -0.0769  0.0380  0.0889
  248loPI   C6A 3964  14.266   8.666   8.101  0.1467  0.1593  0.4024
  248loPI   C1B 3965  14.109   7.725   9.552 -0.0526 -0.3189 -0.1190
  248loPI   C2B 3966  14.180   7.923   9.244  0.0798 -0.2165  0.0546
  248loPI   C3B 3967  14.266   8.136   8.812  0.0247  0.3454 -0.0527
  248loPI   C4B 3968  14.252   8.422   8.559 -0.1188  0.0834 -0.0099
  249loPI    C1 3969   2.645   5.993   9.511 -0.0180 -0.2558 -0.1872
  249loPI    C2 3970   2.775   5.776   9.821 -0.2297 -0.2059 -0.0614
  249loPI    C3 3971   2.533   5.610   9.549  0.0515 -0.2844 -0.2681
  249loPI   PO4 3972   2.895   5.995   9.368 -0.0963 -0.0920  0.4553
  249loPI   GL1 3973   2.950   5.869   9.028 -0.0580 -0.1458 -0.3520
  249loPI   GL2 3974   2.819   5.669   8.934 -0.0347  0.2210  0.2627
  249loPI   C1A 3975   3.242   5.873   8.654 -0.1006  0.3958 -0.1335
  249loPI   C2A 3976   3.343   6.011   8.268 -0.1076 -0.0397 -0.0900
  249loPI   C3A 3977   3.365   6.292   8.008 -0.0944 -0.1167  0.1654
  249loPI   C4A 3978   3.194   6.276   7.632  0.1120  0.2437  0.2707
  249loPI   C5A 3979   3.150   6.356   7.206  0.1211  0.2248 -0.3104
  249loPI   C6A 3980   2.941   6.483   6.883 -0.2627  0.0257 -0.0378
  249loPI   C1B 3981   2.594   6.009   8.609 -0.0629 -0.0359  0.1613
  249loPI   C2B 3982   2.430   6.114   8.290  0.0921  0.0137 -0.0115
  249loPI   C3B 3983   2.350   5.821   8.082  0.0668 -0.5433 -0.1070
  249loPI   C4B 3984   2.154   5.601   7.790  0.0434  0.2475  0.0982
  250loPI    C1 3985   1.405   8.199  10.181 -0.0694 -0.1036  0.2454
  250loPI    C2 3986   1.219   7.857  10.091 -0.2125  0.0077  0.1108
  250loPI    C3 3987   1.576   7.849  10.272 -0.1349 -0.2146 -0.0469
  250loPI   PO4 3988   1.399   8.342   9.934 -0.1992 -0.0996  0.1226
  250loPI   GL1 3989   1.568   8.325   9.506  0.0842  0.2579 -0.1442
  250loPI   GL2 3990   1.840   8.284   9.594 -0.0268  0.2587 -0.2750
  250loPI   C1A 3991   1.483   8.497   9.140 -0.0726  0.1942  0.1243
  250loPI   C2A 3992   1.404   8.654   8.718  0.0501 -0.1536 -0.0688
  250loPI   C3A 3993   1.546   8.937   8.346 -0.0853  0.0714 -0.0605
  250loPI   C4A 3994   1.488   9.091   7.949 -0.0139  0.0078 -0.0542
  250loPI   C5A 3995   1.208   8.878   7.579 -0.1674  0.0309  0.3083
  250loPI   C6A 3996   0.674   8.993   7.329 -0.1644 -0.2691 -0.0525
  250loPI   C1B 3997   2.004   8.534   9.206  0.2904 -0.2810 -0.0990
  250loPI   C2B 3998   1.906   8.645   8.770 -0.0452 -0.2168  0.4935
  250loPI   C3B 3999   1.785   8.508   8.401 -0.0383 -0.0473  0.1444
  250loPI   C4B 4000   1.728   8.635   7.950 -0.0556 -0.1474 -0.3782
  251loPI    C1 4001  13.786  17.036   9.946  0.0292  0.1724  0.0365
  251loPI    C2 4002  13.872  16.647   9.980  0.0345  0.1572 -0.1389
  251loPI    C3 4003  14.064  16.915  10.206 -0.0234  0.0520  0.0372
  251loPI   PO4 4004  13.783  17.049   9.680 -0.0156  0.2348 -0.0540
  251loPI   GL1 4005  13.862  17.349   9.449  0.2547  0.1141  0.2417
  251loPI   GL2 4006  13.892  17.079   9.164  0.0006 -0.0475 -0.0988
  251loPI   C1A 4007  13.705  17.515   8.962 -0.0466 -0.1949 -0.2617
  251loPI   C2A 4008  13.742  17.832   8.727 -0.0966 -0.3219  0.1226
  251loPI   C3A 4009  13.326  17.991   8.551  0.0677 -0.3692 -0.2224
  251loPI   C4A 4010  13.044  18.089   8.209  0.1389  0.2342  0.3347
  251loPI   C5A 4011  12.931  18.279   7.676  0.1513 -0.1026 -0.0238
  251loPI   C6A 4012  12.628  18.466   7.476 -0.0790  0.0734  0.1312
  251loPI   C1B 4013  13.456  17.108   8.964 -0.0722 -0.0849  0.2128
  251loPI   C2B 4014  13.282  17.028   8.608 -0.2770  0.2982 -0.1736
  251loPI   C3B 4015  13.406  17.081   8.240  0.0303  0.0451  0.0770
  251loPI   C4B 4016  13.538  17.287   7.815  0.2428 -0.0551  0.2317
  252loPI    C1 4017   5.055  10.810  10.570 -0.1514  0.0635  0.1393
  252loPI    C2 4018   5.250  10.504  10.738  0.1833  0.1464 -0.0878
  252loPI    C3 4019   5.187  10.840  10.946  0.0554  0.0265  0.0705
  252loPI   PO4 4020   5.059  10.672  10.229  0.0394  0.1037  0.0172
  252loPI   GL1 4021   4.893  10.889   9.819 -0.0165 -0.2949 -0.0134
  252loPI   GL2 4022   4.831  11.202   9.783  0.0090  0.0553 -0.0939
  252loPI   C1A 4023   4.894  10.904   9.292 -0.1865  0.2079  0.0051
  252loPI   C2A 4024   5.017  10.865   8.944 -0.0664 -0.0149 -0.0026
  252loPI   C3A 4025   4.951  11.075   8.555  0.0896  0.0374 -0.1264
  252loPI   C4A 4026   5.163  11.327   8.127 -0.1325 -0.0732 -0.2011
  252loPI   C5A 4027   5.170  11.664   7.959 -0.0050 -0.0464  0.1909
  252loPI   C6A 4028   4.958  12.115   7.867 -0.2675 -0.3092  0.1339
  252loPI   C1B 4029   4.804  11.457   9.355 -0.0616 -0.4396  0.2942
  252loPI   C2B 4030   4.766  11.438   8.890  0.2116  0.0389 -0.1039
  252loPI   C3B 4031   4.731  11.531   8.494  0.1685  0.0526  0.1671
  252loPI   C4B 4032   4.700  11.752   8.182 -0.3005  0.0259 -0.0453
  253loPI    C1 4033  15.153  10.356  10.248 -0.1966  0.1201  0.0643
  253loPI    C2 4034  15.475  10.201  10.428 -0.2548  0.0958  0.1481
  253loPI    C3 4035  15.391  10.590  10.468 -0.0617  0.1689 -0.1312
  253loPI   PO4 4036  15.179  10.239   9.950  0.3027 -0.1153 -0.1531
  253loPI   GL1 4037  15.088  10.350   9.432  0.0651  0.0977  0.3348
  253loPI   GL2 4038  14.769  10.466   9.476  0.0344 -0.2029  0.1087
  253loPI   C1A 4039  15.006  10.663   9.050  0.1418 -0.0411 -0.2478
  253loPI   C2A 4040  14.826  10.664   8.683  0.1188 -0.3474 -0.0825
  253loPI   C3A 4041  14.791  10.630   8.306 -0.1041  0.0411  0.2300
  253loPI   C4A 4042  14.755  10.414   7.808  0.3107 -0.1257 -0.2115
  253loPI   C5A 4043  14.426  10.360   7.547 -0.1305 -0.0259 -0.2181
  253loPI   C6A 4044  14.538  10.158   7.235 -0.0179  0.1343  0.1795
  253loPI   C1B 4045  14.458  10.661   9.160  0.0550  0.0228  0.0060
  253loPI   C2B 4046  14.395  10.379   8.860 -0.2273 -0.0740 -0.0804
  253loPI   C3B 4047  14.188  10.421   8.523  0.1596  0.1392 -0.1099
  253loPI   C4B 4048  14.287  10.329   8.089  0.1502 -0.0911  0.1779
  254loPI    C1 4049   3.026  14.982   9.935  0.0395  0.0816 -0.1413
  254loPI    C2 4050   2.910  15.209  10.243  0.2058 -0.1156  0.0690
  254loPI    C3 4051   3.242  14.987  10.271  0.2357 -0.1168 -0.2618
  254loPI   PO4 4052   2.966  15.094   9.691 -0.1512 -0.0095  0.0794
  254loPI   GL1 4053   2.656  14.825   9.448 -0.1482  0.0763  0.1713
  254loPI   GL2 4054   2.914  14.648   9.248  0.0887 -0.0797  0.0456
  254loPI   C1A 4055   2.672  15.164   9.071 -0.4826  0.3339  0.0305
  254loPI   C2A 4056   2.592  15.294   8.599 -0.0242 -0.1176  0.1578
  254loPI   C3A 4057   2.398  15.385   8.131 -0.2915 -0.2178  0.0851
  254loPI   C4A 4058   2.246  15.438   7.708  0.1126  0.3586 -0.1469
  254loPI   C5A 4059   2.114  15.366   7.241 -0.3398 -0.3178 -0.0143
  254loPI   C6A 4060   2.051  15.024   6.980  0.1486  0.1497  0.1615
  254loPI   C1B 4061   3.151  14.737   8.887  0.2248  0.0416 -0.0521
  254loPI   C2B 4062   3.073  14.599   8.417 -0.0012  0.2218 -0.0464
  254loPI   C3B 4063   3.131  14.337   8.123 -0.1371 -0.1438 -0.0446
  254loPI   C4B 4064   2.847  14.105   7.792  0.0335  0.1417  0.2318
  255loPI    C1 4065   2.539  16.658  10.049  0.3623  0.0136 -0.1861
  255loPI    C2 4066   2.584  16.499  10.413 -0.1344  0.2175 -0.0281
  255loPI    C3 4067   2.552  16.895  10.371 -0.0009  0.2006 -0.3039
  255loPI   PO4 4068   2.371  16.426   9.902  0.0286  0.2432  0.0443
  255loPI   GL1 4069   1.988  16.038   9.786 -0.0494  0.0058 -0.4856
  255loPI   GL2 4070   1.783  15.927   9.754  0.1309  0.0958 -0.1397
  255loPI   C1A 4071   1.875  16.327   9.460  0.0465  0.2874 -0.0236
  255loPI   C2A 4072   1.505  16.281   9.094  0.1577  0.1355  0.0270
  255loPI   C3A 4073   1.449  16.384   8.717  0.0863 -0.0729 -0.0573
  255loPI   C4A 4074   1.639  16.509   8.363 -0.3700  0.1894  0.0797
  255loPI   C5A 4075   1.363  16.433   8.037  0.2097 -0.1205 -0.2536
  255loPI   C6A 4076   1.242  16.464   7.653  0.0458 -0.0657 -0.0487
  255loPI   C1B 4077   1.867  15.813   9.232  0.0756  0.1230 -0.0523
  255loPI   C2B 4078   1.809  16.003   8.806 -0.0326 -0.4675  0.0471
  255loPI   C3B 4079   1.804  15.957   8.283  0.0735  0.2617 -0.1057
  255loPI   C4B 4080   1.881  15.678   7.997  0.2311 -0.3861 -0.2779
  256loPI    C1 4081  16.742  10.191  10.141 -0.1278  0.1036 -0.0589
  256loPI    C2 4082  17.117  10.115  10.021 -0.0682  0.2777  0.0155
  256loPI    C3 4083  16.958   9.907  10.324 -0.1754 -0.0765 -0.2778
  256loPI   PO4 4084  16.662  10.293   9.900 -0.0686 -0.0349 -0.1497
  256loPI   GL1 4085  16.550  10.439   9.400 -0.3120 -0.2410 -0.2995
  256loPI   GL2 4086  16.669  10.804   9.221  0.0624  0.0009 -0.1625
  256loPI   C1A 4087  16.833  10.335   9.027  0.0380  0.1898 -0.0775
  256loPI   C2A 4088  17.022  10.201   8.652 -0.0233  0.1264  0.1259
  256loPI   C3A 4089  16.918   9.984   8.235 -0.1418 -0.0797 -0.3421
  256loPI   C4A 4090  16.914   9.883   7.749  0.0701  0.1002 -0.0981
  256loPI   C5A 4091  16.565   9.638   7.474  0.1773  0.2278  0.2451
  256loPI   C6A 4092  16.175   9.351   7.434 -0.0255 -0.0825  0.0439
  256loPI   C1B 4093  16.380  10.684   8.963  0.0327  0.0210  0.2677
  256loPI   C2B 4094  16.359  10.819   8.510  0.0168  0.2924  0.0422
  256loPI   C3B 4095  16.292  10.823   8.090  0.1094  0.1737  0.1378
  256loPI   C4B 4096  16.092  10.756   7.658 -0.0248 -0.2681 -0.0711
  257loPI    C1 4097  10.664   3.152   9.982 -0.0667  0.2468  0.1423
  257loPI    C2 4098  10.687   2.968  10.336  0.1839  0.1182  0.0617
  257loPI    C3 4099  10.604   2.757  10.007  0.1319  0.2073  0.0174
  257loPI   PO4 4100  10.875   3.304  10.000 -0.1554 -0.0739  0.0249
  257loPI   GL1 4101  11.156   3.404   9.620 -0.3640 -0.0431  0.0533
  257loPI   GL2 4102  11.590   3.412   9.527 -0.1406  0.1058 -0.0071
  257loPI   C1A 4103  11.220   3.239   9.244 -0.2882  0.1990 -0.0724
  257loPI   C2A 4104  11.234   3.137   8.752  0.1553 -0.0217  0.0833
  257loPI   C3A 4105  11.267   2.911   8.334  0.4495  0.3208 -0.0428
  257loPI   C4A 4106  11.275   2.686   7.997 -0.2269 -0.1351  0.2648
  257loPI   C5A 4107  11.126   2.467   7.654  0.0865 -0.1238 -0.0540
  257loPI   C6A 4108  11.088   2.614   7.309  0.0843 -0.0785 -0.0826
  257loPI   C1B 4109  11.677   3.089   9.130  0.3257  0.1627  0.0687
  257loPI   C2B 4110  11.674   2.938   8.774 -0.4785  0.3276  0.1501
  257loPI   C3B 4111  11.787   2.883   8.326 -0.0277  0.3356 -0.1688
  257loPI   C4B 4112  11.786   2.731   7.859  0.0420 -0.2655 -0.0438
  258loPI    C1 4113   9.092   7.580   9.438  0.0601  0.0510 -0.1711
  258loPI    C2 4114   8.843   7.366   9.668  0.1436 -0.1168 -0.2357
  258loPI    C3 4115   9.023   7.691   9.816 -0.0514 -0.0404 -0.1640
  258loPI   PO4 4116   9.269   7.326   9.374 -0.2602  0.0212 -0.1266
  258loPI   GL1 4117   9.248   7.349   8.977  0.1508 -0.1557 -0.0095
  258loPI   GL2 4118   9.434   7.655   9.007  0.1406 -0.2081  0.1280
  258loPI   C1A 4119   9.556   7.273   8.630  0.1757  0.0469 -0.0962
  258loPI   C2A 4120   9.763   7.286   8.215 -0.1309 -0.1152  0.0123
  258loPI   C3A 4121   9.736   6.922   7.923  0.2181  0.2708 -0.1323
  258loPI   C4A 4122   9.593   6.543   7.804  0.0797 -0.1814  0.1145
  258loPI   C5A 4123   9.610   6.219   8.091  0.0223 -0.2343 -0.2536
  258loPI   C6A 4124   9.571   5.819   8.287  0.2557  0.0248 -0.3653
  258loPI   C1B 4125   9.280   7.723   8.616 -0.0082  0.2315 -0.3344
  258loPI   C2B 4126   9.354   7.593   8.324  0.0089 -0.2330  0.0627
  258loPI   C3B 4127   9.102   7.572   7.934 -0.0776 -0.2593 -0.0028
  258loPI   C4B 4128   9.000   7.536   7.562 -0.0591  0.3030 -0.0137
  259loPI    C1 4129   7.109  13.167  10.163  0.0358 -0.0245  0.1871
  259loPI    C2 4130   7.255  13.386   9.862 -0.0452 -0.3167 -0.0698
  259loPI    C3 4131   7.356  13.472  10.240 -0.0030  0.1010 -0.1713
  259loPI   PO4 4132   7.028  12.917   9.989  0.0218 -0.1652  0.2122
  259loPI   GL1 4133   7.182  12.804   9.500  0.1738  0.0835 -0.1311
  259loPI   GL2 4134   6.944  13.005   9.347 -0.2565 -0.0251  0.0783
  259loPI   C1A 4135   7.398  12.531   9.231 -0.3236 -0.0883  0.1753
  259loPI   C2A 4136   7.607  12.465   8.806 -0.3194  0.0226  0.1757
  259loPI   C3A 4137   7.796  12.379   8.334  0.0217 -0.0268  0.0539
  259loPI   C4A 4138   8.023  12.427   7.975 -0.1859 -0.0130  0.1348
  259loPI   C5A 4139   8.059  12.630   7.638  0.2801  0.0719 -0.1037
  259loPI   C6A 4140   8.250  12.961   7.503 -0.1134  0.0452  0.3449
  259loPI   C1B 4141   6.929  13.251   9.102  0.3558  0.1683 -0.0897
  259loPI   C2B 4142   7.161  13.430   8.815  0.3710  0.3006  0.1333
  259loPI   C3B 4143   7.366  13.576   8.516  0.0708 -0.1109  0.0078
  259loPI   C4B 4144   7.269  13.775   8.116 -0.0629 -0.1766  0.0988
  260loPI    C1 4145   9.334   1.987   9.937  0.2828  0.0567  0.0161
  260loPI    C2 4146   9.549   2.250  10.147  0.0546  0.0943  0.2070
  260loPI    C3 4147   9.223   2.085  10.308 -0.0091 -0.0310 -0.0454
  260loPI   PO4 4148   9.285   2.069   9.663 -0.0212  0.1583  0.1719
  260loPI   GL1 4149   9.453   2.076   9.298  0.0763 -0.0500  0.1116
  260loPI   GL2 4150   9.160   1.969   9.219 -0.4712 -0.0120 -0.0550
  260loPI   C1A 4151   9.537   2.338   9.002 -0.0276 -0.0327 -0.0648
  260loPI   C2A 4152   9.548   2.372   8.552  0.1997 -0.0381 -0.2583
  260loPI   C3A 4153   9.695   2.430   8.194 -0.1311 -0.1173  0.0981
  260loPI   C4A 4154   9.835   2.324   7.803  0.0776  0.1816  0.1925
  260loPI   C5A 4155  10.171   2.402   7.615 -0.1426 -0.2236 -0.1088
  260loPI   C6A 4156  10.552   2.452   7.395 -0.0458 -0.0273 -0.1903
  260loPI   C1B 4157   9.369   1.932   8.819 -0.4304 -0.2679  0.3636
  260loPI   C2B 4158   9.250   1.987   8.409 -0.0846 -0.1983 -0.0072
  260loPI   C3B 4159   9.089   1.827   8.091 -0.1797  0.1330  0.3045
  260loPI   C4B 4160   8.812   1.729   7.811  0.2362  0.1736  0.1544
  261loPI    C1 4161  12.818   6.948  10.045 -0.3646  0.0596 -0.0366
  261loPI    C2 4162  12.666   6.629   9.857 -0.0380  0.0012 -0.2088
  261loPI    C3 4163  12.813   6.592  10.227 -0.0785 -0.0285 -0.1955
  261loPI   PO4 4164  13.012   7.148   9.819  0.0219 -0.2480  0.0275
  261loPI   GL1 4165  13.276   7.194   9.470 -0.2563 -0.2071 -0.3227
  261loPI   GL2 4166  13.438   6.915   9.595  0.1480  0.0512 -0.1642
  261loPI   C1A 4167  12.936   7.530   9.254  0.1708 -0.2969  0.0146
  261loPI   C2A 4168  12.935   7.605   8.863  0.0289  0.3051 -0.0558
  261loPI   C3A 4169  12.975   7.458   8.420  0.1042  0.2244  0.0618
  261loPI   C4A 4170  13.129   7.222   8.034  0.1622 -0.1792  0.1101
  261loPI   C5A 4171  13.135   6.930   7.815 -0.0232  0.0532  0.2869
  261loPI   C6A 4172  13.306   6.937   7.390 -0.1215 -0.0542 -0.1924
  261loPI   C1B 4173  13.651   6.938   9.223  0.0224 -0.2775 -0.2538
  261loPI   C2B 4174  13.548   6.885   8.880  0.0661  0.1172  0.3591
  261loPI   C3B 4175  13.798   6.901   8.523 -0.2549  0.0971 -0.4194
  261loPI   C4B 4176  13.948   6.882   8.213  0.0413  0.0065  0.4085
  262loPI    C1 4177   0.418  14.309  10.814  0.0497 -0.1120 -0.1147
  262loPI    C2 4178   0.283  14.140  11.151 -0.2476  0.0933 -0.1268
  262loPI    C3 4179   0.581  14.407  11.166 -0.1083 -0.0647 -0.0537
  262loPI   PO4 4180   0.364  14.207  10.622  0.2284  0.1543 -0.0657
  262loPI   GL1 4181   0.505  14.303  10.216  0.1914  0.0932  0.1788
  262loPI   GL2 4182   0.190  14.408  10.118 -0.2182  0.0769 -0.0061
  262loPI   C1A 4183   0.539  14.189   9.811 -0.0980 -0.2753  0.1538
  262loPI   C2A 4184   0.320  14.192   9.385 -0.0382 -0.0236  0.1329
  262loPI   C3A 4185   0.400  14.351   9.005  0.2626 -0.0181 -0.0456
  262loPI   C4A 4186   0.363  14.189   8.619  0.3510 -0.0970 -0.1183
  262loPI   C5A 4187   0.404  14.067   8.251  0.1068  0.0471  0.0232
  262loPI   C6A 4188   0.732  14.166   7.953  0.1787  0.2620 -0.0004
  262loPI   C1B 4189   0.210  14.602   9.669 -0.2097  0.1573 -0.0996
  262loPI   C2B 4190   0.370  14.726   9.308  0.1662  0.2000  0.0463
  262loPI   C3B 4191   0.243  14.784   8.865 -0.0240 -0.0416  0.1052
  262loPI   C4B 4192   0.214  14.599   8.334 -0.0208 -0.2240 -0.1794
  263loPI    C1 4193   8.359  12.401  10.186  0.1106  0.1237  0.1639
  263loPI    C2 4194   8.247  12.548  10.541 -0.0857 -0.2027  0.2414
  263loPI    C3 4195   8.422  12.188  10.519 -0.1306 -0.2117  0.0010
  263loPI   PO4 4196   8.210  12.469  10.040 -0.0875 -0.0821  0.1212
  263loPI   GL1 4197   8.151  12.522   9.635 -0.0134  0.1681  0.2898
  263loPI   GL2 4198   7.799  12.574   9.629 -0.1034  0.0806 -0.2681
  263loPI   C1A 4199   8.536  12.607   9.418  0.2410 -0.3007  0.1328
  263loPI   C2A 4200   8.499  12.634   8.962 -0.3016 -0.2739 -0.0300
  263loPI   C3A 4201   8.532  12.858   8.694  0.0317  0.3887 -0.0785
  263loPI   C4A 4202   8.628  13.124   8.322  0.1346 -0.1283  0.0109
  263loPI   C5A 4203   8.638  13.229   7.853  0.2659  0.0105  0.0165
  263loPI   C6A 4204   8.270  13.515   7.704  0.0247  0.1283 -0.1125
  263loPI   C1B 4205   7.937  12.689   9.195 -0.2842 -0.1095 -0.1314
  263loPI   C2B 4206   8.061  12.947   8.850  0.0237  0.1929  0.1527
  263loPI   C3B 4207   8.141  12.856   8.446 -0.2293 -0.0892 -0.1106
  263loPI   C4B 4208   8.117  13.026   7.951 -0.1752  0.3770  0.3336
  264loPI    C1 4209   1.652   4.259  10.358 -0.0741 -0.0833  0.0678
  264loPI    C2 4210   1.621   3.984  10.648  0.0713  0.0258  0.1885
  264loPI    C3 4211   1.514   4.363  10.719  0.0182  0.0336  0.0699
  264loPI   PO4 4212   1.414   4.270  10.130  0.0849 -0.2203 -0.3530
  264loPI   GL1 4213   1.507   4.465   9.754 -0.2342  0.0013 -0.4858
  264loPI   GL2 4214   1.734   4.630   9.544 -0.2079 -0.2478  0.5024
  264loPI   C1A 4215   1.178   4.291   9.491 -0.0117  0.0785  0.0463
  264loPI   C2A 4216   1.159   4.364   9.004  0.0779  0.5388 -0.0056
  264loPI   C3A 4217   1.046   4.451   8.571  0.0350 -0.0164  0.0852
  264loPI   C4A 4218   0.836   4.767   8.280 -0.0101 -0.0190  0.0291
  264loPI   C5A 4219   0.760   4.839   7.823 -0.1556  0.2033 -0.0318
  264loPI   C6A 4220   0.767   5.118   7.444  0.2834 -0.1834 -0.1756
  264loPI   C1B 4221   1.641   4.563   9.115 -0.1272 -0.1033 -0.1654
  264loPI   C2B 4222   1.578   4.567   8.709 -0.1381  0.0300  0.1436
  264loPI   C3B 4223   1.476   4.544   8.230  0.2115  0.1617  0.0226
  264loPI   C4B 4224   1.456   4.533   7.743 -0.0233  0.0205  0.0630
  265loPI    C1 4225  16.408  12.596   9.551  0.1198  0.0363 -0.1007
  265loPI    C2 4226  16.284  12.476   9.911  0.1189 -0.0113 -0.1167
  265loPI    C3 4227  16.089  12.357   9.583 -0.0768  0.2920 -0.1146
  265loPI   PO4 4228  16.492  12.764   9.536  0.1910 -0.2953  0.0049
  265loPI   GL1 4229  16.769  12.980   9.253  0.1492 -0.0158  0.1298
  265loPI   GL2 4230  16.837  12.840   8.994  0.2122 -0.1571 -0.1200
  265loPI   C1A 4231  16.604  13.267   8.891 -0.0008  0.1070 -0.3547
  265loPI   C2A 4232  16.643  13.304   8.370  0.3269  0.0697  0.0682
  265loPI   C3A 4233  16.670  13.327   7.924 -0.1699 -0.0148  0.1823
  265loPI   C4A 4234  16.709  13.615   7.686 -0.2763 -0.2680  0.1071
  265loPI   C5A 4235  16.907  13.548   7.298  0.0501 -0.0947 -0.3252
  265loPI   C6A 4236  16.849  13.669   6.970  0.0151 -0.0624  0.3737
  265loPI   C1B 4237  16.876  12.778   8.609  0.0566  0.1247  0.0032
  265loPI   C2B 4238  16.865  12.915   8.174 -0.0592  0.1034 -0.0649
  265loPI   C3B 4239  16.957  12.926   7.726 -0.0303  0.0216  0.1543
  265loPI   C4B 4240  17.086  13.076   7.306 -0.0897  0.1640 -0.1767
  266loPI    C1 4241   7.255  17.557   9.848 -0.1168  0.0716  0.0597
  266loPI    C2 4242   7.198  17.164   9.897 -0.1561  0.0423 -0.2069
  266loPI    C3 4243   6.979  17.426  10.106 -0.0119 -0.0759  0.0985
  266loPI   PO4 4244   7.262  17.548   9.571  0.0205  0.0253  0.0088
  266loPI   GL1 4245   7.542  17.699   9.225  0.3763  0.1142  0.0952
  266loPI   GL2 4246   7.652  17.392   9.256  0.1135 -0.0835 -0.4270
  266loPI   C1A 4247   7.506  17.613   8.800 -0.0938  0.0447 -0.0426
  266loPI   C2A 4248   7.256  17.524   8.338 -0.2296 -0.0298 -0.1615
  266loPI   C3A 4249   7.410  17.428   7.925 -0.0973  0.1633  0.1117
  266loPI   C4A 4250   7.352  17.354   7.525  0.2543 -0.0361  0.0755
  266loPI   C5A 4251   7.571  17.395   7.085 -0.2432 -0.0816 -0.1885
  266loPI   C6A 4252   7.417  17.552   6.705  0.2087  0.1438  0.1359
  266loPI   C1B 4253   7.898  17.309   8.808 -0.2206 -0.3032  0.0594
  266loPI   C2B 4254   7.752  17.402   8.383  0.2740 -0.1064 -0.0028
  266loPI   C3B 4255   7.916  17.291   7.995  0.1468  0.3668 -0.2010
  266loPI   C4B 4256   8.079  17.386   7.670  0.3426  0.5973 -0.0721
  267loPI    C1 4257   9.593  18.387  10.111 -0.1207 -0.1315 -0.1372
  267loPI    C2 4258   9.273  18.401  10.351  0.0282 -0.0151  0.0581
  267loPI    C3 4259   9.512  18.080  10.353  0.1094  0.0452  0.1727
  267loPI   PO4 4260   9.470  18.447   9.837  0.1146 -0.1058 -0.1157
  267loPI   GL1 4261   9.384  18.593   9.419  0.1342 -0.2213 -0.0071
  267loPI   GL2 4262   9.082  18.471   9.415  0.1102 -0.3536 -0.1710
  267loPI   C1A 4263   9.610  18.539   8.939  0.0609 -0.0108  0.0322
  267loPI   C2A 4264   9.690  18.688   8.629 -0.0077  0.0528 -0.1042
  267loPI   C3A 4265   9.690  18.953   8.282  0.1068 -0.0008  0.0394
  267loPI   C4A 4266   9.734  18.969   7.831 -0.0977 -0.1416 -0.0235
  267loPI   C5A 4267   9.682  18.828   7.466  0.2354  0.2067  0.1384
  267loPI   C6A 4268   9.957  18.921   7.192  0.0465 -0.4373  0.1057
  267loPI   C1B 4269   8.990  18.652   8.993  0.1727  0.1234 -0.0874
  267loPI   C2B 4270   9.195  18.532   8.599  0.1438 -0.1014 -0.1896
  267loPI   C3B 4271   9.334  18.474   8.291  0.2541 -0.0731  0.0050
  267loPI   C4B 4272   9.233  18.652   7.914  0.1258 -0.1982  0.0664
  268loPI    C1 4273  10.354  10.110   9.963 -0.1212 -0.3091  0.0554
  268loPI    C2 4274  10.213   9.856  10.238  0.0558 -0.1887  0.2609
  268loPI    C3 4275  10.356  10.212  10.350  0.2427 -0.1867  0.0247
  268loPI   PO4 4276  10.204  10.199   9.798 -0.0056 -0.5024 -0.0348
  268loPI   GL1 4277  10.356  10.329   9.379  0.3030  0.1852  0.4918
  268loPI   GL2 4278  10.528  10.090   9.178 -0.1667  0.2472  0.1187
  268loPI   C1A 4279  10.213  10.675   9.027 -0.0072  0.0758  0.2992
  268loPI   C2A 4280  10.263  10.810   8.659 -0.0699 -0.0786  0.0166
  268loPI   C3A 4281  10.436  11.003   8.254 -0.0556 -0.2993 -0.0211
  268loPI   C4A 4282  10.447  10.875   7.818 -0.0554 -0.2973 -0.0178
  268loPI   C5A 4283  10.188  11.018   7.458  0.2588  0.0221  0.3267
  268loPI   C6A 4284   9.881  11.241   7.397  0.1759 -0.0032  0.1998
  268loPI   C1B 4285  10.452   9.789   8.754 -0.3083 -0.0829  0.0483
  268loPI   C2B 4286  10.236   9.840   8.418  0.0156 -0.4526  0.1117
  268loPI   C3B 4287  10.089  10.050   8.019  0.1406  0.4117  0.1251
  268loPI   C4B 4288  10.085  10.027   7.502  0.0284 -0.0678 -0.0347
  269loPI    C1 4289   4.362   3.404   9.737  0.1406  0.1877  0.0896
  269loPI    C2 4290   4.365   3.599  10.086  0.2091  0.3715 -0.0125
  269loPI    C3 4291   4.065   3.656   9.828 -0.0200 -0.0232  0.1578
  269loPI   PO4 4292   4.553   3.457   9.597  0.1950 -0.1260 -0.2128
  269loPI   GL1 4293   4.960   3.171   9.408  0.1783  0.0988 -0.0931
  269loPI   GL2 4294   4.741   3.224   9.218  0.0548  0.0601 -0.0826
  269loPI   C1A 4295   5.148   3.056   8.948 -0.0436 -0.1495 -0.0598
  269loPI   C2A 4296   4.952   3.072   8.545 -0.0740  0.2606  0.2199
  269loPI   C3A 4297   4.713   3.137   8.101 -0.1327 -0.1952  0.0689
  269loPI   C4A 4298   4.478   3.044   7.746 -0.0302  0.2073  0.0103
  269loPI   C5A 4299   4.382   3.038   7.298 -0.0298  0.3085 -0.0379
  269loPI   C6A 4300   4.024   3.212   7.018 -0.0213  0.0732 -0.0218
  269loPI   C1B 4301   4.485   3.184   8.737 -0.1604  0.1383  0.0183
  269loPI   C2B 4302   4.208   3.088   8.436 -0.0011 -0.0589  0.1142
  269loPI   C3B 4303   3.784   2.935   8.224  0.0462 -0.1434 -0.2008
  269loPI   C4B 4304   3.500   2.694   8.099  0.2802 -0.1725 -0.2578
  270loPI    C1 4305   1.902  17.338   9.865  0.1205  0.0699 -0.0894
  270loPI    C2 4306   2.066  17.232  10.214  0.1251  0.2563 -0.0342
  270loPI    C3 4307   1.673  17.303  10.191  0.0810 -0.0084 -0.1254
  270loPI   PO4 4308   2.024  17.563   9.772  0.1252 -0.2627 -0.0070
  270loPI   GL1 4309   2.103  17.830   9.447 -0.0283  0.3363 -0.2091
  270loPI   GL2 4310   2.382  17.877   9.552 -0.1047  0.0606  0.0712
  270loPI   C1A 4311   2.044  17.878   9.112 -0.0497  0.2472  0.1637
  270loPI   C2A 4312   2.151  17.936   8.764  0.0083  0.1507  0.2274
  270loPI   C3A 4313   2.453  17.865   8.314  0.0891 -0.3595  0.0323
  270loPI   C4A 4314   2.703  17.596   7.990 -0.3674  0.0738 -0.0273
  270loPI   C5A 4315   3.115  17.486   7.687 -0.1855  0.0545 -0.1663
  270loPI   C6A 4316   3.547  17.244   7.570  0.0392  0.3430  0.2783
  270loPI   C1B 4317   2.499  18.018   9.186 -0.2962 -0.3049 -0.3057
  270loPI   C2B 4318   2.727  17.930   8.755  0.2127 -0.1278 -0.2350
  270loPI   C3B 4319   3.090  17.639   8.537 -0.0593 -0.1751  0.4573
  270loPI   C4B 4320   3.312  17.535   8.119 -0.1901 -0.1335 -0.0451
  271loPI    C1 4321  14.084   2.916   9.599  0.1890 -0.1841 -0.0501
  271loPI    C2 4322  14.295   2.957   9.937  0.3365 -0.0740 -0.1543
  271loPI    C3 4323  14.468   2.806   9.610  0.1106 -0.4686 -0.0977
  271loPI   PO4 4324  13.897   2.880   9.701 -0.1505 -0.1088  0.3610
  271loPI   GL1 4325  13.530   2.891   9.372  0.1129 -0.0118 -0.1427
  271loPI   GL2 4326  13.694   2.653   9.299  0.0898  0.1157 -0.1403
  271loPI   C1A 4327  13.211   2.699   9.032 -0.3809  0.0019  0.2191
  271loPI   C2A 4328  13.436   2.682   8.546 -0.0629  0.0420 -0.3808
  271loPI   C3A 4329  13.757   2.767   8.200 -0.1905 -0.2439  0.1558
  271loPI   C4A 4330  13.949   2.865   7.869 -0.1689 -0.1932 -0.1331
  271loPI   C5A 4331  14.145   2.937   7.491 -0.1576 -0.2423 -0.3778
  271loPI   C6A 4332  14.475   3.084   7.298 -0.2380 -0.0610 -0.1851
  271loPI   C1B 4333  13.715   2.339   8.923  0.2601  0.2231  0.1032
  271loPI   C2B 4334  13.748   2.318   8.547 -0.3136 -0.1758  0.2393
  271loPI   C3B 4335  13.992   2.312   8.169  0.0285 -0.0724  0.0209
  271loPI   C4B 4336  14.391   2.046   8.128  0.0154 -0.2553  0.1203
  272loPI    C1 4337  17.197   8.197  10.495  0.2921  0.1587  0.3095
  272loPI    C2 4338  17.375   7.840  10.474  0.0756  0.0627  0.0490
  272loPI    C3 4339  17.050   7.888  10.701  0.0363  0.0632 -0.0072
  272loPI   PO4 4340  17.169   8.217  10.261  0.2684 -0.0168 -0.0340
  272loPI   GL1 4341  17.449   8.226   9.906  0.3235  0.0177  0.1337
  272loPI   GL2 4342  17.165   8.274   9.730 -0.0997  0.0727  0.2459
  272loPI   C1A 4343  17.676   8.038   9.517  0.0166 -0.1424  0.0486
  272loPI   C2A 4344  17.606   7.668   9.328  0.0500  0.0229  0.3090
  272loPI   C3A 4345  17.566   7.599   8.938  0.0410  0.1655  0.1258
  272loPI   C4A 4346  17.565   7.575   8.458  0.0808 -0.1149  0.3026
  272loPI   C5A 4347  17.472   7.820   8.175 -0.0684 -0.1509  0.1311
  272loPI   C6A 4348  16.997   7.900   8.077  0.0428  0.2097  0.0559
  272loPI   C1B 4349  17.248   8.269   9.248 -0.2487 -0.1588  0.1647
  272loPI   C2B 4350  17.385   8.138   8.873 -0.3006 -0.2660 -0.1228
  272loPI   C3B 4351  17.676   8.142   8.483 -0.4432  0.1993 -0.1439
  272loPI   C4B 4352  17.868   8.201   8.055  0.0088  0.1266  0.2447
  273loPI    C1 4353   4.244   4.811   9.812 -0.1509 -0.0287  0.1457
  273loPI    C2 4354   4.191   5.178   9.962 -0.3480 -0.0609  0.1581
  273loPI    C3 4355   4.277   4.873  10.206 -0.2551 -0.0366  0.1560
  273loPI   PO4 4356   4.054   4.786   9.622 -0.2733 -0.0072  0.0883
  273loPI   GL1 4357   4.067   4.489   9.350  0.0607  0.0391  0.3070
  273loPI   GL2 4358   3.859   4.278   9.241 -0.3980 -0.2714 -0.2333
  273loPI   C1A 4359   4.113   4.597   8.966  0.0080 -0.3405 -0.0714
  273loPI   C2A 4360   4.102   4.565   8.540  0.0677  0.0635  0.1912
  273loPI   C3A 4361   3.843   4.397   8.129  0.3493  0.0223 -0.2034
  273loPI   C4A 4362   3.773   4.325   7.748 -0.0161  0.0846 -0.0102
  273loPI   C5A 4363   3.767   4.203   7.231 -0.1330 -0.1078 -0.0364
  273loPI   C6A 4364   4.004   4.526   6.891  0.0986 -0.1667 -0.1922
  273loPI   C1B 4365   3.805   4.172   8.818 -0.0491  0.0558  0.2391
  273loPI   C2B 4366   3.937   4.027   8.396 -0.0092  0.0261 -0.2286
  273loPI   C3B 4367   3.998   3.891   8.012 -0.0928  0.0309  0.0142
  273loPI   C4B 4368   3.754   3.849   7.601 -0.3629  0.0379  0.2550
  274loPI    C1 4369   5.509   6.989   9.464  0.1294  0.0906 -0.0581
  274loPI    C2 4370   5.723   6.769   9.720 -0.2609 -0.2294  0.0031
  274loPI    C3 4371   5.540   7.102   9.846 -0.0214 -0.0989  0.0116
  274loPI   PO4 4372   5.373   6.784   9.294 -0.2456 -0.3967 -0.1774
  274loPI   GL1 4373   5.433   6.634   8.908  0.1302  0.0265  0.0573
  274loPI   GL2 4374   5.651   6.516   8.907 -0.0274  0.2901  0.0766
  274loPI   C1A 4375   5.357   7.039   8.688  0.2690 -0.1219  0.0549
  274loPI   C2A 4376   5.374   7.310   8.320 -0.0330  0.3648  0.3640
  274loPI   C3A 4377   5.757   7.521   8.165  0.1354 -0.1312 -0.2873
  274loPI   C4A 4378   6.148   7.590   7.850 -0.1309  0.1435 -0.0362
  274loPI   C5A 4379   6.543   7.590   7.629  0.2121  0.0252 -0.2234
  274loPI   C6A 4380   6.810   7.515   7.274 -0.0195 -0.3254 -0.0891
  274loPI   C1B 4381   5.616   6.650   8.451 -0.1455  0.1162 -0.1800
  274loPI   C2B 4382   5.372   6.874   8.055  0.0653  0.0392  0.2719
  274loPI   C3B 4383   5.505   6.910   7.592  0.2212  0.1322 -0.0523
  274loPI   C4B 4384   5.408   6.683   7.189  0.0142 -0.0782  0.1604
  275loPI    C1 4385  10.387   8.013   9.490  0.0640 -0.1201 -0.0412
  275loPI    C2 4386  10.745   8.022   9.668  0.0526  0.0581 -0.0250
  275loPI    C3 4387  10.430   7.869   9.861  0.0377  0.2612  0.1144
  275loPI   PO4 4388  10.310   8.250   9.405 -0.2642 -0.0397  0.2897
  275loPI   GL1 4389  10.073   8.482   9.224 -0.0051 -0.1243 -0.1616
  275loPI   GL2 4390  10.226   8.463   8.924  0.2121  0.1370  0.1864
  275loPI   C1A 4391   9.778   8.387   8.782  0.1622  0.2210 -0.1398
  275loPI   C2A 4392   9.965   8.409   8.365  0.2261  0.1168 -0.1793
  275loPI   C3A 4393  10.094   8.418   7.978 -0.0640 -0.0326  0.0407
  275loPI   C4A 4394  10.352   8.141   7.711 -0.2727  0.0588  0.0918
  275loPI   C5A 4395  10.785   8.040   7.733 -0.0803  0.1949 -0.1906
  275loPI   C6A 4396  11.130   7.753   7.679 -0.2017 -0.0306  0.1106
  275loPI   C1B 4397  10.546   8.364   8.593 -0.2466  0.1519  0.0532
  275loPI   C2B 4398  10.717   8.353   8.161 -0.3332 -0.1005  0.1730
  275loPI   C3B 4399  10.994   8.625   7.771  0.3025 -0.0510  0.2547
  275loPI   C4B 4400  11.297   8.956   7.748 -0.0306  0.1186 -0.1232
  276loPI    C1 4401  15.158  14.931  10.053  0.2014  0.0595 -0.1476
  276loPI    C2 4402  15.328  14.573  10.104  0.2480  0.0676 -0.2445
  276loPI    C3 4403  15.448  14.885  10.324  0.0088 -0.0399  0.0447
  276loPI   PO4 4404  15.254  14.994   9.826 -0.2655  0.2633  0.0618
  276loPI   GL1 4405  15.234  15.352   9.477  0.1020 -0.2728 -0.0310
  276loPI   GL2 4406  15.583  15.262   9.507  0.2001  0.2490 -0.4729
  276loPI   C1A 4407  14.913  15.421   9.108  0.1071 -0.1551  0.2188
  276loPI   C2A 4408  14.683  15.479   8.709 -0.2627  0.0858  0.1541
  276loPI   C3A 4409  14.494  15.668   8.314  0.0613  0.1560 -0.1713
  276loPI   C4A 4410  14.386  15.784   7.931 -0.1738  0.2674  0.3554
  276loPI   C5A 4411  14.709  15.942   7.591  0.1741 -0.0709  0.1483
  276loPI   C6A 4412  15.132  15.804   7.494 -0.1302  0.0537 -0.2574
  276loPI   C1B 4413  15.515  15.393   9.101 -0.2052  0.2791 -0.1849
  276loPI   C2B 4414  15.542  15.394   8.630  0.1649 -0.1776  0.0315
  276loPI   C3B 4415  15.542  15.694   8.377 -0.1400  0.0873  0.1780
  276loPI   C4B 4416  15.314  15.850   8.032  0.4221  0.1319 -0.3022
  277loPI    C1 4417  10.183  17.342  10.408 -0.1969  0.0441  0.1708
  277loPI    C2 4418  10.558  17.455  10.489 -0.1880 -0.0470  0.2583
  277loPI    C3 4419  10.296  17.401  10.787 -0.3261  0.2036  0.1857
  277loPI   PO4 4420  10.188  17.394  10.075 -0.0692 -0.0805 -0.0686
  277loPI   GL1 4421  10.199  17.621   9.626 -0.3309 -0.0238  0.2754
  277loPI   GL2 4422   9.925  17.479   9.590 -0.2115  0.2797  0.2359
  277loPI   C1A 4423  10.119  17.659   9.151 -0.1527  0.0126 -0.3026
  277loPI   C2A 4424   9.963  17.675   8.640  0.0041  0.1977 -0.0825
  277loPI   C3A 4425  10.020  17.521   8.367  0.0377  0.0714  0.2122
  277loPI   C4A 4426   9.759  17.537   7.981  0.1475  0.1880  0.0444
  277loPI   C5A 4427   9.591  17.154   7.685 -0.0974  0.1731 -0.2715
  277loPI   C6A 4428   9.259  16.893   7.660 -0.0838  0.0457  0.0180
  277loPI   C1B 4429   9.560  17.570   9.268 -0.1463  0.4940  0.0084
  277loPI   C2B 4430   9.508  17.556   8.741 -0.1717 -0.0344  0.1460
  277loPI   C3B 4431   9.306  17.583   8.378 -0.0152  0.3423 -0.0678
  277loPI   C4B 4432   9.255  17.587   7.937 -0.1747 -0.1424  0.1198
  278loPI    C1 4433  15.056   0.992  10.350  0.2699 -0.0196 -0.0285
  278loPI    C2 4434  15.211   1.359  10.317  0.2017  0.0254  0.1434
  278loPI    C3 4435  14.836   1.311  10.447  0.1067 -0.0894 -0.1631
  278loPI   PO4 4436  15.164   0.817  10.094  0.0358 -0.0055 -0.0118
  278loPI   GL1 4437  15.482   0.758   9.714 -0.0113  0.2083  0.1294
  278loPI   GL2 4438  15.501   1.033   9.582  0.2971 -0.3601  0.0575
  278loPI   C1A 4439  15.838   0.596   9.469  0.0209 -0.2087 -0.0518
  278loPI   C2A 4440  15.910   0.385   9.112 -0.3052 -0.2722  0.0214
  278loPI   C3A 4441  15.894   0.216   8.731 -0.2843 -0.1416 -0.1481
  278loPI   C4A 4442  15.998   0.105   8.275 -0.4342 -0.1136  0.0329
  278loPI   C5A 4443  16.186   0.156   7.944 -0.1572  0.1208 -0.0119
  278loPI   C6A 4444  16.314  -0.140   7.650 -0.0466  0.2183  0.0617
  278loPI   C1B 4445  15.396   0.902   9.150 -0.0274  0.0019  0.2526
  278loPI   C2B 4446  15.109   0.920   8.797  0.1368 -0.1030  0.1161
  278loPI   C3B 4447  15.004   1.041   8.327 -0.0117  0.2091 -0.2265
  278loPI   C4B 4448  14.878   0.850   7.983 -0.0582 -0.0646  0.1057
  279loPI    C1 4449   0.934  16.032  10.457 -0.3657  0.0447  0.0029
  279loPI    C2 4450   0.976  15.788  10.770 -0.3182 -0.0558 -0.0813
  279loPI    C3 4451   1.281  16.021  10.657 -0.4305  0.1963  0.1255
  279loPI   PO4 4452   0.627  15.930  10.386  0.0620 -0.0613 -0.2425
  279loPI   GL1 4453   0.373  15.884  10.049 -0.0619 -0.1545 -0.1087
  279loPI   GL2 4454   0.203  15.607   9.856  0.0240 -0.0037  0.2951
  279loPI   C1A 4455   0.503  15.934   9.623 -0.1047  0.4133 -0.0140
  279loPI   C2A 4456   0.401  16.104   9.182 -0.1923  0.2897  0.0845
  279loPI   C3A 4457   0.412  16.335   9.001  0.0977 -0.3411  0.2091
  279loPI   C4A 4458   0.547  16.705   8.604  0.0281  0.3914 -0.0928
  279loPI   C5A 4459   0.548  16.981   8.171  0.1821  0.1477  0.3398
  279loPI   C6A 4460   0.321  16.847   7.781 -0.3078  0.0652 -0.0037
  279loPI   C1B 4461   0.165  15.657   9.340 -0.0269 -0.1124  0.1282
  279loPI   C2B 4462   0.479  15.641   9.056  0.0651 -0.0655 -0.1351
  279loPI   C3B 4463   0.687  15.877   8.709 -0.0140  0.3383 -0.2978
  279loPI   C4B 4464   0.629  16.015   8.241  0.0633  0.0269 -0.4197
  280loPI    C1 4465  16.674  18.250  10.489 -0.0731  0.0335 -0.1767
  280loPI    C2 4466  17.042  18.401  10.444 -0.0650  0.0924  0.0735
  280loPI    C3 4467  16.943  18.212  10.783 -0.2457  0.0194 -0.0187
  280loPI   PO4 4468  16.597  18.315  10.177  0.0655  0.0552  0.2856
  280loPI   GL1 4469  16.431  18.423   9.736  0.0620 -0.1121  0.1145
  280loPI   GL2 4470  16.099  18.545   9.535  0.1915 -0.2289 -0.0155
  280loPI   C1A 4471  16.457  18.058   9.444 -0.1638  0.0069  0.0757
  280loPI   C2A 4472  16.519  17.970   9.051 -0.1403 -0.4349 -0.0192
  280loPI   C3A 4473  16.669  17.922   8.516 -0.0766 -0.3138  0.2415
  280loPI   C4A 4474  16.673  17.985   8.107  0.3095  0.1308 -0.1337
  280loPI   C5A 4475  16.538  17.978   7.777  0.1358 -0.2639  0.1343
  280loPI   C6A 4476  16.303  18.163   7.453 -0.0302 -0.1916 -0.0158
  280loPI   C1B 4477  16.324  18.469   9.099  0.0350 -0.1382 -0.2983
  280loPI   C2B 4478  16.579  18.435   8.732  0.1714 -0.0167 -0.0421
  280loPI   C3B 4479  16.821  18.447   8.278  0.2427 -0.0809  0.1797
  280loPI   C4B 4480  17.191  18.544   7.960 -0.0494 -0.1256  0.0720
  281loPI    C1 4481  16.212   2.353  10.032  0.3018 -0.0551 -0.2604
  281loPI    C2 4482  16.283   2.746  10.043 -0.0112 -0.0015  0.0067
  281loPI    C3 4483  16.218   2.545  10.382 -0.0167 -0.2543 -0.1411
  281loPI   PO4 4484  16.113   2.336   9.853 -0.2668 -0.0925  0.1872
  281loPI   GL1 4485  16.082   2.674   9.598 -0.2850 -0.1537 -0.1756
  281loPI   GL2 4486  15.745   2.707   9.681  0.1047 -0.4050  0.1841
  281loPI   C1A 4487  16.161   2.795   9.144  0.1896 -0.1690 -0.2697
  281loPI   C2A 4488  16.265   2.806   8.752 -0.0920  0.2074  0.2308
  281loPI   C3A 4489  16.192   2.827   8.286  0.2852 -0.0633  0.2182
  281loPI   C4A 4490  16.464   2.994   8.123  0.0604 -0.0886 -0.1327
  281loPI   C5A 4491  16.742   3.333   7.829  0.3418  0.2445 -0.3150
  281loPI   C6A 4492  16.605   3.486   7.447 -0.0852 -0.0519 -0.0217
  281loPI   C1B 4493  15.718   2.430   9.322 -0.2113  0.0982 -0.0520
  281loPI   C2B 4494  15.606   2.218   8.909 -0.1471  0.0926 -0.1205
  281loPI   C3B 4495  15.881   2.018   8.637  0.2285  0.3548 -0.2863
  281loPI   C4B 4496  15.860   1.857   8.247 -0.1410 -0.0395 -0.0264
  282loPI    C1 4497   0.972  15.017  10.069  0.1301  0.0662 -0.1022
  282loPI    C2 4498   1.005  14.629  10.159  0.1805  0.1443  0.2283
  282loPI    C3 4499   1.238  14.789   9.876  0.2853 -0.0268  0.2165
  282loPI   PO4 4500   0.842  15.180  10.238 -0.0674  0.1046 -0.0893
  282loPI   GL1 4501   0.639  15.398  10.011 -0.1278  0.3288 -0.0232
  282loPI   GL2 4502   0.876  15.629  10.062  0.3201 -0.0441 -0.2988
  282loPI   C1A 4503   0.750  15.359   9.636  0.2947  0.0014 -0.0041
  282loPI   C2A 4504   0.917  15.428   9.235 -0.0256 -0.1381  0.1901
  282loPI   C3A 4505   1.176  15.375   8.848  0.0429 -0.0489  0.0663
  282loPI   C4A 4506   1.075  15.569   8.464  0.2969  0.2463  0.3131
  282loPI   C5A 4507   0.927  15.659   8.042  0.1570  0.1642  0.2246
  282loPI   C6A 4508   0.746  15.522   7.628  0.0934  0.0190  0.2123
  282loPI   C1B 4509   0.976  15.830   9.743  0.0555  0.2577 -0.0034
  282loPI   C2B 4510   0.932  16.020   9.270  0.1373 -0.0256 -0.2420
  282loPI   C3B 4511   0.912  16.308   8.924  0.0017 -0.1445  0.0514
  282loPI   C4B 4512   0.948  16.315   8.552  0.1100  0.0120  0.3227
  283loPI    C1 4513   4.398   0.399  10.119 -0.0407 -0.0343  0.1124
  283loPI    C2 4514   4.093   0.178  10.253 -0.0947  0.1311  0.2669
  283loPI    C3 4515   4.394   0.272  10.499  0.2143 -0.2499  0.0461
  283loPI   PO4 4516   4.329   0.371   9.825  0.0349  0.1291  0.1396
  283loPI   GL1 4517   4.427   0.591   9.441  0.1475  0.2223  0.2268
  283loPI   GL2 4518   4.095   0.584   9.427  0.1484 -0.1205 -0.0216
  283loPI   C1A 4519   4.795   0.391   9.158  0.0496  0.0908  0.2159
  283loPI   C2A 4520   4.946   0.132   8.905  0.0258  0.1015  0.0429
  283loPI   C3A 4521   5.009   0.317   8.552 -0.0918  0.0298  0.1678
  283loPI   C4A 4522   5.004   0.523   8.181 -0.2745  0.0782 -0.2367
  283loPI   C5A 4523   4.683   0.846   8.007  0.1087  0.0682  0.1810
  283loPI   C6A 4524   4.427   0.839   7.631  0.0399 -0.0858 -0.0378
  283loPI   C1B 4525   3.741   0.625   9.176 -0.1188  0.1108 -0.0936
  283loPI   C2B 4526   3.471   0.838   8.727  0.0912 -0.2212  0.0348
  283loPI   C3B 4527   3.360   0.880   8.280  0.0516 -0.1184  0.0389
  283loPI   C4B 4528   3.149   1.143   8.103 -0.2582  0.0294  0.1273
  284loPI    C1 4529  17.080  15.416  10.084 -0.0621  0.0695  0.0178
  284loPI    C2 4530  17.171  15.027  10.092 -0.0640  0.0684 -0.0156
  284loPI    C3 4531  17.341  15.277  10.354 -0.1861  0.0188  0.1121
  284loPI   PO4 4532  16.804  15.362  10.068 -0.1981 -0.0319 -0.0232
  284loPI   GL1 4533  16.648  15.404   9.571  0.0943  0.0904 -0.1007
  284loPI   GL2 4534  16.707  15.124   9.364  0.0791 -0.2114  0.0437
  284loPI   C1A 4535  16.430  15.546   9.166 -0.0044 -0.0482 -0.1130
  284loPI   C2A 4536  16.550  15.568   8.789 -0.2398 -0.0645  0.1171
  284loPI   C3A 4537  16.605  15.740   8.417  0.2864 -0.0051  0.3703
  284loPI   C4A 4538  16.688  16.106   8.123  0.1185  0.2175  0.4623
  284loPI   C5A 4539  17.073  16.087   7.904  0.0244  0.4398  0.2186
  284loPI   C6A 4540  17.192  15.730   7.681 -0.0829  0.2890  0.2008
  284loPI   C1B 4541  16.795  15.200   9.028 -0.4627 -0.1704  0.0899
  284loPI   C2B 4542  16.937  15.284   8.601 -0.1880 -0.0594 -0.2354
  284loPI   C3B 4543  17.245  15.169   8.265 -0.0409 -0.3065 -0.0138
  284loPI   C4B 4544  17.181  14.825   7.982  0.0458 -0.0806  0.0544
  285loPI    C1 4545   8.916   4.699   9.771 -0.2088 -0.0761  0.1204
  285loPI    C2 4546   9.045   5.000  10.001  0.1869  0.0967 -0.3109
  285loPI    C3 4547   9.150   4.623  10.086 -0.1686  0.0889  0.1312
  285loPI   PO4 4548   8.966   4.877   9.461 -0.1320  0.0802  0.0234
  285loPI   GL1 4549   9.381   4.911   9.182  0.5004 -0.1023  0.1086
  285loPI   GL2 4550   9.347   4.591   9.204  0.0565  0.3354  0.1468
  285loPI   C1A 4551   9.046   5.112   8.884 -0.0161  0.1746 -0.3202
  285loPI   C2A 4552   8.662   5.129   8.632 -0.1000 -0.1756  0.2003
  285loPI   C3A 4553   8.733   5.300   8.296 -0.0760  0.0401 -0.1422
  285loPI   C4A 4554   8.681   5.355   7.839  0.1113  0.2246  0.0059
  285loPI   C5A 4555   8.977   5.590   7.489  0.1868  0.0559 -0.2231
  285loPI   C6A 4556   9.300   5.508   7.235  0.1704 -0.0391 -0.1069
  285loPI   C1B 4557   9.240   4.592   8.782  0.1484  0.0940  0.1316
  285loPI   C2B 4558   9.057   4.854   8.412 -0.1197  0.0175 -0.2447
  285loPI   C3B 4559   9.007   4.912   8.021  0.2054 -0.2674 -0.2423
  285loPI   C4B 4560   8.698   4.844   7.718  0.1143 -0.3990 -0.1777
  286loPI    C1 4561   2.206   5.995   9.710  0.0010 -0.2718  0.4725
  286loPI    C2 4562   2.090   6.285   9.960  0.1114  0.1398  0.0606
  286loPI    C3 4563   2.477   6.191   9.928  0.1147  0.1924 -0.0621
  286loPI   PO4 4564   2.066   6.104   9.453 -0.2253  0.3533  0.1782
  286loPI   GL1 4565   2.252   6.167   9.124 -0.0590 -0.1454 -0.1299
  286loPI   GL2 4566   2.429   5.855   9.092  0.2664  0.2174  0.0858
  286loPI   C1A 4567   2.035   6.118   8.749 -0.1293 -0.2587  0.0880
  286loPI   C2A 4568   1.977   6.171   8.372 -0.0954 -0.2253  0.0831
  286loPI   C3A 4569   2.008   6.162   7.880 -0.1591  0.0550  0.1196
  286loPI   C4A 4570   2.309   5.977   7.493  0.0919 -0.0494 -0.1684
  286loPI   C5A 4571   2.673   5.732   7.339  0.1830  0.1316 -0.3053
  286loPI   C6A 4572   2.955   5.371   7.106 -0.3119 -0.1295 -0.1999
  286loPI   C1B 4573   2.293   5.621   8.778 -0.2767  0.3252 -0.1373
  286loPI   C2B 4574   2.191   5.465   8.385  0.0547  0.0274 -0.1119
  286loPI   C3B 4575   2.204   5.160   8.079  0.2154 -0.1046 -0.1503
  286loPI   C4B 4576   2.160   4.831   7.857 -0.0022  0.0813  0.1667
  287loPI    C1 4577   6.164   2.913  10.222  0.0599 -0.0469  0.0188
  287loPI    C2 4578   6.076   3.275  10.077 -0.3240 -0.0808  0.1550
  287loPI    C3 4579   6.284   3.241  10.417 -0.4256  0.0157  0.2275
  287loPI   PO4 4580   6.006   2.697  10.022 -0.1350  0.0204  0.3792
  287loPI   GL1 4581   6.117   2.554   9.576  0.3900  0.0797  0.1010
  287loPI   GL2 4582   5.846   2.536   9.429  0.0316  0.2160 -0.0149
  287loPI   C1A 4583   6.135   2.423   9.046 -0.0864  0.1585  0.0162
  287loPI   C2A 4584   6.020   2.297   8.660 -0.1792 -0.0528 -0.4306
  287loPI   C3A 4585   5.984   2.234   8.249 -0.2336  0.1457  0.1370
  287loPI   C4A 4586   6.147   2.112   7.890 -0.3933 -0.0748 -0.2995
  287loPI   C5A 4587   6.282   1.956   7.561  0.1124 -0.0552 -0.2645
  287loPI   C6A 4588   6.421   1.725   7.314 -0.3614 -0.1079 -0.1166
  287loPI   C1B 4589   5.844   2.906   9.093 -0.1068  0.1021  0.0502
  287loPI   C2B 4590   5.748   2.764   8.679  0.3100  0.1769 -0.0623
  287loPI   C3B 4591   5.599   2.647   8.219  0.0760 -0.2086  0.0663
  287loPI   C4B 4592   5.590   2.838   7.779 -0.0570  0.3562 -0.1670
  288loPI    C1 4593   9.790   5.154   9.597  0.1511  0.1099 -0.1659
  288loPI    C2 4594  10.083   4.953   9.782 -0.0520  0.2590  0.3351
  288loPI    C3 4595   9.868   4.776   9.495  0.4300  0.1028  0.0602
  288loPI   PO4 4596   9.920   5.343   9.570  0.1789  0.0125  0.1821
  288loPI   GL1 4597   9.878   5.578   9.178 -0.1488  0.0333 -0.1804
  288loPI   GL2 4598   9.699   5.306   9.120  0.0826 -0.3986  0.0580
  288loPI   C1A 4599   9.739   5.713   8.824 -0.2918  0.2335  0.3700
  288loPI   C2A 4600   9.732   5.334   8.482  0.0171  0.1033  0.0621
  288loPI   C3A 4601   9.731   5.253   8.054  0.0680 -0.0493  0.2199
  288loPI   C4A 4602  10.104   5.204   7.819  0.3441  0.0588 -0.0103
  288loPI   C5A 4603  10.277   5.149   7.448  0.2413  0.2366  0.1838
  288loPI   C6A 4604  10.519   5.006   7.167  0.1226  0.1721  0.1179
  288loPI   C1B 4605   9.653   4.989   8.795  0.2312 -0.3241 -0.1459
  288loPI   C2B 4606   9.607   4.704   8.404  0.3731  0.0986 -0.0920
  288loPI   C3B 4607   9.574   4.796   7.975  0.0679  0.1749  0.1155
  288loPI   C4B 4608   9.615   5.075   7.626 -0.3152  0.2949  0.3527
  289loPI    C1 4609   1.665  15.453  10.276 -0.1277 -0.2306  0.0519
  289loPI    C2 4610   1.869  15.797  10.263  0.0087 -0.3060  0.1673
  289loPI    C3 4611   1.686  15.687  10.601  0.0687 -0.4055  0.1677
  289loPI   PO4 4612   1.492  15.470  10.110 -0.0722  0.3522  0.0619
  289loPI   GL1 4613   1.220  15.371   9.871 -0.1197 -0.0116 -0.0388
  289loPI   GL2 4614   1.369  15.638   9.637 -0.2643  0.2041  0.0856
  289loPI   C1A 4615   1.301  15.156   9.451 -0.0341 -0.1035 -0.0577
  289loPI   C2A 4616   1.478  15.049   9.067  0.0958 -0.0352 -0.0380
  289loPI   C3A 4617   1.474  15.128   8.596 -0.3538 -0.3182 -0.0133
  289loPI   C4A 4618   1.599  14.823   8.389  0.1640 -0.1115 -0.0323
  289loPI   C5A 4619   1.857  14.539   8.440 -0.2437  0.0197 -0.1430
  289loPI   C6A 4620   2.173  14.409   8.601 -0.2375  0.0753  0.3716
  289loPI   C1B 4621   1.342  15.769   9.260  0.4289  0.2195  0.1339
  289loPI   C2B 4622   1.183  15.876   8.820  0.2480 -0.0569  0.0188
  289loPI   C3B 4623   1.306  16.011   8.314 -0.0236  0.1048  0.1310
  289loPI   C4B 4624   1.471  15.980   7.886  0.1127  0.2217  0.0036
  290loPI    C1 4625   4.056  18.187   9.708  0.3581  0.0413  0.0671
  290loPI    C2 4626   4.280  18.058   9.402  0.2550 -0.2531  0.1119
  290loPI    C3 4627   4.392  17.981   9.778  0.3530  0.0611  0.1502
  290loPI   PO4 4628   3.758  18.006   9.606 -0.0450  0.0043  0.1841
  290loPI   GL1 4629   3.592  17.925   9.306 -0.1755 -0.1215 -0.1293
  290loPI   GL2 4630   3.854  18.023   9.118  0.0565  0.2762  0.0066
  290loPI   C1A 4631   3.255  17.519   9.290  0.1055  0.2787  0.0991
  290loPI   C2A 4632   3.044  17.279   8.959  0.0030 -0.0157 -0.0079
  290loPI   C3A 4633   2.816  17.018   8.760 -0.1926 -0.3013  0.0273
  290loPI   C4A 4634   2.536  16.847   8.492  0.1213  0.0268  0.0236
  290loPI   C5A 4635   2.588  16.844   8.072  0.1947 -0.1641 -0.0593
  290loPI   C6A 4636   2.295  16.560   7.789 -0.0002  0.2428 -0.2510
  290loPI   C1B 4637   3.958  18.038   8.674  0.0521 -0.0323  0.2049
  290loPI   C2B 4638   4.128  17.983   8.218 -0.0275 -0.0293  0.0746
  290loPI   C3B 4639   4.171  18.205   7.813  0.1089  0.1098  0.0153
  290loPI   C4B 4640   4.263  18.544   7.616 -0.2146 -0.0471 -0.1406
  291loPI    C1 4641   9.701  12.030   9.802  0.1092 -0.0125  0.1819
  291loPI    C2 4642   9.915  11.892  10.110  0.2248  0.0899  0.1482
  291loPI    C3 4643  10.053  12.196   9.890  0.0341  0.1718  0.1396
  291loPI   PO4 4644   9.651  11.705   9.685  0.3473 -0.0265  0.0844
  291loPI   GL1 4645   9.856  11.465   9.352  0.3389  0.1986  0.0861
  291loPI   GL2 4646  10.064  11.211   9.355 -0.2240 -0.0584 -0.1253
  291loPI   C1A 4647   9.664  11.473   8.925 -0.0941 -0.0848  0.1955
  291loPI   C2A 4648   9.349  11.620   8.604  0.0969  0.0108  0.1061
  291loPI   C3A 4649   9.175  11.440   8.154  0.0227  0.2908 -0.1831
  291loPI   C4A 4650   9.187  11.559   7.744  0.1062  0.1269 -0.0497
  291loPI   C5A 4651   9.303  11.458   7.337 -0.2445  0.1414  0.1286
  291loPI   C6A 4652   9.069  11.311   7.012  0.4525 -0.0807 -0.0368
  291loPI   C1B 4653  10.031  11.176   8.856 -0.2157 -0.3152  0.0566
  291loPI   C2B 4654   9.877  11.287   8.513 -0.2718 -0.1782 -0.2883
  291loPI   C3B 4655   9.647  11.496   8.194  0.0929  0.3021 -0.3132
  291loPI   C4B 4656   9.692  11.642   7.782 -0.0366 -0.1690  0.0582
  292loPI    C1 4657  15.023   1.816  10.075  0.1924  0.0826 -0.0703
  292loPI    C2 4658  15.142   1.709   9.709  0.0082 -0.2787 -0.0287
  292loPI    C3 4659  14.780   1.871   9.762  0.2104  0.1996 -0.0643
  292loPI   PO4 4660  15.256   1.966  10.157  0.3172  0.0608 -0.2927
  292loPI   GL1 4661  15.508   2.060   9.691  0.0807  0.0026 -0.0037
  292loPI   GL2 4662  15.787   1.960   9.624 -0.3402 -0.4041 -0.0315
  292loPI   C1A 4663  15.324   2.031   9.287  0.0558  0.0292  0.0482
  292loPI   C2A 4664  15.258   1.865   8.873 -0.1884 -0.0010 -0.1457
  292loPI   C3A 4665  15.377   1.990   8.479 -0.0227 -0.1419  0.0738
  292loPI   C4A 4666  15.375   1.814   8.013  0.4478 -0.0854 -0.0541
  292loPI   C5A 4667  15.702   1.537   7.754 -0.0852 -0.0052  0.1288
  292loPI   C6A 4668  15.769   1.208   7.378 -0.3718  0.1151 -0.4108
  292loPI   C1B 4669  15.953   1.889   9.305  0.2270 -0.0471  0.2345
  292loPI   C2B 4670  15.770   1.681   9.020 -0.0456  0.3411  0.0603
  292loPI   C3B 4671  15.610   1.565   8.646 -0.4023 -0.0811 -0.1874
  292loPI   C4B 4672  15.543   1.308   8.289  0.1877 -0.3173 -0.1480
  293loPI    C1 4673  10.574  11.882  10.026 -0.1682 -0.1131  0.0508
  293loPI    C2 4674  10.569  12.021   9.651  0.0741 -0.0734  0.0602
  293loPI    C3 4675  10.544  12.275   9.958 -0.0577 -0.1007  0.0730
  293loPI   PO4 4676  10.475  11.640   9.982  0.4143 -0.1543 -0.0850
  293loPI   GL1 4677  10.346  11.518   9.545 -0.1574 -0.0204 -0.1021
  293loPI   GL2 4678  10.094  11.831   9.543 -0.3589 -0.3192 -0.0236
  293loPI   C1A 4679  10.327  11.644   9.114 -0.1636  0.1036 -0.1087
  293loPI   C2A 4680  10.079  11.777   8.720  0.0053 -0.1339  0.2458
  293loPI   C3A 4681   9.973  11.808   8.339 -0.2376 -0.0704 -0.0046
  293loPI   C4A 4682   9.972  12.076   7.885 -0.1147 -0.3083  0.1420
  293loPI   C5A 4683   9.695  12.199   7.612  0.0359  0.1480  0.3084
  293loPI   C6A 4684   9.732  12.208   7.187  0.0834  0.2993 -0.3501
  293loPI   C1B 4685   9.863  11.950   9.127  0.3238  0.0911  0.1491
  293loPI   C2B 4686   9.586  12.003   8.711  0.1515 -0.0384 -0.1273
  293loPI   C3B 4687   9.509  11.929   8.215  0.0665  0.1067 -0.1316
  293loPI   C4B 4688   9.187  11.999   7.883  0.1759  0.0495 -0.1136
  294loPI    C1 4689   2.552   3.340   9.702 -0.1810 -0.2836 -0.0135
  294loPI    C2 4690   2.722   3.450  10.047 -0.0609 -0.0465 -0.1452
  294loPI    C3 4691   2.531   3.099  10.021  0.0688 -0.1394  0.1151
  294loPI   PO4 4692   2.682   3.473   9.520 -0.0245 -0.2067  0.1676
  294loPI   GL1 4693   2.581   3.627   9.158 -0.0989  0.2033 -0.0285
  294loPI   GL2 4694   2.287   3.443   9.252  0.1812  0.1886 -0.0297
  294loPI   C1A 4695   2.539   3.526   8.765  0.0286 -0.1593  0.0523
  294loPI   C2A 4696   2.542   3.473   8.384 -0.1221  0.0336 -0.0694
  294loPI   C3A 4697   2.210   3.370   8.129 -0.1742 -0.2811 -0.2243
  294loPI   C4A 4698   2.215   3.122   7.863 -0.0646 -0.2060 -0.0463
  294loPI   C5A 4699   2.276   2.759   7.612 -0.2023  0.2618  0.0130
  294loPI   C6A 4700   2.394   2.476   7.274 -0.0265 -0.0263  0.1234
  294loPI   C1B 4701   2.285   3.167   8.955 -0.0343 -0.0680  0.0493
  294loPI   C2B 4702   2.406   3.052   8.682 -0.0390  0.0362 -0.3489
  294loPI   C3B 4703   2.448   2.934   8.326 -0.3208  0.1019  0.0784
  294loPI   C4B 4704   2.616   2.873   7.923  0.1657 -0.2484  0.3696
  295loPI    C1 4705  13.247  18.189  10.600  0.0783 -0.0359  0.0246
  295loPI    C2 4706  13.614  18.075  10.709  0.0473 -0.0157  0.1513
  295loPI    C3 4707  13.364  18.230  10.980 -0.0003  0.1156  0.0330
  295loPI   PO4 4708  13.148  17.975  10.362 -0.2786  0.0464  0.0693
  295loPI   GL1 4709  13.256  17.895   9.992 -0.1969 -0.0434  0.4052
  295loPI   GL2 4710  13.084  18.041   9.856  0.0795 -0.0584 -0.2935
  295loPI   C1A 4711  13.262  17.708   9.552  0.2254 -0.0574 -0.2392
  295loPI   C2A 4712  13.290  17.637   9.086 -0.1245 -0.1231 -0.0728
  295loPI   C3A 4713  13.063  17.593   8.736 -0.1316 -0.2719  0.1987
  295loPI   C4A 4714  13.020  17.574   8.330 -0.1573 -0.3632  0.0071
  295loPI   C5A 4715  13.279  17.719   7.928  0.0114  0.0389 -0.3123
  295loPI   C6A 4716  13.558  17.710   7.595 -0.3139  0.3098 -0.0398
  295loPI   C1B 4717  13.196  18.256   9.439 -0.0534  0.1774  0.0381
  295loPI   C2B 4718  12.924  18.518   9.148 -0.2463  0.1295 -0.0790
  295loPI   C3B 4719  12.861  18.871   8.984  0.1275 -0.0021 -0.1052
  295loPI   C4B 4720  12.737  19.027   8.567  0.2180 -0.0077 -0.0664
  296loPI    C1 4721   0.396   0.561  10.503  0.0409 -0.1017  0.0073
  296loPI    C2 4722   0.691   0.373  10.697  0.1478  0.0016 -0.0539
  296loPI    C3 4723   0.705   0.770  10.646 -0.0889  0.0315  0.0959
  296loPI   PO4 4724   0.390   0.338  10.225  0.2580  0.3658 -0.2332
  296loPI   GL1 4725   0.273   0.093   9.780 -0.1575 -0.0861  0.2761
  296loPI   GL2 4726  -0.033   0.121   9.711  0.0563  0.1693 -0.1077
  296loPI   C1A 4727   0.197  -0.187   9.360  0.2424 -0.0979 -0.0966
  296loPI   C2A 4728   0.152  -0.095   8.946  0.0613 -0.0743  0.0132
  296loPI   C3A 4729   0.127   0.051   8.544  0.1991  0.0808  0.2076
  296loPI   C4A 4730   0.131  -0.045   8.111 -0.2415  0.2944 -0.2389
  296loPI   C5A 4731   0.066   0.149   7.716  0.4236 -0.0964  0.3324
  296loPI   C6A 4732   0.092   0.336   7.259 -0.0681 -0.2314 -0.4008
  296loPI   C1B 4733  -0.027   0.240   9.288  0.0264 -0.0413 -0.1360
  296loPI   C2B 4734   0.201   0.457   8.970  0.1103 -0.1197 -0.0689
  296loPI   C3B 4735   0.303   0.544   8.581  0.1686 -0.0484  0.1224
  296loPI   C4B 4736   0.147   0.418   8.174  0.1062 -0.0886 -0.0171
  297loPI    C1 4737   8.462  14.841  10.363  0.1093 -0.0482 -0.2361
  297loPI    C2 4738   8.744  14.565  10.297  0.1953  0.0198 -0.1557
  297loPI    C3 4739   8.640  14.660  10.672  0.0381 -0.0321 -0.1855
  297loPI   PO4 4740   8.366  14.834  10.125  0.1850 -0.1838  0.1400
  297loPI   GL1 4741   8.123  15.044   9.876  0.1678  0.2709 -0.1231
  297loPI   GL2 4742   8.319  14.828   9.635 -0.3732  0.1991  0.1570
  297loPI   C1A 4743   7.757  14.949   9.477 -0.0152  0.0084  0.3507
  297loPI   C2A 4744   7.637  15.021   9.061  0.1209 -0.2842  0.0439
  297loPI   C3A 4745   7.367  15.108   8.606 -0.0164 -0.1716 -0.0124
  297loPI   C4A 4746   7.421  15.089   8.150 -0.4713 -0.2233 -0.0648
  297loPI   C5A 4747   7.550  15.368   7.739  0.3967 -0.2259 -0.0097
  297loPI   C6A 4748   7.673  15.496   7.352 -0.0427  0.0188 -0.1031
  297loPI   C1B 4749   8.170  14.797   9.249 -0.2032  0.1628 -0.2355
  297loPI   C2B 4750   8.052  14.860   8.798 -0.5185  0.1567  0.2553
  297loPI   C3B 4751   7.784  14.901   8.405  0.2067  0.2605 -0.2706
  297loPI   C4B 4752   7.827  14.918   7.998  0.0898  0.0275 -0.1206
  298loPI    C1 4753   8.902   9.871   9.572  0.0095 -0.2898 -0.0263
  298loPI    C2 4754   8.565   9.916   9.783  0.1400  0.0709  0.1135
  298loPI    C3 4755   8.795   9.593   9.839 -0.0707 -0.0707  0.1736
  298loPI   PO4 4756   8.939  10.172   9.582 -0.2102  0.2671 -0.2718
  298loPI   GL1 4757   8.863  10.369   9.194  0.0515  0.1057  0.1782
  298loPI   GL2 4758   8.927  10.624   9.245  0.0382 -0.1432 -0.1898
  298loPI   C1A 4759   8.586  10.411   8.820  0.1995  0.0032 -0.0098
  298loPI   C2A 4760   8.670  10.571   8.453 -0.0470  0.1074  0.0241
  298loPI   C3A 4761   8.929  10.572   8.023 -0.3070  0.2055 -0.3484
  298loPI   C4A 4762   8.995  10.579   7.626 -0.2696 -0.0067  0.0584
  298loPI   C5A 4763   9.256  10.922   7.459  0.1861  0.1931 -0.0306
  298loPI   C6A 4764   9.530  11.148   7.741 -0.0405  0.1596 -0.0927
  298loPI   C1B 4765   9.103  10.586   8.775  0.1357 -0.0871  0.2340
  298loPI   C2B 4766   9.264  10.557   8.370 -0.2304  0.2723  0.6126
  298loPI   C3B 4767   9.262  10.211   8.003 -0.0149  0.1334  0.6090
  298loPI   C4B 4768   9.190  10.127   7.546  0.4307  0.0613 -0.1169
  299loPI    C1 4769  12.381   1.242   9.950 -0.1971 -0.0045  0.1783
  299loPI    C2 4770  12.454   1.524  10.224 -0.1623  0.1688 -0.0064
  299loPI    C3 4771  12.105   1.521  10.029 -0.1291  0.1345 -0.0655
  299loPI   PO4 4772  12.511   1.235   9.776  0.2658  0.4115  0.0930
  299loPI   GL1 4773  12.641   1.243   9.376 -0.2167 -0.0536  0.0157
  299loPI   GL2 4774  12.639   1.551   9.224 -0.1437 -0.2283  0.1285
  299loPI   C1A 4775  12.607   0.995   8.959 -0.3476 -0.3183  0.0197
  299loPI   C2A 4776  12.742   0.990   8.493 -0.3284  0.2509 -0.3931
  299loPI   C3A 4777  12.766   0.868   8.027 -0.0583 -0.0960 -0.1844
  299loPI   C4A 4778  13.020   0.713   7.712 -0.0586  0.0608  0.3193
  299loPI   C5A 4779  13.047   0.946   7.351 -0.0465 -0.1517 -0.1549
  299loPI   C6A 4780  13.243   0.995   6.885  0.0876  0.0846  0.1008
  299loPI   C1B 4781  12.733   1.462   8.770 -0.0388 -0.1335  0.0893
  299loPI   C2B 4782  12.831   1.443   8.290  0.3167  0.4195  0.0269
  299loPI   C3B 4783  12.915   1.312   7.897 -0.0452  0.0416  0.1368
  299loPI   C4B 4784  12.886   1.409   7.452  0.0432 -0.2445 -0.1756
  300loPI    C1 4785  15.049   3.670   9.885 -0.1157 -0.0765 -0.2946
  300loPI    C2 4786  15.133   3.463   9.553  0.1284 -0.1746 -0.1740
  300loPI    C3 4787  15.241   3.320   9.911  0.1688  0.0906 -0.0776
  300loPI   PO4 4788  15.110   3.909   9.803 -0.0270  0.1003 -0.0474
  300loPI   GL1 4789  15.579   4.019   9.603 -0.3111 -0.3626 -0.0327
  300loPI   GL2 4790  15.626   3.727   9.642  0.1803  0.1811  0.2623
  300loPI   C1A 4791  15.807   4.157   9.160 -0.0537  0.0597  0.0933
  300loPI   C2A 4792  15.808   4.125   8.764 -0.0674 -0.1132 -0.1378
  300loPI   C3A 4793  15.816   4.199   8.414  0.0392 -0.1847  0.2832
  300loPI   C4A 4794  15.645   4.334   8.069  0.0012 -0.1548  0.0880
  300loPI   C5A 4795  15.638   4.712   7.831  0.1991  0.1562 -0.3066
  300loPI   C6A 4796  15.375   4.728   7.539  0.1348  0.0649  0.0302
  300loPI   C1B 4797  15.450   3.736   9.193  0.3436 -0.1472  0.0247
  300loPI   C2B 4798  15.368   3.874   8.719  0.0209 -0.0818 -0.1347
  300loPI   C3B 4799  15.348   4.032   8.387  0.1247  0.3559 -0.2145
  300loPI   C4B 4800  15.305   3.966   7.935 -0.2876  0.0913 -0.0166
  301loPI    C1 4801  13.685  11.681   9.817  0.2259  0.1646  0.0427
  301loPI    C2 4802  13.454  11.757  10.135 -0.0199  0.1182 -0.1226
  301loPI    C3 4803  13.727  11.465  10.151  0.0894  0.2307  0.1031
  301loPI   PO4 4804  13.468  11.623   9.639 -0.1369  0.3326  0.2580
  301loPI   GL1 4805  13.317  11.557   9.258 -0.0923 -0.0262  0.1359
  301loPI   GL2 4806  13.083  11.597   9.304  0.0881  0.0262  0.4832
  301loPI   C1A 4807  13.196  11.401   8.801 -0.1605  0.3259 -0.0136
  301loPI   C2A 4808  13.013  11.154   8.530  0.2295 -0.3314 -0.1447
  301loPI   C3A 4809  12.971  11.047   8.124 -0.2540 -0.1872  0.0703
  301loPI   C4A 4810  13.009  10.951   7.721 -0.0841 -0.0219  0.0326
  301loPI   C5A 4811  13.080  10.860   7.305 -0.3425 -0.0493 -0.3562
  301loPI   C6A 4812  12.954  10.713   7.022 -0.0823 -0.3791  0.0346
  301loPI   C1B 4813  12.919  11.201   9.151 -0.2299 -0.3774 -0.1336
  301loPI   C2B 4814  12.581  11.178   8.851 -0.1085  0.0026  0.2467
  301loPI   C3B 4815  12.502  11.148   8.350  0.1249  0.1224  0.1736
  301loPI   C4B 4816  12.068  11.207   8.240  0.3436 -0.0831 -0.0401
  302loPI    C1 4817   7.573   8.795   9.575 -0.0744  0.3885  0.0977
  302loPI    C2 4818   7.475   8.854   9.959  0.2558  0.0900  0.2331
  302loPI    C3 4819   7.751   9.086   9.784 -0.0946  0.4075  0.0885
  302loPI   PO4 4820   7.319   8.717   9.501  0.0667  0.2065  0.2663
  302loPI   GL1 4821   7.322   8.591   9.129 -0.0394 -0.2271  0.1207
  302loPI   GL2 4822   7.676   8.741   9.077  0.1979 -0.1324 -0.1808
  302loPI   C1A 4823   7.433   8.584   8.641 -0.2409  0.0389  0.1301
  302loPI   C2A 4824   7.520   8.616   8.279 -0.1487  0.1646  0.1459
  302loPI   C3A 4825   7.587   8.591   7.787 -0.1295 -0.0164 -0.0431
  302loPI   C4A 4826   7.842   8.832   7.492  0.2306  0.1565 -0.0503
  302loPI   C5A 4827   8.121   9.090   7.327  0.1363 -0.0847  0.1213
  302loPI   C6A 4828   8.229   9.544   7.360  0.1042 -0.2179 -0.0224
  302loPI   C1B 4829   7.838   8.925   8.912  0.2161 -0.0215  0.0428
  302loPI   C2B 4830   7.748   9.021   8.412 -0.2746 -0.0532 -0.0825
  302loPI   C3B 4831   7.721   9.012   7.943  0.2745 -0.0446 -0.2211
  302loPI   C4B 4832   7.721   9.284   7.574 -0.0685  0.4071 -0.1049
  303loPI    C1 4833   7.984  15.128  10.400  0.1057  0.0277  0.0351
  303loPI    C2 4834   7.792  15.069  10.746  0.0314 -0.1238 -0.0311
  303loPI    C3 4835   8.152  15.244  10.744  0.0317 -0.1213  0.1225
  303loPI   PO4 4836   7.793  15.212  10.227 -0.2591  0.2387  0.0093
  303loPI   GL1 4837   7.449  15.130  10.068 -0.0777  0.1189  0.0602
  303loPI   GL2 4838   7.487  15.309   9.736 -0.0918 -0.0717  0.1186
  303loPI   C1A 4839   7.341  14.817   9.816  0.2547 -0.2166  0.0500
  303loPI   C2A 4840   7.161  14.923   9.361  0.0564 -0.0460 -0.2113
  303loPI   C3A 4841   7.138  15.039   9.025  0.2114 -0.0112 -0.1911
  303loPI   C4A 4842   6.882  15.175   8.642 -0.0996  0.0808  0.0041
  303loPI   C5A 4843   6.863  15.191   8.220  0.3326  0.0090 -0.2328
  303loPI   C6A 4844   7.043  15.168   7.716  0.2184  0.0750 -0.1536
  303loPI   C1B 4845   7.650  15.476   9.295  0.0106  0.0828  0.1764
  303loPI   C2B 4846   7.934  15.726   9.134  0.1145 -0.0931  0.0384
  303loPI   C3B 4847   8.202  15.660   8.841  0.3240  0.0110 -0.3079
  303loPI   C4B 4848   8.155  15.715   8.394  0.0463 -0.3142 -0.2372
  304loPI    C1 4849   1.218  13.315  10.547 -0.0667 -0.0442  0.1599
  304loPI    C2 4850   1.109  13.700  10.557  0.0339 -0.0082 -0.0565
  304loPI    C3 4851   0.842  13.414  10.638 -0.0359  0.1069  0.1260
  304loPI   PO4 4852   1.317  13.265  10.367 -0.1534 -0.0632  0.0843
  304loPI   GL1 4853   1.243  13.405   9.889 -0.0640  0.1548 -0.2706
  304loPI   GL2 4854   1.379  13.690  10.103 -0.3070  0.2214 -0.2583
  304loPI   C1A 4855   1.437  13.341   9.552  0.3081  0.0705 -0.0863
  304loPI   C2A 4856   1.687  13.082   9.531 -0.1409 -0.0685 -0.0639
  304loPI   C3A 4857   1.888  13.186   9.148 -0.1126  0.2716 -0.3742
  304loPI   C4A 4858   1.664  13.031   8.641  0.3273  0.1415 -0.1559
  304loPI   C5A 4859   1.501  13.257   8.259 -0.0943  0.0310  0.0488
  304loPI   C6A 4860   1.602  13.552   7.949 -0.3043 -0.1188  0.0135
  304loPI   C1B 4861   1.464  13.794   9.700  0.0922  0.0157  0.0924
  304loPI   C2B 4862   1.576  14.063   9.445  0.1828  0.0000 -0.2063
  304loPI   C3B 4863   1.259  14.005   9.084 -0.2126  0.0586  0.1113
  304loPI   C4B 4864   1.069  13.710   8.834  0.1881  0.0237 -0.2084
  305loPI    C1 4865   0.095  12.094  10.276 -0.0139  0.0748 -0.0770
  305loPI    C2 4866  -0.205  12.298  10.445 -0.0212  0.0401 -0.0481
  305loPI    C3 4867   0.042  12.080  10.672  0.0477  0.0972 -0.0678
  305loPI   PO4 4868   0.152  12.353  10.126 -0.1358 -0.0149 -0.0317
  305loPI   GL1 4869  -0.010  12.579   9.693  0.2659  0.0154 -0.0189
  305loPI   GL2 4870  -0.232  12.320   9.485  0.6183  0.0437  0.0451
  305loPI   C1A 4871  -0.035  12.639   9.180 -0.0913 -0.0001  0.0753
  305loPI   C2A 4872  -0.177  12.703   8.742 -0.1444  0.0954 -0.0726
  305loPI   C3A 4873  -0.022  12.536   8.368  0.1128  0.1378  0.0767
  305loPI   C4A 4874   0.348  12.731   8.268 -0.0384  0.2069 -0.0284
  305loPI   C5A 4875   0.668  13.125   8.420  0.2172  0.0297  0.1411
  305loPI   C6A 4876   1.138  13.205   8.623  0.0128  0.6003 -0.2297
  305loPI   C1B 4877  -0.262  12.095   9.073  0.1322 -0.2371  0.0689
  305loPI   C2B 4878  -0.246  12.112   8.579 -0.0655  0.0579 -0.1118
  305loPI   C3B 4879  -0.198  11.948   8.152 -0.2485  0.0989  0.0300
  305loPI   C4B 4880  -0.508  11.638   7.933 -0.2794  0.2309  0.1754
  306loPI    C1 4881   1.325  17.036   9.972  0.0881 -0.1857 -0.1119
  306loPI    C2 4882   1.529  16.788  10.210  0.1287 -0.2546 -0.2176
  306loPI    C3 4883   1.129  16.775  10.202  0.0955  0.1421  0.2779
  306loPI   PO4 4884   1.570  17.008   9.717  0.0779  0.2285 -0.0313
  306loPI   GL1 4885   1.527  16.854   9.350 -0.1368 -0.0793 -0.2244
  306loPI   GL2 4886   1.965  16.888   9.288  0.0408 -0.1459  0.1688
  306loPI   C1A 4887   1.532  16.816   8.990 -0.1573  0.2866 -0.0778
  306loPI   C2A 4888   1.732  16.905   8.633 -0.0528 -0.2473  0.1086
  306loPI   C3A 4889   1.550  17.061   8.285  0.0857  0.1795  0.2831
  306loPI   C4A 4890   1.748  17.313   8.064  0.0198  0.2411  0.1365
  306loPI   C5A 4891   1.842  17.516   7.758  0.0490 -0.0044 -0.2042
  306loPI   C6A 4892   1.830  17.537   7.352  0.1157  0.0398 -0.1980
  306loPI   C1B 4893   2.014  16.665   9.044  0.1809  0.4262  0.0031
  306loPI   C2B 4894   2.091  16.480   8.664 -0.0828 -0.1882  0.2211
  306loPI   C3B 4895   2.123  16.369   8.207 -0.0387  0.1298  0.0025
  306loPI   C4B 4896   1.927  16.177   7.832  0.2097 -0.0134  0.0209
  307loPI    C1 4897   6.447   6.715   9.529 -0.0674  0.2156 -0.1213
  307loPI    C2 4898   6.481   6.368   9.726  0.0946  0.2177 -0.1440
  307loPI    C3 4899   6.167   6.607   9.794 -0.1005 -0.0064 -0.2447
  307loPI   PO4 4900   6.689   6.879   9.466  0.0046 -0.0628 -0.0528
  307loPI   GL1 4901   7.044   6.976   9.126  0.1287 -0.1216  0.0452
  307loPI   GL2 4902   6.988   6.696   9.079 -0.2301  0.1350 -0.0703
  307loPI   C1A 4903   6.969   7.282   8.868 -0.0077 -0.0333 -0.0293
  307loPI   C2A 4904   6.816   7.190   8.405 -0.0383 -0.0613 -0.0700
  307loPI   C3A 4905   6.671   7.106   7.930 -0.3008 -0.1810  0.2989
  307loPI   C4A 4906   6.420   7.093   7.550  0.0058  0.2727  0.1986
  307loPI   C5A 4907   6.066   7.305   7.438 -0.2340 -0.1732 -0.4244
  307loPI   C6A 4908   5.630   7.390   7.738  0.1946  0.0095 -0.1841
  307loPI   C1B 4909   7.005   6.788   8.623 -0.0414 -0.1445  0.0245
  307loPI   C2B 4910   7.031   6.764   8.215  0.3367  0.2828 -0.1993
  307loPI   C3B 4911   7.078   6.821   7.712 -0.1781 -0.0523 -0.1988
  307loPI   C4B 4912   7.188   6.641   7.369 -0.1497 -0.2028 -0.2246
  308loPI    C1 4913   6.197  15.955  10.226 -0.0419  0.3790 -0.1310
  308loPI    C2 4914   5.883  16.090  10.436 -0.0460  0.2917 -0.0804
  308loPI    C3 4915   6.125  15.813  10.593 -0.1436  0.1050 -0.2545
  308loPI   PO4 4916   6.125  16.089   9.998 -0.1000  0.2174 -0.2071
  308loPI   GL1 4917   5.952  16.153   9.601 -0.2498  0.0813  0.1140
  308loPI   GL2 4918   5.764  15.872   9.469 -0.1423 -0.1324 -0.0841
  308loPI   C1A 4919   6.223  16.046   9.360 -0.1387 -0.2251  0.0291
  308loPI   C2A 4920   6.170  16.170   8.938 -0.1644  0.0448  0.2714
  308loPI   C3A 4921   6.211  16.330   8.471 -0.0126  0.5140  0.2923
  308loPI   C4A 4922   6.257  16.409   8.027 -0.0023  0.0442 -0.0827
  308loPI   C5A 4923   6.347  16.100   7.716  0.0796 -0.5288  0.4810
  308loPI   C6A 4924   6.266  15.658   7.802  0.1742  0.0106  0.0777
  308loPI   C1B 4925   5.682  16.116   9.054  0.0775  0.2158  0.0194
  308loPI   C2B 4926   5.605  16.088   8.588 -0.0102  0.1096  0.0657
  308loPI   C3B 4927   5.630  15.779   8.326  0.1048  0.1759  0.1292
  308loPI   C4B 4928   5.786  15.617   7.954  0.2310  0.6183  0.1029
  309loPI    C1 4929   5.250   7.532   9.820  0.0135  0.0409  0.0381
  309loPI    C2 4930   4.917   7.678   9.986 -0.2074 -0.2960 -0.0981
  309loPI    C3 4931   5.134   7.907   9.741 -0.2514 -0.0232  0.1126
  309loPI   PO4 4932   5.133   7.372   9.577 -0.1336  0.0679 -0.0013
  309loPI   GL1 4933   5.126   7.283   9.206 -0.1285 -0.4451  0.2297
  309loPI   GL2 4934   5.418   7.276   9.103  0.0055 -0.0014 -0.2403
  309loPI   C1A 4935   4.868   7.233   8.703  0.2626  0.1645  0.0438
  309loPI   C2A 4936   4.899   7.043   8.265 -0.2977  0.1411 -0.3413
  309loPI   C3A 4937   4.651   6.983   7.855 -0.2250  0.0646  0.2207
  309loPI   C4A 4938   4.600   7.367   7.704  0.2747 -0.0048  0.5879
  309loPI   C5A 4939   4.525   7.752   7.575  0.4980 -0.0305  0.3437
  309loPI   C6A 4940   4.333   8.039   7.448  0.1326 -0.2240 -0.0393
  309loPI   C1B 4941   5.274   7.558   8.811 -0.3045  0.5311 -0.1345
  309loPI   C2B 4942   5.270   7.786   8.391  0.0801 -0.1487 -0.2457
  309loPI   C3B 4943   5.325   7.763   7.990  0.2203 -0.0608 -0.1076
  309loPI   C4B 4944   5.316   7.656   7.531 -0.2247 -0.1016 -0.0314
  310loPI    C1 4945  16.221   7.743  10.234 -0.1615 -0.0474 -0.2236
  310loPI    C2 4946  16.141   7.357  10.163  0.0000 -0.1248  0.0036
  310loPI    C3 4947  15.850   7.603  10.284 -0.0481 -0.2378  0.1187
  310loPI   PO4 4948  16.441   7.755   9.987  0.2583 -0.4233  0.0656
  310loPI   GL1 4949  16.467   7.559   9.603  0.3365  0.0444  0.0180
  310loPI   GL2 4950  16.588   7.244   9.794  0.0197 -0.1416  0.3544
  310loPI   C1A 4951  16.551   7.737   9.245 -0.0940  0.0068  0.1714
  310loPI   C2A 4952  16.647   7.877   8.826  0.2569  0.2742 -0.2824
  310loPI   C3A 4953  16.641   7.774   8.421  0.1332 -0.1615 -0.2059
  310loPI   C4A 4954  16.539   7.732   7.952 -0.1203  0.0292 -0.3205
  310loPI   C5A 4955  16.528   7.538   7.585  0.1292 -0.3459 -0.1429
  310loPI   C6A 4956  16.548   7.170   7.378 -0.1481 -0.0748 -0.1011
  310loPI   C1B 4957  16.908   7.147   9.314  0.2191 -0.1882 -0.4195
  310loPI   C2B 4958  17.137   7.297   9.087  0.1653 -0.0987  0.2195
  310loPI   C3B 4959  17.328   7.230   8.674 -0.1456  0.0625  0.1384
  310loPI   C4B 4960  17.053   6.950   8.485 -0.0471 -0.2026 -0.1025
  311loPI    C1 4961   2.692   9.624  10.389 -0.1066  0.0886  0.1630
  311loPI    C2 4962   2.595   9.374  10.685  0.0294 -0.0759  0.0704
  311loPI    C3 4963   2.944   9.567  10.694 -0.0741  0.1102  0.1402
  311loPI   PO4 4964   2.692   9.469  10.162 -0.3180  0.1798  0.1891
  311loPI   GL1 4965   2.831   9.495   9.699  0.1813  0.0178 -0.2700
  311loPI   GL2 4966   2.984   9.730   9.862  0.0574  0.3338  0.0854
  311loPI   C1A 4967   2.840   9.509   9.316  0.1565 -0.2507 -0.0825
  311loPI   C2A 4968   2.805   9.576   8.880 -0.2067 -0.1184 -0.0412
  311loPI   C3A 4969   2.811   9.772   8.418 -0.0685 -0.2220 -0.0026
  311loPI   C4A 4970   2.653   9.759   7.933 -0.0872  0.0481  0.2126
  311loPI   C5A 4971   2.698   9.670   7.480  0.0764 -0.2588 -0.1724
  311loPI   C6A 4972   2.677   9.499   7.073  0.0181 -0.1376 -0.0947
  311loPI   C1B 4973   3.213   9.819   9.450 -0.3197 -0.1265  0.0895
  311loPI   C2B 4974   3.198   9.800   9.085 -0.0249  0.3280  0.0375
  311loPI   C3B 4975   3.269   9.868   8.691  0.1514 -0.1565 -0.0961
  311loPI   C4B 4976   3.261   9.825   8.254  0.0830 -0.0428  0.3570
  312loPI    C1 4977   4.934  18.656   9.955  0.0766 -0.2165 -0.1305
  312loPI    C2 4978   4.904  18.275  10.074 -0.1839 -0.1202  0.1248
  312loPI    C3 4979   4.830  18.571  10.332 -0.0676  0.1045 -0.0950
  312loPI   PO4 4980   4.803  18.704   9.775  0.1153  0.0478  0.0150
  312loPI   GL1 4981   4.898  18.824   9.328  0.0186 -0.2566 -0.0910
  312loPI   GL2 4982   5.087  19.098   9.417  0.0232  0.2390 -0.1239
  312loPI   C1A 4983   4.786  18.674   8.851 -0.0246 -0.0302  0.5927
  312loPI   C2A 4984   4.598  18.908   8.509 -0.0252  0.3050 -0.0282
  312loPI   C3A 4985   4.562  19.267   8.292 -0.2727  0.4012 -0.0476
  312loPI   C4A 4986   4.381  19.463   8.046  0.1834 -0.2500 -0.0137
  312loPI   C5A 4987   4.467  19.306   7.643 -0.5724 -0.2261  0.2805
  312loPI   C6A 4988   4.693  19.317   7.287  0.2532 -0.2996  0.4153
  312loPI   C1B 4989   5.336  19.134   9.170  0.0548 -0.1324  0.1814
  312loPI   C2B 4990   5.580  19.258   8.835 -0.0218 -0.1248 -0.2580
  312loPI   C3B 4991   5.595  19.517   8.440 -0.4056  0.1018 -0.1178
  312loPI   C4B 4992   5.799  19.886   8.404 -0.0164 -0.2651  0.3271
  313loPI    C1 4993  10.138   0.659  10.040  0.2701 -0.3860 -0.0954
  313loPI    C2 4994  10.521   0.692  10.150  0.1648  0.0219  0.1750
  313loPI    C3 4995  10.301   1.021  10.093 -0.0787 -0.2039 -0.2337
  313loPI   PO4 4996  10.023   0.424   9.855  0.0031  0.3472  0.2260
  313loPI   GL1 4997   9.705   0.149   9.583  0.2311 -0.1498 -0.0187
  313loPI   GL2 4998   9.826  -0.175   9.485 -0.2602 -0.0176  0.0044
  313loPI   C1A 4999   9.738   0.481   9.111 -0.2342 -0.2984 -0.0777
  313loPI   C2A 5000   9.538   0.714   8.724 -0.0747 -0.0833 -0.0516
  313loPI   C3A 5001   9.429   0.482   8.377  0.0622  0.1658  0.1124
  313loPI   C4A 5002   9.560   0.441   7.902 -0.0680 -0.2349  0.2184
  313loPI   C5A 5003   9.622   0.316   7.494 -0.3868  0.0394  0.0886
  313loPI   C6A 5004   9.972   0.408   7.198  0.1758 -0.2163 -0.1601
  313loPI   C1B 5005   9.774  -0.018   8.982  0.0717 -0.0139 -0.3503
  313loPI   C2B 5006   9.867   0.246   8.630  0.1287  0.3686 -0.2138
  313loPI   C3B 5007  10.063   0.244   8.204  0.2100 -0.3041  0.4005
  313loPI   C4B 5008  10.128   0.188   7.693 -0.0690  0.0053  0.2620
  314loPI    C1 5009   7.129   5.324  10.381  0.0312 -0.2967  0.1141
  314loPI    C2 5010   6.869   5.419  10.669  0.1429  0.0053  0.1178
  314loPI    C3 5011   7.252   5.347  10.760  0.1288 -0.1284  0.0732
  314loPI   PO4 5012   6.904   5.350  10.150  0.2347  0.1748  0.0291
  314loPI   GL1 5013   6.907   5.355   9.728 -0.1543  0.1885 -0.3630
  314loPI   GL2 5014   6.664   5.398   9.523  0.2896  0.0521 -0.4269
  314loPI   C1A 5015   7.027   5.188   9.294 -0.1958 -0.2013 -0.0635
  314loPI   C2A 5016   7.117   4.934   9.016  0.0965 -0.1015 -0.3533
  314loPI   C3A 5017   7.413   4.903   8.713 -0.0088 -0.0217 -0.1715
  314loPI   C4A 5018   7.565   4.710   8.390 -0.2390  0.0152  0.1907
  314loPI   C5A 5019   7.856   4.773   8.005  0.0149 -0.0513  0.0614
  314loPI   C6A 5020   7.899   4.810   7.599  0.2755  0.3712 -0.1284
  314loPI   C1B 5021   6.594   5.303   9.086  0.1104  0.0062  0.1134
  314loPI   C2B 5022   6.797   5.310   8.752  0.1555 -0.2710  0.1271
  314loPI   C3B 5023   6.878   4.926   8.527  0.3075 -0.0282 -0.0644
  314loPI   C4B 5024   6.684   4.765   8.075 -0.1088 -0.1112  0.0142
  315loPI    C1 5025  11.215   8.396   9.845 -0.1068 -0.0580 -0.1262
  315loPI    C2 5026  11.070   8.077  10.038  0.0386 -0.1252 -0.1268
  315loPI    C3 5027  11.267   8.360  10.240 -0.1527  0.0010 -0.1147
  315loPI   PO4 5028  11.230   8.230   9.609  0.0912 -0.1454 -0.0599
  315loPI   GL1 5029  11.137   8.048   9.297 -0.1803 -0.0461 -0.3039
  315loPI   GL2 5030  11.050   7.733   9.199 -0.0584 -0.3317 -0.0891
  315loPI   C1A 5031  11.129   8.343   8.880  0.0335  0.1363  0.1126
  315loPI   C2A 5032  11.158   8.326   8.406  0.2207  0.0237 -0.3097
  315loPI   C3A 5033  11.155   8.072   8.061  0.4203 -0.0493  0.0613
  315loPI   C4A 5034  11.497   8.129   7.665 -0.0554 -0.1340  0.0607
  315loPI   C5A 5035  11.825   7.924   7.477 -0.0664 -0.1799  0.0687
  315loPI   C6A 5036  12.016   7.798   7.026 -0.1678 -0.2576  0.2096
  315loPI   C1B 5037  11.140   7.844   8.835 -0.1410  0.1416  0.1152
  315loPI   C2B 5038  11.222   7.731   8.461 -0.0129  0.0775 -0.2186
  315loPI   C3B 5039  11.219   7.500   8.097 -0.1318  0.0852  0.0674
  315loPI   C4B 5040  11.050   7.233   7.702 -0.2177  0.0017 -0.1350
  316loPI    C1 5041   0.132   2.094  10.001  0.0777  0.0968  0.0670
  316loPI    C2 5042   0.317   2.110  10.356  0.2192  0.1642 -0.0087
  316loPI    C3 5043   0.080   2.411  10.239  0.0435  0.0688  0.0970
  316loPI   PO4 5044   0.160   1.906   9.892 -0.0898 -0.1059  0.0074
  316loPI   GL1 5045   0.428   1.866   9.603 -0.1753  0.1565 -0.1257
  316loPI   GL2 5046   0.830   1.915   9.525 -0.0629 -0.0709 -0.0552
  316loPI   C1A 5047   0.439   1.876   9.167 -0.1340 -0.0620  0.2516
  316loPI   C2A 5048   0.368   1.790   8.661 -0.0525  0.2643 -0.0946
  316loPI   C3A 5049   0.245   1.591   8.211  0.4300  0.1095  0.1011
  316loPI   C4A 5050   0.098   1.819   7.850 -0.0700 -0.0189 -0.2535
  316loPI   C5A 5051  -0.221   2.099   7.633  0.2158  0.2336  0.4087
  316loPI   C6A 5052  -0.177   2.561   7.482  0.2629  0.1115  0.0761
  316loPI   C1B 5053   0.986   1.883   9.110 -0.2231  0.0040  0.2723
  316loPI   C2B 5054   0.950   1.875   8.706  0.2981  0.2534  0.3330
  316loPI   C3B 5055   1.117   2.102   8.266  0.1982  0.3483  0.1260
  316loPI   C4B 5056   0.951   2.284   7.879  0.2630  0.0947 -0.1296
  317loPI    C1 5057   3.046   5.524   9.414 -0.2796  0.2198  0.1929
  317loPI    C2 5058   3.226   5.696   9.728 -0.3281  0.1724  0.2469
  317loPI    C3 5059   3.010   5.362   9.778 -0.2226  0.0872  0.1401
  317loPI   PO4 5060   3.149   5.445   9.192  0.2540  0.4171  0.0182
  317loPI   GL1 5061   3.359   5.488   8.907  0.0478  0.3053  0.1271
  317loPI   GL2 5062   3.598   5.535   8.873  0.0678 -0.0820 -0.1211
  317loPI   C1A 5063   3.146   5.391   8.459  0.0309  0.0184 -0.1220
  317loPI   C2A 5064   3.132   5.470   8.071 -0.0928 -0.7191  0.4010
  317loPI   C3A 5065   3.159   5.790   7.716  0.0699  0.1143 -0.1693
  317loPI   C4A 5066   3.289   5.859   7.261 -0.0535  0.0585 -0.1303
  317loPI   C5A 5067   3.108   5.941   6.947  0.3811 -0.0088 -0.0201
  317loPI   C6A 5068   2.597   6.058   6.963  0.0937 -0.0806 -0.0168
  317loPI   C1B 5069   3.586   5.513   8.375 -0.1836 -0.1666  0.2374
  317loPI   C2B 5070   3.655   5.370   7.939 -0.1011 -0.0256 -0.4053
  317loPI   C3B 5071   3.664   5.607   7.535 -0.0579 -0.0046 -0.1847
  317loPI   C4B 5072   3.789   5.682   7.185  0.1780 -0.1712 -0.0765
  318loPI    C1 5073   8.201   9.385   9.881  0.1246  0.1905 -0.0038
  318loPI    C2 5074   8.413   9.608  10.137 -0.0174  0.1791  0.1249
  318loPI    C3 5075   8.028   9.527  10.213 -0.0464  0.1323 -0.0670
  318loPI   PO4 5076   8.308   9.443   9.667 -0.2850 -0.0303  0.2046
  318loPI   GL1 5077   8.327   9.588   9.326 -0.0605  0.2601  0.0095
  318loPI   GL2 5078   8.526   9.568   9.026  0.0337  0.4547  0.2102
  318loPI   C1A 5079   8.063   9.425   8.946 -0.1035  0.1767  0.2019
  318loPI   C2A 5080   7.956   9.517   8.535  0.2434 -0.1831 -0.7974
  318loPI   C3A 5081   7.830   9.497   8.016 -0.0495  0.0104  0.3591
  318loPI   C4A 5082   7.842   9.757   7.622  0.2147  0.2763 -0.0549
  318loPI   C5A 5083   7.763   9.582   7.167  0.1631 -0.2367 -0.0741
  318loPI   C6A 5084   7.719   9.257   6.942  0.0614 -0.0120 -0.1491
  318loPI   C1B 5085   8.458   9.644   8.623 -0.0058  0.0901  0.3271
  318loPI   C2B 5086   8.296   9.763   8.262 -0.2476 -0.0285 -0.0567
  318loPI   C3B 5087   8.293   9.638   7.854  0.2190  0.1408  0.0570
  318loPI   C4B 5088   8.551   9.268   7.653 -0.0600  0.3076 -0.3363
  319loPI    C1 5089  11.200   5.781   9.661  0.0881 -0.0164  0.1785
  319loPI    C2 5090  10.803   5.790   9.611  0.1056 -0.0182  0.0380
  319loPI    C3 5091  10.971   5.988   9.915  0.0172  0.1673 -0.0322
  319loPI   PO4 5092  11.285   5.765   9.425 -0.0262  0.0690  0.1671
  319loPI   GL1 5093  11.240   5.837   8.994  0.2498  0.1598  0.2251
  319loPI   GL2 5094  10.859   5.801   9.104 -0.1059  0.0501  0.0085
  319loPI   C1A 5095  11.124   6.168   8.627  0.2289 -0.2175 -0.2384
  319loPI   C2A 5096  11.287   6.336   8.284 -0.0888  0.0242  0.1600
  319loPI   C3A 5097  11.442   6.486   7.834 -0.1855  0.1535 -0.0257
  319loPI   C4A 5098  11.717   6.514   7.537 -0.0351  0.0677 -0.5159
  319loPI   C5A 5099  11.919   6.890   7.351  0.2070  0.0883  0.2360
  319loPI   C6A 5100  12.003   7.264   7.581 -0.1872 -0.1593  0.1331
  319loPI   C1B 5101  10.825   5.768   8.727 -0.1200 -0.1338  0.0456
  319loPI   C2B 5102  10.887   5.576   8.283  0.2374  0.0801  0.0565
  319loPI   C3B 5103  11.161   5.300   8.086  0.3192 -0.0074  0.0028
  319loPI   C4B 5104  11.494   5.036   8.160 -0.0241  0.3105  0.2401
  320loPI    C1 5105   9.500   5.608   9.484 -0.0071  0.2249 -0.0405
  320loPI    C2 5106   9.291   5.333   9.686 -0.0052  0.1377 -0.1561
  320loPI    C3 5107   9.233   5.380   9.293  0.2508  0.0555 -0.2054
  320loPI   PO4 5108   9.495   5.908   9.485 -0.2359  0.0839 -0.0635
  320loPI   GL1 5109   9.497   6.061   9.036 -0.1005  0.0178 -0.0500
  320loPI   GL2 5110   9.691   6.419   8.964  0.0129 -0.0079 -0.0906
  320loPI   C1A 5111   9.283   5.824   8.732  0.2272  0.1471 -0.0637
  320loPI   C2A 5112   9.189   5.403   8.461 -0.1481  0.5435 -0.0868
  320loPI   C3A 5113   9.298   5.355   8.018 -0.0509 -0.0865 -0.1411
  320loPI   C4A 5114   9.467   5.624   7.680  0.0404 -0.2033 -0.2495
  320loPI   C5A 5115   9.786   6.001   7.637  0.1939 -0.1821  0.1708
  320loPI   C6A 5116  10.177   6.091   7.821  0.0190  0.2515 -0.0124
  320loPI   C1B 5117   9.816   6.240   8.591  0.0511  0.1677  0.1757
  320loPI   C2B 5118  10.055   5.984   8.362 -0.1560  0.2499 -0.0135
  320loPI   C3B 5119   9.945   5.674   7.968 -0.1332  0.0400 -0.2739
  320loPI   C4B 5120   9.930   5.581   7.465  0.0101  0.3854  0.2545
  321loPI    C1 5121   9.758   4.471  10.058 -0.0985  0.0495 -0.2068
  321loPI    C2 5122   9.690   4.274  10.400  0.0277 -0.1434 -0.2911
  321loPI    C3 5123   9.776   4.665  10.408 -0.1777 -0.0998 -0.1188
  321loPI   PO4 5124   9.645   4.428   9.940  0.0889  0.2511 -0.2570
  321loPI   GL1 5125   9.673   4.293   9.454  0.1959 -0.2425  0.1512
  321loPI   GL2 5126   9.947   4.027   9.341  0.5998  0.1774 -0.0670
  321loPI   C1A 5127   9.789   4.585   9.045  0.0741  0.3456  0.0774
  321loPI   C2A 5128   9.935   4.461   8.678  0.1644  0.1725  0.3110
  321loPI   C3A 5129  10.109   4.357   8.267 -0.1479  0.0784 -0.2738
  321loPI   C4A 5130  10.437   4.102   8.111 -0.1954 -0.1162 -0.0659
  321loPI   C5A 5131  10.509   3.928   7.683  0.0248 -0.4884 -0.3092
  321loPI   C6A 5132  10.672   3.461   7.588 -0.4147 -0.0610  0.2348
  321loPI   C1B 5133  10.007   3.732   9.024 -0.1526  0.0970  0.1855
  321loPI   C2B 5134  10.064   3.307   9.167  0.1146 -0.0640 -0.1067
  321loPI   C3B 5135  10.058   3.035   8.870  0.1017 -0.1962 -0.1656
  321loPI   C4B 5136  10.254   3.059   8.439  0.0584  0.1186  0.4566
  322loPI    C1 5137   8.401  11.739   9.802 -0.1594  0.0666 -0.1936
  322loPI    C2 5138   8.264  11.869  10.154  0.0391  0.0765 -0.1188
  322loPI    C3 5139   8.366  11.485  10.109  0.2513  0.1279 -0.0896
  322loPI   PO4 5140   8.207  11.895   9.629  0.0813  0.0381  0.0121
  322loPI   GL1 5141   8.288  12.131   9.311  0.0696 -0.0829 -0.2759
  322loPI   GL2 5142   8.085  12.260   9.081  0.0364 -0.3187 -0.1399
  322loPI   C1A 5143   8.545  12.101   8.878  0.0622 -0.0186  0.2686
  322loPI   C2A 5144   8.539  11.928   8.520  0.0409 -0.1308  0.0508
  322loPI   C3A 5145   8.336  11.971   8.051 -0.0805 -0.0108 -0.3098
  322loPI   C4A 5146   8.201  12.106   7.616 -0.0501 -0.0858 -0.0794
  322loPI   C5A 5147   7.977  12.214   7.357  0.1755  0.3377  0.0544
  322loPI   C6A 5148   7.836  12.431   7.049 -0.0361  0.1037 -0.2159
  322loPI   C1B 5149   8.124  12.382   8.706 -0.2160  0.0834  0.1723
  322loPI   C2B 5150   8.354  12.382   8.342 -0.3073 -0.0737 -0.0761
  322loPI   C3B 5151   8.512  12.652   7.981 -0.2468 -0.0804  0.2350
  322loPI   C4B 5152   8.673  12.778   7.616 -0.3060  0.0169  0.1656
  323loPI    C1 5153  11.471   0.710   9.709  0.2326  0.1052 -0.1096
  323loPI    C2 5154  11.584   0.738  10.092 -0.1078  0.1279 -0.0075
  323loPI    C3 5155  11.490   0.382   9.937  0.0118  0.1212 -0.0663
  323loPI   PO4 5156  11.486   0.978   9.603  0.2429  0.1965  0.2364
  323loPI   GL1 5157  11.430   1.185   9.285 -0.0217 -0.0639  0.1539
  323loPI   GL2 5158  11.802   1.097   9.218 -0.0862 -0.3667 -0.0871
  323loPI   C1A 5159  11.233   1.602   9.010 -0.2693  0.0856  0.0579
  323loPI   C2A 5160  11.392   1.861   8.722 -0.0697 -0.0745  0.0498
  323loPI   C3A 5161  11.545   1.779   8.237  0.1067  0.0195  0.3000
  323loPI   C4A 5162  11.806   1.569   7.883  0.0481  0.2054  0.2490
  323loPI   C5A 5163  12.141   1.396   7.912  0.0745  0.1406  0.2794
  323loPI   C6A 5164  12.441   1.248   7.680  0.2670  0.1594  0.1454
  323loPI   C1B 5165  11.908   1.040   8.823 -0.2632 -0.1514  0.0471
  323loPI   C2B 5166  11.863   0.772   8.472 -0.1746 -0.0346  0.0943
  323loPI   C3B 5167  12.036   0.538   8.182  0.0845  0.0809  0.3405
  323loPI   C4B 5168  11.866   0.431   7.805 -0.2439 -0.0715 -0.2275
  324loPI    C1 5169   4.763   5.442   9.546  0.1266  0.2279 -0.0154
  324loPI    C2 5170   4.667   5.136   9.785 -0.0173  0.0980 -0.2353
  324loPI    C3 5171   4.573   5.510   9.892  0.2404  0.0778  0.0779
  324loPI   PO4 5172   4.672   5.400   9.304  0.2950  0.1159 -0.0792
  324loPI   GL1 5173   4.392   5.318   8.959 -0.2168 -0.0840  0.0488
  324loPI   GL2 5174   4.410   5.029   8.930 -0.0432  0.0175  0.0637
  324loPI   C1A 5175   4.061   5.439   8.683  0.1091 -0.0776 -0.1390
  324loPI   C2A 5176   4.041   5.304   8.207  0.0493 -0.0953 -0.1669
  324loPI   C3A 5177   4.126   5.268   7.724  0.2428  0.0695 -0.0084
  324loPI   C4A 5178   3.881   5.195   7.343  0.1395 -0.1211  0.1081
  324loPI   C5A 5179   3.525   5.287   7.055  0.0046 -0.1593 -0.1671
  324loPI   C6A 5180   3.352   5.361   6.583  0.1459 -0.0338 -0.3308
  324loPI   C1B 5181   4.290   4.996   8.515  0.0807 -0.1358 -0.1915
  324loPI   C2B 5182   4.193   4.799   8.098 -0.1304  0.0541  0.0685
  324loPI   C3B 5183   4.248   4.748   7.732 -0.0686  0.0930  0.2747
  324loPI   C4B 5184   4.038   4.730   7.410 -0.2176  0.0424 -0.0264
  325loPI    C1 5185  16.800   7.143  10.229  0.0133 -0.0717  0.0592
  325loPI    C2 5186  16.451   7.120  10.423 -0.0616 -0.0364 -0.0703
  325loPI    C3 5187  16.623   7.476  10.361 -0.1378 -0.0285 -0.2428
  325loPI   PO4 5188  16.917   6.985  10.328  0.0713 -0.3608  0.1504
  325loPI   GL1 5189  16.892   6.645  10.044 -0.2168  0.4856  0.2591
  325loPI   GL2 5190  16.593   6.378   9.924  0.0474 -0.1223  0.0272
  325loPI   C1A 5191  17.097   6.400   9.805  0.0257  0.1813  0.3870
  325loPI   C2A 5192  17.408   6.230   9.393  0.2773  0.0940 -0.1596
  325loPI   C3A 5193  17.412   6.239   8.992 -0.0168  0.0248  0.1690
  325loPI   C4A 5194  17.621   6.313   8.675  0.1865  0.0205  0.0146
  325loPI   C5A 5195  17.546   6.410   8.250 -0.0632 -0.1054  0.0992
  325loPI   C6A 5196  17.671   6.404   7.787  0.0409 -0.2772  0.2371
  325loPI   C1B 5197  16.577   6.616   9.552  0.1264 -0.0360 -0.2408
  325loPI   C2B 5198  16.753   6.750   9.115 -0.1173 -0.2082  0.0760
  325loPI   C3B 5199  16.654   6.856   8.730  0.0322  0.1133  0.0342
  325loPI   C4B 5200  16.557   6.853   8.306  0.1056  0.0357  0.1283
  326loPI    C1 5201   7.557  10.014  10.224 -0.1927 -0.1063 -0.1406
  326loPI    C2 5202   7.549   9.644  10.376 -0.2186 -0.0470  0.0047
  326loPI    C3 5203   7.832   9.901  10.492 -0.2482  0.0042 -0.0362
  326loPI   PO4 5204   7.565   9.855   9.889 -0.0672 -0.2368  0.2050
  326loPI   GL1 5205   7.398   9.809   9.485  0.3512  0.2899 -0.1493
  326loPI   GL2 5206   7.101   9.695   9.567  0.2093  0.0872 -0.0747
  326loPI   C1A 5207   7.393   9.714   9.058 -0.0681 -0.0510 -0.0693
  326loPI   C2A 5208   7.208   9.874   8.652  0.1076 -0.0021 -0.2215
  326loPI   C3A 5209   7.127   9.904   8.195 -0.1087 -0.3396  0.5288
  326loPI   C4A 5210   7.020  10.073   7.828 -0.4457 -0.1700 -0.2695
  326loPI   C5A 5211   6.837  10.334   7.811 -0.0526 -0.0213  0.1048
  326loPI   C6A 5212   6.808  10.633   7.454 -0.3110  0.2669 -0.2608
  326loPI   C1B 5213   7.036  10.009   9.197  0.0323  0.0664 -0.1927
  326loPI   C2B 5214   6.924  10.219   8.810  0.0290  0.2898 -0.0494
  326loPI   C3B 5215   6.788  10.248   8.308  0.1986 -0.2297 -0.1122
  326loPI   C4B 5216   6.518  10.471   8.122 -0.2142  0.0769  0.3479
  327loPI    C1 5217   2.836   6.524   9.895 -0.0876  0.0415 -0.0203
  327loPI    C2 5218   3.089   6.216   9.860 -0.0109  0.1135 -0.1051
  327loPI    C3 5219   2.929   6.304  10.216 -0.0249 -0.0173 -0.0785
  327loPI   PO4 5220   2.780   6.546   9.563  0.1428  0.2020 -0.0292
  327loPI   GL1 5221   2.649   6.398   9.208 -0.0534  0.3527  0.0225
  327loPI   GL2 5222   2.622   6.711   9.094  0.2879 -0.2669  0.0337
  327loPI   C1A 5223   2.421   6.443   8.780  0.1065 -0.2220 -0.1486
  327loPI   C2A 5224   2.253   6.676   8.544  0.1196 -0.3018 -0.2664
  327loPI   C3A 5225   2.231   6.840   8.122 -0.0162 -0.2659  0.1737
  327loPI   C4A 5226   2.363   6.887   7.689 -0.0528 -0.0006  0.3040
  327loPI   C5A 5227   2.262   6.603   7.213  0.2199 -0.0224  0.3174
  327loPI   C6A 5228   2.163   6.256   7.033  0.1289  0.3062  0.2883
  327loPI   C1B 5229   2.771   6.861   8.746 -0.2954  0.1252 -0.0482
  327loPI   C2B 5230   2.755   6.743   8.379  0.3914 -0.1134 -0.1319
  327loPI   C3B 5231   2.700   7.025   8.085 -0.6270  0.2605  0.1625
  327loPI   C4B 5232   2.838   7.075   7.691  0.1196  0.0217 -0.1510
  328loPI    C1 5233  14.207   5.922  10.240  0.1232 -0.1410 -0.1662
  328loPI    C2 5234  13.960   5.741   9.982  0.0658 -0.2968 -0.0045
  328loPI    C3 5235  13.994   5.604  10.356 -0.1117  0.1329  0.1757
  328loPI   PO4 5236  14.395   6.053  10.062  0.4556  0.1255 -0.0977
  328loPI   GL1 5237  14.301   6.241   9.628  0.0259  0.2717 -0.2976
  328loPI   GL2 5238  14.068   6.039   9.512 -0.1967 -0.2460 -0.1546
  328loPI   C1A 5239  14.437   6.506   9.297  0.0378  0.0969 -0.0196
  328loPI   C2A 5240  14.505   6.717   8.917  0.0556 -0.0521  0.0310
  328loPI   C3A 5241  14.643   6.692   8.375  0.0471  0.0974  0.1925
  328loPI   C4A 5242  14.796   6.770   8.048 -0.0018 -0.1747 -0.2819
  328loPI   C5A 5243  14.925   7.025   7.620 -0.1116 -0.1131  0.0126
  328loPI   C6A 5244  15.077   7.363   7.457  0.0243  0.0698  0.0066
  328loPI   C1B 5245  13.914   6.025   9.070  0.1222  0.1917 -0.0928
  328loPI   C2B 5246  14.062   6.076   8.683 -0.1334  0.1994 -0.0866
  328loPI   C3B 5247  13.842   6.360   8.292  0.1921  0.2746  0.1975
  328loPI   C4B 5248  13.894   6.418   7.908 -0.0282  0.0627 -0.1560
  329loPI    C1 5249   9.540  15.688  10.271 -0.0424 -0.0707  0.2963
  329loPI    C2 5250   9.181  15.858  10.319 -0.0444 -0.0447  0.1907
  329loPI    C3 5251   9.511  16.084  10.326 -0.0532 -0.0232 -0.0347
  329loPI   PO4 5252   9.527  15.427  10.210 -0.1906  0.0271 -0.3339
  329loPI   GL1 5253   9.441  15.416   9.753 -0.0714  0.1894  0.4952
  329loPI   GL2 5254   9.474  15.743   9.730  0.2019  0.0342 -0.0866
  329loPI   C1A 5255   9.359  15.200   9.410  0.0121 -0.2711 -0.3041
  329loPI   C2A 5256   9.050  15.087   9.126  0.1434  0.1231  0.2944
  329loPI   C3A 5257   8.952  15.059   8.668  0.1887  0.1814 -0.1658
  329loPI   C4A 5258   8.747  15.036   8.243  0.3590  0.0034  0.0248
  329loPI   C5A 5259   8.810  15.046   7.911 -0.2511  0.2167 -0.0424
  329loPI   C6A 5260   8.733  15.359   7.527  0.3400 -0.0372  0.0181
  329loPI   C1B 5261   9.332  15.797   9.364  0.1615 -0.0518 -0.2050
  329loPI   C2B 5262   9.184  15.627   9.030 -0.0631  0.1744 -0.3989
  329loPI   C3B 5263   9.160  15.525   8.569  0.0951 -0.0098 -0.1108
  329loPI   C4B 5264   9.061  15.804   8.247  0.0102  0.1796 -0.0047
  330loPI    C1 5265  16.955  11.728   9.985 -0.1165  0.1397  0.0517
  330loPI    C2 5266  16.601  11.544   9.954 -0.0611 -0.0255  0.3593
  330loPI    C3 5267  16.834  11.477  10.273  0.2647  0.0533  0.1429
  330loPI   PO4 5268  17.029  11.672   9.743  0.0909  0.0687 -0.0083
  330loPI   GL1 5269  17.186  11.738   9.359 -0.1503  0.1354  0.1111
  330loPI   GL2 5270  16.951  11.989   9.208  0.1434  0.0084  0.0667
  330loPI   C1A 5271  17.128  11.593   8.932  0.0168  0.1121 -0.2026
  330loPI   C2A 5272  16.970  11.475   8.502 -0.2172  0.0380 -0.0330
  330loPI   C3A 5273  16.673  11.186   8.232 -0.1482 -0.0023 -0.2130
  330loPI   C4A 5274  16.855  10.851   7.958  0.1775 -0.0000  0.3683
  330loPI   C5A 5275  17.188  10.794   7.732 -0.1163  0.1852 -0.2135
  330loPI   C6A 5276  17.470  10.542   7.478 -0.0020 -0.0726 -0.0026
  330loPI   C1B 5277  16.858  11.959   8.816 -0.1534  0.2660 -0.0235
  330loPI   C2B 5278  17.014  11.936   8.424 -0.2265  0.0528  0.1255
  330loPI   C3B 5279  17.192  11.996   8.141  0.0428  0.4571 -0.3135
  330loPI   C4B 5280  17.167  11.749   7.817  0.0766  0.0864 -0.1385
  331loPI    C1 5281  16.499   5.578  10.576  0.1435  0.1114 -0.1752
  331loPI    C2 5282  16.505   5.603  10.975  0.3084 -0.3095 -0.1462
  331loPI    C3 5283  16.156   5.605  10.779  0.2258 -0.1250 -0.0006
  331loPI   PO4 5284  16.747   5.677  10.388  0.0613  0.1285  0.2215
  331loPI   GL1 5285  16.921   5.796   9.862 -0.1173  0.0631 -0.3685
  331loPI   GL2 5286  17.283   5.887   9.799  0.0994  0.1255 -0.0680
  331loPI   C1A 5287  16.909   6.094   9.466  0.1592 -0.2693 -0.1085
  331loPI   C2A 5288  16.921   6.284   9.112  0.3154 -0.1474 -0.0769
  331loPI   C3A 5289  17.008   6.444   8.641  0.2004  0.2646  0.1207
  331loPI   C4A 5290  17.085   6.477   8.276 -0.0557  0.1000  0.1171
  331loPI   C5A 5291  17.192   6.898   8.007 -0.1739  0.3787  0.0142
  331loPI   C6A 5292  17.072   6.987   7.571 -0.0162  0.0458  0.1932
  331loPI   C1B 5293  17.220   5.698   9.449  0.4349 -0.3949  0.0003
  331loPI   C2B 5294  17.304   5.775   9.049  0.1828 -0.1522  0.1069
  331loPI   C3B 5295  17.206   5.942   8.607 -0.2290  0.2251 -0.1985
  331loPI   C4B 5296  16.937   5.921   8.426  0.2758 -0.1393 -0.0468
  332loPI    C1 5297  12.805  12.200   9.768 -0.1168 -0.1057 -0.1944
  332loPI    C2 5298  12.764  12.358  10.133 -0.1567 -0.2199 -0.1491
  332loPI    C3 5299  13.067  12.108  10.056 -0.1317 -0.1732 -0.2023
  332loPI   PO4 5300  12.735  12.440   9.561 -0.3564 -0.0661  0.0680
  332loPI   GL1 5301  12.830  12.418   9.094  0.1244  0.0117 -0.3385
  332loPI   GL2 5302  12.932  12.119   8.871  0.1626 -0.2013 -0.0357
  332loPI   C1A 5303  12.475  12.328   8.862  0.2463 -0.0357  0.2107
  332loPI   C2A 5304  12.424  11.998   8.599  0.1502  0.1034  0.0327
  332loPI   C3A 5305  12.193  11.889   8.257 -0.2025  0.0362 -0.0417
  332loPI   C4A 5306  12.408  11.527   8.024  0.1162  0.1127  0.0735
  332loPI   C5A 5307  12.576  11.196   7.828 -0.1276  0.2540 -0.3106
  332loPI   C6A 5308  12.555  10.934   7.416  0.0441  0.2225 -0.0364
  332loPI   C1B 5309  12.864  12.111   8.451  0.0257 -0.1014 -0.2457
  332loPI   C2B 5310  12.616  12.039   8.057  0.0217 -0.1215 -0.3763
  332loPI   C3B 5311  12.571  11.869   7.640  0.1211 -0.3807  0.0046
  332loPI   C4B 5312  12.547  11.485   7.398 -0.1091  0.0603  0.1286
  333loPI    C1 5313   9.740  16.482  10.116  0.0436 -0.0223 -0.0700
  333loPI    C2 5314   9.970  16.323  10.402  0.1114  0.0467 -0.0859
  333loPI    C3 5315   9.645  16.533  10.501  0.1920  0.1583 -0.0559
  333loPI   PO4 5316   9.981  16.525   9.939  0.2462  0.1466  0.1711
  333loPI   GL1 5317   9.917  16.456   9.596  0.1376  0.0785  0.3174
  333loPI   GL2 5318   9.987  16.785   9.545 -0.1041  0.1062  0.1004
  333loPI   C1A 5319   9.814  16.645   9.143 -0.1134 -0.0601 -0.2728
  333loPI   C2A 5320   9.667  16.633   8.758  0.0326 -0.0478  0.1237
  333loPI   C3A 5321   9.650  16.608   8.281  0.0765  0.3093 -0.3255
  333loPI   C4A 5322   9.373  16.515   7.980  0.1032 -0.1535 -0.0102
  333loPI   C5A 5323   8.968  16.212   7.917  0.0152 -0.4539  0.0269
  333loPI   C6A 5324   8.830  15.859   7.727 -0.0463  0.2671 -0.1741
  333loPI   C1B 5325  10.028  17.107   9.195 -0.0827  0.4392 -0.2508
  333loPI   C2B 5326  10.043  17.163   8.805 -0.0229 -0.0369 -0.0495
  333loPI   C3B 5327   9.869  17.046   8.423 -0.3164 -0.0175 -0.0666
  333loPI   C4B 5328   9.432  17.111   8.181  0.1469  0.0653 -0.0479
  334loPI    C1 5329   3.291  14.466  10.286  0.1222 -0.3041 -0.1645
  334loPI    C2 5330   3.185  14.083  10.331 -0.2933 -0.1878 -0.1088
  334loPI    C3 5331   3.142  14.339  10.635 -0.0048 -0.0975 -0.1415
  334loPI   PO4 5332   3.193  14.536  10.090 -0.1677 -0.2940 -0.0998
  334loPI   GL1 5333   2.919  14.425   9.685 -0.4803 -0.0645 -0.2753
  334loPI   GL2 5334   2.889  14.150   9.828 -0.2113  0.1575 -0.0426
  334loPI   C1A 5335   2.559  14.332   9.464  0.2854 -0.0682 -0.1378
  334loPI   C2A 5336   2.354  14.531   9.115  0.1004 -0.0544 -0.0359
  334loPI   C3A 5337   2.629  14.628   8.800  0.1319 -0.1237 -0.2026
  334loPI   C4A 5338   2.561  14.570   8.317  0.1891  0.0390  0.2770
  334loPI   C5A 5339   2.421  14.401   7.863  0.1087  0.1584 -0.1325
  334loPI   C6A 5340   2.352  14.678   7.530  0.1158 -0.0699 -0.2155
  334loPI   C1B 5341   2.617  13.870   9.566 -0.2028 -0.0550 -0.0261
  334loPI   C2B 5342   2.490  13.614   9.206  0.1932 -0.0972  0.0028
  334loPI   C3B 5343   2.296  13.588   8.920 -0.1199 -0.2927 -0.3598
  334loPI   C4B 5344   2.168  13.874   8.678 -0.0781 -0.2730  0.0932
  335loPI    C1 5345  11.043   6.267   9.485  0.0117 -0.0762 -0.0702
  335loPI    C2 5346  11.084   6.498   9.809  0.1774  0.0180 -0.1572
  335loPI    C3 5347  11.379   6.250   9.700  0.0115 -0.2172 -0.0797
  335loPI   PO4 5348  11.027   6.308   9.253 -0.1654 -0.0782 -0.2942
  335loPI   GL1 5349  10.910   6.539   8.902 -0.3399  0.2901  0.0650
  335loPI   GL2 5350  10.580   6.825   8.964  0.0707 -0.2164 -0.1043
  335loPI   C1A 5351  10.795   6.648   8.485 -0.0937  0.2198 -0.3535
  335loPI   C2A 5352  10.621   6.355   8.174 -0.0154 -0.0261  0.4634
  335loPI   C3A 5353  10.809   6.114   7.854 -0.3204 -0.0841  0.3976
  335loPI   C4A 5354  11.212   6.020   7.742  0.1372 -0.0808 -0.2597
  335loPI   C5A 5355  11.460   6.142   7.388  0.1429  0.1370  0.1353
  335loPI   C6A 5356  11.625   6.034   6.975 -0.2109 -0.0547 -0.2469
  335loPI   C1B 5357  10.421   7.009   8.684  0.1346 -0.0817  0.0415
  335loPI   C2B 5358  10.104   6.989   8.369  0.2840  0.0530 -0.1549
  335loPI   C3B 5359  10.197   7.147   7.963 -0.0339  0.0990  0.3135
  335loPI   C4B 5360  10.539   7.002   7.688  0.1889 -0.0050 -0.0790
  336loPI    C1 5361   3.041  13.464  10.570 -0.1032  0.3044 -0.2886
  336loPI    C2 5362   2.840  13.807  10.613 -0.1021  0.2569  0.1376
  336loPI    C3 5363   3.001  13.628  10.933 -0.0578 -0.1156 -0.0876
  336loPI   PO4 5364   2.805  13.327  10.370 -0.1414 -0.1029 -0.0225
  336loPI   GL1 5365   2.611  13.184  10.019 -0.0405 -0.0228  0.1177
  336loPI   GL2 5366   2.778  12.865   9.946 -0.1772 -0.1207 -0.1716
  336loPI   C1A 5367   2.417  13.484   9.794  0.0500 -0.2142 -0.0125
  336loPI   C2A 5368   2.037  13.550   9.591 -0.0635  0.1840 -0.0937
  336loPI   C3A 5369   1.864  13.732   9.191 -0.2672 -0.1478 -0.4160
  336loPI   C4A 5370   1.781  14.074   8.912  0.0359 -0.1461  0.0617
  336loPI   C5A 5371   1.749  13.993   8.428 -0.1264 -0.1290 -0.2688
  336loPI   C6A 5372   1.445  14.253   8.124  0.1384  0.1488  0.0355
  336loPI   C1B 5373   2.727  12.858   9.579 -0.0469 -0.1697 -0.2592
  336loPI   C2B 5374   2.759  13.111   9.249  0.0258 -0.0134  0.1096
  336loPI   C3B 5375   2.642  13.272   8.896  0.1192  0.0281 -0.0041
  336loPI   C4B 5376   2.657  12.970   8.537  0.0668  0.2533 -0.5282
  337loPI    C1 5377  13.491   5.171   9.783  0.1787 -0.2126 -0.0384
  337loPI    C2 5378  13.851   5.276   9.922  0.0838 -0.0831  0.1122
  337loPI    C3 5379  13.525   5.477  10.039 -0.0400 -0.2132 -0.0068
  337loPI   PO4 5380  13.597   5.144   9.486  0.1494  0.2081 -0.0370
  337loPI   GL1 5381  13.862   5.273   9.190  0.1505  0.0627  0.2775
  337loPI   GL2 5382  13.810   5.283   8.900  0.1225  0.2017 -0.0880
  337loPI   C1A 5383  14.126   5.588   9.063  0.2621  0.0711 -0.0710
  337loPI   C2A 5384  14.419   5.683   8.826  0.0046 -0.0481 -0.2646
  337loPI   C3A 5385  14.562   5.799   8.369  0.1615 -0.3273  0.2487
  337loPI   C4A 5386  14.598   5.688   7.911  0.1970  0.0741  0.0470
  337loPI   C5A 5387  14.351   5.464   7.525 -0.0192  0.0905 -0.2647
  337loPI   C6A 5388  14.173   5.302   7.218 -0.1086  0.0780  0.0060
  337loPI   C1B 5389  13.825   5.281   8.476  0.0957  0.0594  0.1875
  337loPI   C2B 5390  13.934   5.713   8.301  0.0632 -0.1449  0.0315
  337loPI   C3B 5391  14.160   5.852   8.006 -0.4754  0.2028  0.1200
  337loPI   C4B 5392  14.285   6.061   7.670  0.2305  0.5515  0.1101
  338loPI    C1 5393   2.510   7.395  10.005 -0.2935 -0.1326  0.0040
  338loPI    C2 5394   2.558   7.519  10.382 -0.1867  0.1496 -0.1003
  338loPI    C3 5395   2.599   7.131  10.293  0.3820  0.1580  0.0802
  338loPI   PO4 5396   2.299   7.534   9.836 -0.1462 -0.4415 -0.0981
  338loPI   GL1 5397   2.160   7.342   9.479 -0.0965  0.1852 -0.1203
  338loPI   GL2 5398   2.166   7.094   9.378 -0.2922 -0.1581 -0.1890
  338loPI   C1A 5399   1.993   7.452   9.055 -0.1994  0.1604 -0.1468
  338loPI   C2A 5400   1.980   7.548   8.519  0.1513 -0.0113 -0.0070
  338loPI   C3A 5401   1.955   7.726   8.184  0.0564 -0.0416  0.0923
  338loPI   C4A 5402   2.182   7.847   7.836 -0.2463  0.0499 -0.0731
  338loPI   C5A 5403   2.389   7.903   7.426  0.0723 -0.1005  0.4348
  338loPI   C6A 5404   2.472   8.114   7.052  0.2324 -0.3578 -0.3830
  338loPI   C1B 5405   2.223   6.946   8.959 -0.3530  0.1458  0.0446
  338loPI   C2B 5406   2.313   7.176   8.569  0.0241 -0.1068 -0.0988
  338loPI   C3B 5407   2.334   7.346   8.143  0.1259  0.1609  0.0025
  338loPI   C4B 5408   2.541   7.531   7.801 -0.0078 -0.3479  0.0002
  339loPI    C1 5409   6.600  13.774  10.000 -0.2666  0.0358  0.0764
  339loPI    C2 5410   6.844  13.608  10.270  0.0419  0.2421 -0.0696
  339loPI    C3 5411   6.553  13.856  10.388 -0.1560 -0.0703  0.1128
  339loPI   PO4 5412   6.795  13.836   9.742  0.2495  0.1167 -0.2203
  339loPI   GL1 5413   6.709  13.681   9.348  0.3185 -0.2671  0.1847
  339loPI   GL2 5414   6.436  13.613   9.267 -0.0002  0.3683 -0.3367
  339loPI   C1A 5415   6.454  14.078   9.263 -0.1506 -0.0029 -0.1991
  339loPI   C2A 5416   6.190  14.105   8.861  0.0670 -0.0516 -0.3816
  339loPI   C3A 5417   5.953  14.095   8.458  0.3393  0.1450  0.1538
  339loPI   C4A 5418   6.011  14.366   8.191 -0.2672 -0.1214 -0.0822
  339loPI   C5A 5419   6.365  14.321   7.905  0.0260 -0.0770  0.3339
  339loPI   C6A 5420   6.348  14.333   7.471  0.3042  0.1508 -0.0993
  339loPI   C1B 5421   6.069  13.731   9.098  0.4205 -0.1802 -0.0467
  339loPI   C2B 5422   5.826  13.546   8.563  0.0733  0.0038  0.0111
  339loPI   C3B 5423   5.825  13.639   8.108  0.0327  0.0043  0.0117
  339loPI   C4B 5424   5.788  13.527   7.755  0.0053  0.0664 -0.5164
  340loPI    C1 5425   2.361  18.989   9.796 -0.0280  0.2042  0.0592
  340loPI    C2 5426   2.643  19.202   9.982 -0.0638  0.1825  0.1386
  340loPI    C3 5427   2.360  19.016  10.195  0.0011  0.0071  0.0735
  340loPI   PO4 5428   2.559  18.871   9.588 -0.2058 -0.0059  0.1996
  340loPI   GL1 5429   2.648  18.615   9.215 -0.0547  0.3038  0.3389
  340loPI   GL2 5430   2.998  18.654   9.328 -0.1258  0.2020  0.0523
  340loPI   C1A 5431   2.945  18.425   8.926 -0.0026 -0.0653  0.0684
  340loPI   C2A 5432   3.126  18.223   8.559 -0.0433  0.2065  0.2657
  340loPI   C3A 5433   3.136  18.039   8.194  0.2765 -0.2132 -0.4739
  340loPI   C4A 5434   3.041  18.074   7.741  0.1506  0.0783 -0.1752
  340loPI   C5A 5435   2.732  17.954   7.523  0.3307 -0.2710 -0.0820
  340loPI   C6A 5436   2.743  17.739   7.229  0.2660  0.1596  0.0547
  340loPI   C1B 5437   2.905  18.958   8.977  0.1599 -0.0316  0.1702
  340loPI   C2B 5438   3.008  19.129   8.520 -0.0052  0.0078  0.1208
  340loPI   C3B 5439   3.105  19.266   8.068 -0.3237 -0.2053  0.0542
  340loPI   C4B 5440   3.301  19.578   7.842  0.0475  0.1432  0.2289
  341loPI    C1 5441   6.220  12.563   9.910 -0.2654 -0.1356 -0.1174
  341loPI    C2 5442   5.998  12.602  10.241 -0.1232  0.0884 -0.0462
  341loPI    C3 5443   6.142  12.927  10.057 -0.1575 -0.0373 -0.2996
  341loPI   PO4 5444   6.339  12.435   9.831  0.0929  0.0787  0.1141
  341loPI   GL1 5445   6.550  12.188   9.549 -0.0304 -0.4093 -0.0673
  341loPI   GL2 5446   6.773  12.350   9.340  0.1061  0.2728 -0.2564
  341loPI   C1A 5447   6.614  11.754   9.414 -0.2312  0.2330 -0.2661
  341loPI   C2A 5448   6.677  11.459   9.162 -0.0430 -0.0280  0.1305
  341loPI   C3A 5449   6.803  11.391   8.761 -0.0722 -0.1054  0.0999
  341loPI   C4A 5450   6.859  11.361   8.400 -0.2052  0.1289  0.1838
  341loPI   C5A 5451   6.584  11.214   8.044  0.1833 -0.2576  0.2948
  341loPI   C6A 5452   6.568  11.509   7.686 -0.0229  0.2229  0.1314
  341loPI   C1B 5453   6.712  12.697   9.051  0.0303 -0.3014  0.0146
  341loPI   C2B 5454   6.532  12.480   8.613 -0.1319  0.2764 -0.1427
  341loPI   C3B 5455   6.417  12.236   8.225 -0.1787  0.0706 -0.1762
  341loPI   C4B 5456   6.352  12.417   7.777  0.1955 -0.0284  0.1013
  342loPI    C1 5457   3.213  17.093   9.817  0.1260 -0.0604  0.1214
  342loPI    C2 5458   3.026  16.819  10.041  0.2951 -0.4761 -0.2304
  342loPI    C3 5459   3.375  16.972  10.163 -0.1355  0.1309  0.3150
  342loPI   PO4 5460   3.177  16.971   9.585 -0.0562  0.2596  0.1378
  342loPI   GL1 5461   3.368  16.720   9.348 -0.3040  0.1150  0.2298
  342loPI   GL2 5462   3.494  16.971   9.131  0.1307 -0.4546  0.1718
  342loPI   C1A 5463   3.564  16.494   9.057  0.0970  0.1889 -0.1973
  342loPI   C2A 5464   3.538  16.339   8.671  0.1461 -0.1437 -0.1670
  342loPI   C3A 5465   3.516  16.450   8.199  0.3574 -0.1322 -0.0376
  342loPI   C4A 5466   3.490  16.760   7.883 -0.1148 -0.2833 -0.0732
  342loPI   C5A 5467   3.137  16.927   7.916  0.0955 -0.1486 -0.2666
  342loPI   C6A 5468   2.889  17.188   8.218  0.0428 -0.0676 -0.0571
  342loPI   C1B 5469   3.367  16.849   8.715 -0.0558 -0.0211 -0.0320
  342loPI   C2B 5470   3.460  17.082   8.370  0.3646  0.0560 -0.3011
  342loPI   C3B 5471   3.768  17.150   8.058 -0.0633  0.1420  0.0801
  342loPI   C4B 5472   4.011  16.995   7.740 -0.1213 -0.1670  0.0223
  343loPI    C1 5473  13.161  15.160   9.796  0.1509 -0.0598  0.1049
  343loPI    C2 5474  12.793  15.087   9.935  0.1544 -0.1495  0.0680
  343loPI    C3 5475  13.014  15.379  10.096 -0.1219  0.2391 -0.2369
  343loPI   PO4 5476  13.196  15.321   9.590  0.0866 -0.3185 -0.4501
  343loPI   GL1 5477  13.219  15.242   9.211  0.3311 -0.4075  0.0715
  343loPI   GL2 5478  13.196  15.444   8.958  0.1753  0.0147  0.1076
  343loPI   C1A 5479  13.283  14.978   8.792  0.0804  0.2342 -0.1571
  343loPI   C2A 5480  13.243  14.714   8.423  0.0016 -0.2563 -0.2177
  343loPI   C3A 5481  12.977  14.541   8.012  0.1917  0.1206  0.0244
  343loPI   C4A 5482  12.530  14.540   7.783 -0.1551 -0.1767 -0.0861
  343loPI   C5A 5483  12.454  14.359   7.425  0.1545 -0.1044 -0.4373
  343loPI   C6A 5484  12.361  13.876   7.426  0.0066 -0.1138  0.1390
  343loPI   C1B 5485  13.264  15.384   8.435 -0.3993 -0.2631 -0.1699
  343loPI   C2B 5486  13.312  15.481   8.023 -0.0423 -0.2514 -0.2079
  343loPI   C3B 5487  13.167  15.334   7.522 -0.0008 -0.1656  0.2588
  343loPI   C4B 5488  13.195  15.034   7.098 -0.1324  0.2414 -0.1606
  344loPI    C1 5489  12.633  11.170  10.243  0.0526  0.0377 -0.2075
  344loPI    C2 5490  12.898  10.907  10.100  0.0575 -0.1575  0.1499
  344loPI    C3 5491  12.816  10.916  10.492  0.0522  0.3711  0.1433
  344loPI   PO4 5492  12.624  11.300  10.032 -0.1197 -0.0992 -0.0657
  344loPI   GL1 5493  12.532  11.187   9.565 -0.3132 -0.0543  0.2392
  344loPI   GL2 5494  12.626  11.405   9.528  0.1476  0.1641  0.1390
  344loPI   C1A 5495  12.519  10.818   9.270 -0.0480 -0.1518 -0.0757
  344loPI   C2A 5496  12.372  10.681   8.882  0.0438  0.1803  0.0163
  344loPI   C3A 5497  12.180  10.754   8.505 -0.2491 -0.1877  0.0833
  344loPI   C4A 5498  12.319  10.734   8.035 -0.3741  0.0350  0.1413
  344loPI   C5A 5499  12.322  10.585   7.657 -0.4130  0.2261  0.2168
  344loPI   C6A 5500  12.170  10.656   7.320 -0.1612 -0.1641  0.2121
  344loPI   C1B 5501  12.166  11.475   9.179  0.1840 -0.3935 -0.0406
  344loPI   C2B 5502  11.807  11.558   8.967 -0.0759  0.2659  0.0254
  344loPI   C3B 5503  11.691  11.514   8.533  0.0319  0.1873 -0.0359
  344loPI   C4B 5504  11.709  11.648   8.133  0.0311 -0.2054 -0.2359
  345loPI    C1 5505   7.226   7.700   9.758  0.1385 -0.0329  0.0638
  345loPI    C2 5506   7.250   7.965  10.056 -0.1255  0.1678 -0.0894
  345loPI    C3 5507   6.902   7.785   9.976  0.0335 -0.1696 -0.0375
  345loPI   PO4 5508   7.360   7.806   9.533 -0.2124  0.2726 -0.0447
  345loPI   GL1 5509   7.580   7.737   9.188  0.1317 -0.0703 -0.0423
  345loPI   GL2 5510   7.717   7.433   9.106 -0.1043  0.0815  0.0613
  345loPI   C1A 5511   7.349   7.716   8.864 -0.0729  0.1972 -0.2660
  345loPI   C2A 5512   7.144   7.600   8.384 -0.2419 -0.2012 -0.3451
  345loPI   C3A 5513   7.272   7.791   7.967  0.0469  0.0085  0.1008
  345loPI   C4A 5514   7.452   7.642   7.583  0.4308 -0.0607  0.2756
  345loPI   C5A 5515   7.303   7.239   7.400  0.5271  0.2697  0.0121
  345loPI   C6A 5516   6.875   7.085   7.370 -0.0506  0.0072 -0.1534
  345loPI   C1B 5517   7.750   7.395   8.650  0.1365  0.0262 -0.0488
  345loPI   C2B 5518   7.829   7.158   8.211 -0.1036  0.0883  0.1926
  345loPI   C3B 5519   7.724   7.100   7.783 -0.0149 -0.1724  0.0900
  345loPI   C4B 5520   7.758   6.809   7.328  0.0750  0.2501  0.0868
  346loPI    C1 5521  14.261  13.107   9.880  0.1104  0.1645  0.1387
  346loPI    C2 5522  13.882  12.983   9.907  0.2144 -0.2422 -0.1579
  346loPI    C3 5523  14.077  13.108  10.234 -0.1064 -0.2285  0.0320
  346loPI   PO4 5524  14.453  13.019   9.720  0.0427  0.3280 -0.1412
  346loPI   GL1 5525  14.698  13.236   9.358 -0.2679  0.1071 -0.3548
  346loPI   GL2 5526  14.535  13.222   9.131  0.1635  0.1600  0.0164
  346loPI   C1A 5527  14.994  13.264   8.989  0.1192  0.0711  0.2270
  346loPI   C2A 5528  15.173  13.137   8.659 -0.0903  0.0640  0.3115
  346loPI   C3A 5529  15.073  13.014   8.310  0.1565 -0.0516 -0.1062
  346loPI   C4A 5530  14.960  12.879   7.924 -0.1081 -0.1039  0.1672
  346loPI   C5A 5531  14.769  13.195   7.619  0.0640 -0.2366 -0.0790
  346loPI   C6A 5532  14.605  13.524   7.624 -0.1047 -0.1486 -0.2759
  346loPI   C1B 5533  14.582  13.545   8.824  0.1246  0.3846  0.2032
  346loPI   C2B 5534  14.507  13.770   8.539 -0.1581  0.2251 -0.0527
  346loPI   C3B 5535  14.359  13.670   8.084 -0.3964  0.0048 -0.0712
  346loPI   C4B 5536  14.146  13.803   7.738  0.1822 -0.1116 -0.0529
  347loPI    C1 5537   2.239  18.490  10.149  0.0399 -0.3630  0.0921
  347loPI    C2 5538   1.964  18.629  10.403  0.1174 -0.1737  0.0743
  347loPI    C3 5539   2.087  18.250  10.430  0.0647 -0.1782  0.2654
  347loPI   PO4 5540   2.113  18.580   9.911 -0.2781  0.2246 -0.0347
  347loPI   GL1 5541   2.152  18.669   9.461 -0.2298 -0.0257  0.0375
  347loPI   GL2 5542   2.135  18.330   9.317  0.2359 -0.0714 -0.2644
  347loPI   C1A 5543   2.170  18.934   9.099 -0.0834  0.0750 -0.1951
  347loPI   C2A 5544   2.406  18.935   8.717 -0.0596 -0.1323  0.0166
  347loPI   C3A 5545   2.474  18.862   8.310 -0.0913 -0.2401  0.0221
  347loPI   C4A 5546   2.800  18.813   8.036  0.0476 -0.0808  0.3820
  347loPI   C5A 5547   2.846  18.559   7.620  0.1211  0.2563  0.0013
  347loPI   C6A 5548   2.991  18.647   7.189 -0.2208  0.0219  0.1568
  347loPI   C1B 5549   2.103  18.473   8.916  0.1992 -0.0678  0.2032
  347loPI   C2B 5550   2.445  18.398   8.702  0.2504 -0.2297 -0.2533
  347loPI   C3B 5551   2.630  18.367   8.381  0.0239 -0.3558  0.1923
  347loPI   C4B 5552   2.738  18.301   8.011 -0.1775 -0.0205  0.2174
  348loPI    C1 5553   5.001  17.344   9.940 -0.1112 -0.0228 -0.1088
  348loPI    C2 5554   4.672  17.213  10.126 -0.1071  0.0546 -0.0468
  348loPI    C3 5555   4.984  17.342  10.340 -0.0308 -0.0328 -0.1055
  348loPI   PO4 5556   5.025  17.217   9.703 -0.0759  0.0832 -0.1277
  348loPI   GL1 5557   4.802  17.228   9.354  0.3139  0.1346  0.2122
  348loPI   GL2 5558   5.051  17.397   9.268 -0.1126 -0.1714 -0.2955
  348loPI   C1A 5559   5.162  17.060   8.993  0.1600  0.2678 -0.3535
  348loPI   C2A 5560   5.104  16.888   8.693  0.0228 -0.0714  0.1470
  348loPI   C3A 5561   5.128  16.739   8.333 -0.1032  0.1796 -0.0819
  348loPI   C4A 5562   5.335  16.605   8.005 -0.1715 -0.3105  0.0552
  348loPI   C5A 5563   5.487  16.879   7.632  0.0274  0.1129  0.0090
  348loPI   C6A 5564   5.573  17.282   7.335 -0.0194  0.0592 -0.2297
  348loPI   C1B 5565   4.807  17.306   8.783  0.0626  0.0810 -0.3127
  348loPI   C2B 5566   4.630  17.439   8.555 -0.1986  0.1357 -0.3056
  348loPI   C3B 5567   4.513  17.625   8.216 -0.2070  0.1270  0.2178
  348loPI   C4B 5568   4.255  17.594   7.950  0.3610 -0.0384 -0.1656
  349loPI    C1 5569   3.308   2.120  10.169  0.0261 -0.1091  0.2018
  349loPI    C2 5570   2.990   1.900  10.273 -0.2923  0.1347 -0.2240
  349loPI    C3 5571   3.013   2.284  10.384  0.0565  0.0127  0.1516
  349loPI   PO4 5572   3.355   2.098   9.906 -0.2301 -0.1845 -0.3761
  349loPI   GL1 5573   3.190   2.179   9.598 -0.3386  0.3520  0.1120
  349loPI   GL2 5574   3.418   2.416   9.457  0.0952  0.0703  0.2022
  349loPI   C1A 5575   3.280   1.987   9.195  0.1866  0.1752 -0.2272
  349loPI   C2A 5576   3.171   1.870   8.698  0.0020  0.1882 -0.1718
  349loPI   C3A 5577   3.106   1.767   8.343 -0.3293  0.1991  0.0075
  349loPI   C4A 5578   3.049   1.667   7.968 -0.2051  0.0600  0.0731
  349loPI   C5A 5579   2.986   1.347   7.580 -0.3440  0.0696 -0.1982
  349loPI   C6A 5580   2.957   0.889   7.487  0.1547  0.1221 -0.1871
  349loPI   C1B 5581   3.530   2.387   8.951  0.0874  0.3993  0.0156
  349loPI   C2B 5582   3.376   2.344   8.493  0.4094 -0.0540 -0.1932
  349loPI   C3B 5583   3.349   2.177   8.098  0.3328 -0.0258 -0.0985
  349loPI   C4B 5584   3.348   2.318   7.592 -0.2677  0.0991  0.0463
  350loPI    C1 5585   9.601   8.684   9.839 -0.1234 -0.1114  0.0249
  350loPI    C2 5586   9.980   8.565   9.788 -0.0878  0.0234 -0.0311
  350loPI    C3 5587   9.834   8.615  10.157  0.0444  0.2685 -0.0103
  350loPI   PO4 5588   9.602   8.890   9.750 -0.1924  0.0608  0.1105
  350loPI   GL1 5589   9.788   9.253   9.470  0.1707  0.0861  0.0581
  350loPI   GL2 5590   9.820   8.949   9.311  0.0050  0.0909 -0.1723
  350loPI   C1A 5591  10.074   9.378   9.122 -0.0002 -0.1656 -0.0365
  350loPI   C2A 5592  10.124   9.309   8.711  0.0644  0.1650  0.0861
  350loPI   C3A 5593  10.112   9.197   8.366  0.3270 -0.1268  0.2653
  350loPI   C4A 5594  10.129   9.547   7.975 -0.0721 -0.2256  0.1030
  350loPI   C5A 5595  10.424   9.592   7.649 -0.0382 -0.0226  0.3950
  350loPI   C6A 5596  10.774   9.799   7.542  0.1426 -0.1949 -0.1016
  350loPI   C1B 5597   9.868   8.854   8.920 -0.0887 -0.0975  0.2117
  350loPI   C2B 5598   9.743   8.904   8.532  0.0389  0.0795  0.4320
  350loPI   C3B 5599   9.717   8.816   8.018 -0.3516 -0.1301  0.1883
  350loPI   C4B 5600   9.536   8.788   7.687 -0.1359  0.1784  0.1352
  351loPI    C1 5601   1.899  12.756  10.234  0.2281 -0.0663 -0.0460
  351loPI    C2 5602   1.936  12.482  10.523 -0.2085 -0.0304  0.0506
  351loPI    C3 5603   2.091  12.847  10.572  0.0487 -0.1416  0.0780
  351loPI   PO4 5604   1.573  12.675  10.201  0.1195  0.0402  0.0032
  351loPI   GL1 5605   1.310  12.874   9.773  0.0887  0.3378  0.0872
  351loPI   GL2 5606   1.006  12.733   9.845 -0.2794  0.1732  0.0247
  351loPI   C1A 5607   1.262  12.699   9.365  0.2660  0.0899 -0.1171
  351loPI   C2A 5608   1.382  12.726   8.924 -0.0009  0.0763  0.0492
  351loPI   C3A 5609   1.389  12.766   8.369  0.2542  0.2335  0.0546
  351loPI   C4A 5610   1.678  12.456   8.017  0.4230 -0.0495 -0.2065
  351loPI   C5A 5611   1.891  12.261   7.678 -0.0044  0.2011 -0.1694
  351loPI   C6A 5612   2.110  11.942   7.521 -0.1857  0.1056  0.2048
  351loPI   C1B 5613   0.788  12.675   9.524  0.3087  0.1876  0.1641
  351loPI   C2B 5614   0.492  12.934   9.323 -0.0251 -0.0205  0.0339
  351loPI   C3B 5615   0.224  13.031   9.090 -0.0833  0.1750 -0.0761
  351loPI   C4B 5616   0.257  13.073   8.624  0.5208  0.1608  0.2454
  352loPI    C1 5617   3.446   1.632  10.193 -0.0202 -0.0789 -0.1319
  352loPI    C2 5618   3.248   1.334  10.373  0.1233 -0.1427 -0.0781
  352loPI    C3 5619   3.570   1.494  10.548  0.0357  0.0579 -0.0976
  352loPI   PO4 5620   3.448   1.582   9.944  0.2409 -0.0626  0.1696
  352loPI   GL1 5621   3.634   1.486   9.641  0.0612  0.0522 -0.0718
  352loPI   GL2 5622   3.712   1.692   9.359 -0.0565 -0.1245  0.1132
  352loPI   C1A 5623   3.733   1.219   9.213  0.3759  0.0753  0.0968
  352loPI   C2A 5624   3.715   1.360   8.753  0.1348  0.0661 -0.4503
  352loPI   C3A 5625   4.045   1.363   8.381  0.2500 -0.2274  0.1191
  352loPI   C4A 5626   4.041   1.411   8.001 -0.4341  0.3108 -0.2987
  352loPI   C5A 5627   4.230   1.725   7.753 -0.1325  0.0989 -0.0849
  352loPI   C6A 5628   4.154   2.177   7.479 -0.2409  0.3194 -0.0713
  352loPI   C1B 5629   3.639   1.826   8.915 -0.0137  0.1245  0.0391
  352loPI   C2B 5630   3.653   1.827   8.515 -0.1217 -0.0365  0.1342
  352loPI   C3B 5631   3.683   1.829   8.014  0.0657  0.0548 -0.0502
  352loPI   C4B 5632   3.773   1.843   7.589  0.1232  0.0068  0.0041
  353loPI    C1 5633  10.623   7.557   9.541  0.2723  0.1928  0.1445
  353loPI    C2 5634  10.706   7.202   9.705  0.2065 -0.0079 -0.2446
  353loPI    C3 5635  10.358   7.383   9.785  0.1845 -0.0923 -0.1473
  353loPI   PO4 5636  10.546   7.546   9.265  0.0028 -0.1791  0.5558
  353loPI   GL1 5637  10.457   7.631   8.765  0.4133  0.0109 -0.2570
  353loPI   GL2 5638  10.676   7.928   8.950 -0.1737 -0.1095 -0.0307
  353loPI   C1A 5639  10.801   7.360   8.682 -0.3051 -0.4859 -0.0158
  353loPI   C2A 5640  11.018   7.034   8.811  0.0735 -0.0315 -0.0070
  353loPI   C3A 5641  11.417   6.638   8.734  0.3745  0.3627  0.0767
  353loPI   C4A 5642  11.747   6.527   8.560 -0.0285  0.1148  0.0863
  353loPI   C5A 5643  12.164   6.643   8.443  0.0065 -0.0518  0.1555
  353loPI   C6A 5644  12.598   6.428   8.464 -0.1769  0.2702  0.0262
  353loPI   C1B 5645  10.726   7.927   8.536  0.2350  0.2568  0.0270
  353loPI   C2B 5646  10.764   7.707   8.171 -0.0206  0.2092  0.1088
  353loPI   C3B 5647  10.616   7.594   7.794 -0.0123 -0.0041  0.2364
  353loPI   C4B 5648  10.352   7.734   7.333  0.2268  0.0483  0.0124
  354loPI    C1 5649  14.535   0.247  10.153 -0.1575  0.0884 -0.0806
  354loPI    C2 5650  14.239   0.056  10.341 -0.0834 -0.2820 -0.3305
  354loPI    C3 5651  14.619  -0.008  10.449 -0.0861  0.1877 -0.0145
  354loPI   PO4 5652  14.474   0.162   9.874  0.2241 -0.1924 -0.2766
  354loPI   GL1 5653  14.411   0.377   9.504  0.0589  0.1246  0.1452
  354loPI   GL2 5654  14.597   0.638   9.339 -0.0972  0.1805  0.0064
  354loPI   C1A 5655  14.147   0.281   9.068 -0.0226 -0.2035  0.1033
  354loPI   C2A 5656  14.326   0.118   8.618  0.1193  0.2452 -0.1652
  354loPI   C3A 5657  14.568   0.300   8.374 -0.2563 -0.2743  0.0584
  354loPI   C4A 5658  14.731   0.211   8.070  0.0291  0.0211 -0.0213
  354loPI   C5A 5659  14.797   0.324   7.625 -0.2524  0.1274 -0.0423
  354loPI   C6A 5660  15.074   0.469   7.380  0.3051 -0.2768 -0.0077
  354loPI   C1B 5661  14.674   0.713   8.878  0.0295  0.1026 -0.1009
  354loPI   C2B 5662  14.558   0.769   8.512  0.0420 -0.0746  0.1481
  354loPI   C3B 5663  14.474   0.630   8.007  0.0957 -0.2901 -0.0175
  354loPI   C4B 5664  14.039   0.971   7.839 -0.0325  0.1660  0.1552
  355loPI    C1 5665   9.956   7.121   9.684 -0.1528 -0.1593 -0.0719
  355loPI    C2 5666   9.690   7.167   9.979  0.1129  0.0711  0.1387
  355loPI    C3 5667   9.862   6.811   9.918  0.1078  0.0391  0.3068
  355loPI   PO4 5668   9.807   7.263   9.495 -0.0482 -0.0926 -0.0482
  355loPI   GL1 5669   9.782   7.278   9.208 -0.2164  0.0214 -0.1078
  355loPI   GL2 5670  10.059   7.333   9.031  0.1446  0.2025  0.0838
  355loPI   C1A 5671   9.860   6.906   8.872 -0.3319  0.0550  0.1486
  355loPI   C2A 5672   9.729   6.768   8.621 -0.1807 -0.0509  0.3541
  355loPI   C3A 5673   9.433   6.670   8.262 -0.3215  0.3114 -0.1524
  355loPI   C4A 5674   9.132   6.582   7.880  0.1545 -0.0489 -0.1434
  355loPI   C5A 5675   8.937   6.456   7.568  0.1064 -0.0240 -0.0920
  355loPI   C6A 5676   8.754   6.237   7.277 -0.1869 -0.0694  0.0498
  355loPI   C1B 5677  10.051   7.410   8.649 -0.0310 -0.0171  0.1689
  355loPI   C2B 5678  10.335   7.448   8.323 -0.0954 -0.1261  0.0034
  355loPI   C3B 5679  10.666   7.137   8.131  0.0052 -0.2173  0.1220
  355loPI   C4B 5680  10.505   6.824   8.177 -0.0244  0.2470  0.1410
  356loPI    C1 5681   1.694  11.706  10.136  0.0738  0.0640  0.0616
  356loPI    C2 5682   1.313  11.826  10.164  0.0762  0.0959 -0.0406
  356loPI    C3 5683   1.508  11.702  10.490 -0.1099 -0.1901 -0.0354
  356loPI   PO4 5684   1.862  11.851   9.952 -0.3301 -0.2708 -0.0826
  356loPI   GL1 5685   1.974  11.853   9.567 -0.1282  0.1400  0.1108
  356loPI   GL2 5686   2.286  11.844   9.354 -0.0582 -0.0135 -0.0236
  356loPI   C1A 5687   1.744  12.071   9.344  0.2252 -0.3347 -0.0661
  356loPI   C2A 5688   1.600  12.211   8.934 -0.0001  0.1112 -0.0262
  356loPI   C3A 5689   1.469  12.267   8.503 -0.1662  0.1844 -0.2171
  356loPI   C4A 5690   1.101  12.284   8.231  0.2885 -0.0474  0.2283
  356loPI   C5A 5691   0.749  12.052   8.009 -0.4027  0.2595 -0.1548
  356loPI   C6A 5692   0.412  11.825   7.938  0.0110 -0.0550 -0.1872
  356loPI   C1B 5693   2.249  11.807   9.026  0.5512  0.1122  0.0108
  356loPI   C2B 5694   2.260  11.714   8.593 -0.2061 -0.1255  0.1441
  356loPI   C3B 5695   2.140  11.642   8.116  0.0792 -0.0761 -0.0248
  356loPI   C4B 5696   1.784  11.830   7.858  0.1246  0.2638 -0.2693
  357loPI    C1 5697  17.292  13.310   9.984  0.1129  0.0223 -0.0335
  357loPI    C2 5698  17.477  13.065   9.728  0.1221 -0.0980  0.0870
  357loPI    C3 5699  17.329  12.921  10.071 -0.2873 -0.0251 -0.0531
  357loPI   PO4 5700  17.168  13.497   9.909 -0.0033 -0.0898  0.0002
  357loPI   GL1 5701  17.252  13.664   9.560  0.4673 -0.0235 -0.2749
  357loPI   GL2 5702  17.185  13.415   9.421 -0.4053  0.1207  0.1994
  357loPI   C1A 5703  17.385  13.781   9.114 -0.0043  0.1205  0.2090
  357loPI   C2A 5704  17.441  13.849   8.673  0.1720 -0.2622  0.0961
  357loPI   C3A 5705  17.452  13.791   8.299  0.0958 -0.0285 -0.0719
  357loPI   C4A 5706  17.501  13.571   7.968 -0.2213 -0.4472 -0.0059
  357loPI   C5A 5707  17.671  13.615   7.518 -0.1340 -0.0328  0.1261
  357loPI   C6A 5708  17.986  13.883   7.468 -0.2772  0.1052  0.0410
  357loPI   C1B 5709  17.076  13.333   9.048  0.0997 -0.1325 -0.1086
  357loPI   C2B 5710  17.050  13.254   8.715  0.0169 -0.1689 -0.3161
  357loPI   C3B 5711  17.114  13.307   8.140  0.1853  0.0632 -0.1217
  357loPI   C4B 5712  17.289  13.295   7.630 -0.0927  0.1768 -0.2787
  358loPI    C1 5713  16.794   2.375  10.090  0.0605  0.0447  0.1135
  358loPI    C2 5714  16.548   2.135  10.294 -0.0259 -0.1299 -0.1896
  358loPI    C3 5715  16.745   2.427  10.483 -0.2142 -0.1951  0.1143
  358loPI   PO4 5716  16.640   2.446   9.826  0.0195  0.5101 -0.1824
  358loPI   GL1 5717  16.535   2.433   9.474 -0.3877  0.0597  0.2076
  358loPI   GL2 5718  16.242   2.275   9.397 -0.1571  0.2812 -0.1142
  358loPI   C1A 5719  16.539   2.485   9.046 -0.1419  0.0934 -0.1446
  358loPI   C2A 5720  16.489   2.325   8.648  0.3038  0.0559  0.1809
  358loPI   C3A 5721  16.287   2.114   8.282  0.1946  0.0533  0.4367
  358loPI   C4A 5722  16.260   2.140   7.862 -0.2066  0.1124  0.0830
  358loPI   C5A 5723  16.165   2.261   7.468 -0.2349 -0.1109  0.2610
  358loPI   C6A 5724  15.875   2.258   7.188 -0.0655 -0.1328  0.0271
  358loPI   C1B 5725  16.067   2.375   8.963 -0.0879  0.3458  0.2412
  358loPI   C2B 5726  15.950   2.470   8.509 -0.1995  0.0387 -0.0903
  358loPI   C3B 5727  15.823   2.325   8.101  0.2099  0.3498 -0.2318
  358loPI   C4B 5728  15.749   2.014   7.768 -0.1425  0.1072 -0.1485
  359loPI    C1 5729   2.525   1.208   9.967  0.0111  0.2003 -0.1183
  359loPI    C2 5730   2.794   1.047  10.215 -0.2128  0.1440  0.0932
  359loPI    C3 5731   2.752   1.444  10.196  0.0539  0.1652 -0.1243
  359loPI   PO4 5732   2.595   1.168   9.753  0.0684  0.0923 -0.0577
  359loPI   GL1 5733   2.708   1.326   9.281  0.0356  0.0313 -0.0037
  359loPI   GL2 5734   2.944   1.069   9.376  0.1093  0.1561 -0.2574
  359loPI   C1A 5735   2.479   1.391   9.044  0.0276  0.0332 -0.0593
  359loPI   C2A 5736   2.416   1.795   8.919  0.3944 -0.1155  0.1631
  359loPI   C3A 5737   2.620   2.065   8.627  0.1085  0.1346  0.0029
  359loPI   C4A 5738   2.811   2.152   8.293  0.0854  0.0764 -0.1215
  359loPI   C5A 5739   2.863   2.138   7.970 -0.2607 -0.1564  0.0951
  359loPI   C6A 5740   2.842   2.368   7.519 -0.0228 -0.2184  0.1057
  359loPI   C1B 5741   3.087   1.303   8.965 -0.1476 -0.0367 -0.2382
  359loPI   C2B 5742   3.208   1.264   8.637 -0.4105 -0.0837 -0.2381
  359loPI   C3B 5743   3.486   1.419   8.303 -0.0878  0.0674  0.0865
  359loPI   C4B 5744   3.533   1.381   7.784 -0.1558  0.0287  0.0297
  360loPI    C1 5745   0.620   1.855  10.129  0.1213  0.1140 -0.1236
  360loPI    C2 5746   0.705   1.822  10.518  0.1807  0.1322 -0.1349
  360loPI    C3 5747   0.832   1.543  10.261 -0.0759 -0.0139 -0.1061
  360loPI   PO4 5748   0.692   2.183  10.016 -0.0843  0.3774 -0.2411
  360loPI   GL1 5749   0.655   2.326   9.680 -0.3403 -0.2550 -0.0894
  360loPI   GL2 5750   0.411   2.440   9.731 -0.0173  0.1274  0.1681
  360loPI   C1A 5751   0.719   2.358   9.333  0.0785 -0.1245 -0.2189
  360loPI   C2A 5752   0.633   2.259   8.901 -0.1495 -0.0338  0.2428
  360loPI   C3A 5753   0.629   2.190   8.476 -0.0495 -0.2262 -0.0289
  360loPI   C4A 5754   0.613   1.974   8.096 -0.1717 -0.0507 -0.1950
  360loPI   C5A 5755   0.619   1.853   7.730  0.0955 -0.1988  0.0969
  360loPI   C6A 5756   0.813   1.477   7.532 -0.0220 -0.1740 -0.0643
  360loPI   C1B 5757   0.216   2.316   9.403 -0.1742 -0.1253 -0.3635
  360loPI   C2B 5758   0.063   2.176   8.865 -0.1590 -0.0169 -0.0023
  360loPI   C3B 5759   0.096   2.132   8.435 -0.1928 -0.0042 -0.2097
  360loPI   C4B 5760  -0.222   2.121   8.151 -0.1775 -0.0159  0.0270
  361loPI    C1 5761   0.018  13.803  10.484 -0.0930  0.0670 -0.0143
  361loPI    C2 5762  -0.100  13.976  10.824  0.1351  0.1255  0.0367
  361loPI    C3 5763   0.135  13.653  10.836  0.2108  0.1761 -0.0653
  361loPI   PO4 5764  -0.098  13.964  10.242 -0.0986 -0.1489  0.3320
  361loPI   GL1 5765  -0.084  13.971   9.772 -0.0271  0.1179 -0.0423
  361loPI   GL2 5766  -0.186  14.256   9.624 -0.3926 -0.0584  0.1366
  361loPI   C1A 5767  -0.057  13.911   9.281  0.4775 -0.1325  0.1904
  361loPI   C2A 5768   0.040  13.952   8.877  0.0977  0.0276  0.1347
  361loPI   C3A 5769  -0.084  13.984   8.415  0.0500  0.0314  0.1880
  361loPI   C4A 5770  -0.169  14.183   8.000 -0.0769 -0.0152 -0.0035
  361loPI   C5A 5771  -0.086  14.324   7.556  0.0061 -0.0487 -0.0191
  361loPI   C6A 5772  -0.240  14.530   7.243  0.1485  0.2049 -0.0023
  361loPI   C1B 5773  -0.093  14.392   9.153  0.1211  0.1391 -0.3053
  361loPI   C2B 5774  -0.161  14.456   8.682 -0.0047 -0.0837 -0.1573
  361loPI   C3B 5775  -0.315  14.581   8.317  0.1473 -0.1354  0.1341
  361loPI   C4B 5776  -0.198  14.696   7.890  0.1436 -0.0332 -0.1828
  362loPI    C1 5777  18.191  14.215   9.940  0.3696  0.0509  0.0055
  362loPI    C2 5778  18.149  13.948  10.236  0.1535  0.0505 -0.0235
  362loPI    C3 5779  17.849  14.198  10.148  0.2640  0.1373 -0.1588
  362loPI   PO4 5780  18.327  14.053   9.750 -0.2751  0.0487  0.1252
  362loPI   GL1 5781  18.379  14.194   9.323  0.1583 -0.1023 -0.0617
  362loPI   GL2 5782  18.055  14.319   9.350 -0.3917 -0.2290  0.0799
  362loPI   C1A 5783  18.484  14.200   8.984 -0.0167  0.2119  0.0114
  362loPI   C2A 5784  18.461  14.124   8.566  0.1871  0.1906 -0.4660
  362loPI   C3A 5785  18.321  14.109   8.116  0.0952 -0.0728 -0.0547
  362loPI   C4A 5786  18.074  14.402   7.737 -0.0785 -0.0314 -0.4291
  362loPI   C5A 5787  18.041  14.452   7.319  0.0990 -0.1147 -0.0787
  362loPI   C6A 5788  17.983  14.502   6.901  0.2884 -0.3235  0.1885
  362loPI   C1B 5789  18.029  14.278   8.864  0.0741  0.0391 -0.1579
  362loPI   C2B 5790  17.761  14.238   8.447  0.2902 -0.1351 -0.2120
  362loPI   C3B 5791  17.747  14.124   7.958 -0.0042  0.0871  0.0428
  362loPI   C4B 5792  17.554  14.185   7.556  0.1678  0.0467  0.0191
  363loPI    C1 5793   3.375  16.536   9.826  0.0109  0.2619 -0.1046
  363loPI    C2 5794   3.352  16.436  10.213 -0.1926  0.2189 -0.1267
  363loPI    C3 5795   3.709  16.452  10.031 -0.0941  0.2605  0.0673
  363loPI   PO4 5796   3.258  16.373   9.711  0.2470  0.2310  0.0540
  363loPI   GL1 5797   3.213  16.191   9.306 -0.2349  0.3272  0.1497
  363loPI   GL2 5798   2.958  16.265   9.258  0.2130 -0.3595 -0.1083
  363loPI   C1A 5799   3.214  15.979   8.945  0.0961  0.1828  0.1779
  363loPI   C2A 5800   3.171  16.105   8.467  0.0199 -0.0626 -0.3268
  363loPI   C3A 5801   3.302  15.962   8.122 -0.1814 -0.1222 -0.0597
  363loPI   C4A 5802   3.293  15.643   7.787  0.2170  0.2796 -0.0017
  363loPI   C5A 5803   3.187  15.242   7.948  0.0339 -0.0417 -0.0680
  363loPI   C6A 5804   3.306  14.813   7.986  0.0045  0.0194  0.2932
  363loPI   C1B 5805   3.058  16.487   8.862  0.1381 -0.5266 -0.1738
  363loPI   C2B 5806   2.989  16.645   8.350  0.1383  0.0062 -0.1182
  363loPI   C3B 5807   3.011  16.463   7.933 -0.3591 -0.2040 -0.3002
  363loPI   C4B 5808   3.316  16.234   7.665 -0.1094 -0.2439  0.0011
  364loPI    C1 5809  10.052   4.069   9.811 -0.0540  0.2379  0.2145
  364loPI    C2 5810  10.059   4.068  10.211 -0.1786  0.1113  0.2169
  364loPI    C3 5811   9.733   3.942  10.015 -0.0977  0.1194  0.0750
  364loPI   PO4 5812  10.291   3.977   9.779 -0.0881  0.0670 -0.2050
  364loPI   GL1 5813  10.480   3.862   9.370  0.2364  0.1492 -0.2523
  364loPI   GL2 5814  10.838   3.924   9.405 -0.1470 -0.3420  0.2828
  364loPI   C1A 5815  10.494   3.599   9.103 -0.0654  0.2671 -0.0163
  364loPI   C2A 5816  10.299   3.459   8.734  0.0781  0.1482 -0.0260
  364loPI   C3A 5817  10.208   3.527   8.291 -0.1213 -0.1807 -0.1946
  364loPI   C4A 5818  10.115   3.696   7.954 -0.1164  0.0185 -0.1966
  364loPI   C5A 5819   9.737   3.736   7.739 -0.0391  0.0794 -0.3404
  364loPI   C6A 5820   9.351   3.872   7.879 -0.0729 -0.1748 -0.2080
  364loPI   C1B 5821  10.777   3.917   8.932 -0.0609 -0.1531 -0.0242
  364loPI   C2B 5822  10.710   3.936   8.464  0.1533 -0.2207 -0.2185
  364loPI   C3B 5823  10.881   3.715   8.036 -0.2720 -0.0881  0.2934
  364loPI   C4B 5824  11.193   3.513   7.864  0.0601 -0.1055 -0.1233
  365loPI    C1 5825  14.982   6.033  10.495 -0.2221 -0.1583  0.1100
  365loPI    C2 5826  14.660   6.270  10.481 -0.0938  0.0069 -0.1242
  365loPI    C3 5827  14.748   6.071  10.817 -0.2968  0.1594  0.0217
  365loPI   PO4 5828  15.065   6.020  10.271  0.0933  0.0169 -0.1083
  365loPI   GL1 5829  14.998   6.060   9.814 -0.0490  0.0442 -0.0008
  365loPI   GL2 5830  15.287   6.214   9.831 -0.0468 -0.1510 -0.1051
  365loPI   C1A 5831  14.977   5.906   9.477  0.2331  0.0192 -0.0450
  365loPI   C2A 5832  14.932   5.807   9.035 -0.2437  0.0210 -0.0708
  365loPI   C3A 5833  14.917   5.991   8.670 -0.0329  0.2151 -0.0390
  365loPI   C4A 5834  15.038   5.830   8.318 -0.1524  0.2426  0.0732
  365loPI   C5A 5835  15.063   5.894   7.928  0.0085 -0.0474  0.1227
  365loPI   C6A 5836  15.368   5.717   7.664  0.0977  0.1215 -0.0163
  365loPI   C1B 5837  15.353   6.314   9.359  0.2807  0.0867  0.0448
  365loPI   C2B 5838  15.422   6.468   8.984 -0.3672  0.0854  0.2262
  365loPI   C3B 5839  15.535   6.430   8.559 -0.1977 -0.0450  0.5473
  365loPI   C4B 5840  15.633   6.612   8.145 -0.2867 -0.0058  0.3079
  366loPI    C1 5841   7.109  10.585   9.817  0.2033 -0.1730  0.1435
  366loPI    C2 5842   6.999  10.260   9.613 -0.0159 -0.0117 -0.0003
  366loPI    C3 5843   7.384  10.316   9.708  0.0617 -0.1820 -0.2037
  366loPI   PO4 5844   6.874  10.764   9.712  0.1414  0.0378  0.0844
  366loPI   GL1 5845   6.745  11.024   9.413  0.1728 -0.1826  0.0185
  366loPI   GL2 5846   6.356  11.003   9.462  0.1926 -0.2742 -0.0946
  366loPI   C1A 5847   6.831  10.906   8.906  0.1925 -0.1806 -0.1164
  366loPI   C2A 5848   6.791  10.673   8.629  0.1256 -0.0219 -0.0596
  366loPI   C3A 5849   6.817  10.860   8.283 -0.1144 -0.1480 -0.3506
  366loPI   C4A 5850   6.956  10.839   7.936 -0.0109 -0.2631  0.5497
  366loPI   C5A 5851   6.909  11.151   7.603  0.0640 -0.2801 -0.1839
  366loPI   C6A 5852   6.998  11.243   7.243  0.0865  0.0136 -0.2745
  366loPI   C1B 5853   6.393  11.114   9.066 -0.0276  0.0068 -0.1691
  366loPI   C2B 5854   6.424  10.999   8.625  0.3914 -0.3040  0.5595
  366loPI   C3B 5855   6.242  10.882   8.179  0.0037  0.1097 -0.0522
  366loPI   C4B 5856   5.999  10.982   7.723 -0.1754  0.0287 -0.1418
  367loPI    C1 5857   5.089   4.530   9.623 -0.0803  0.1012  0.1193
  367loPI    C2 5858   4.925   4.188   9.496  0.1109 -0.0042  0.1523
  367loPI    C3 5859   4.984   4.248   9.887  0.0068  0.0998  0.1527
  367loPI   PO4 5860   4.917   4.715   9.554 -0.0852  0.0182  0.0158
  367loPI   GL1 5861   4.935   4.929   9.153  0.0274 -0.0163 -0.3515
  367loPI   GL2 5862   5.317   4.840   9.293  0.0790 -0.0892 -0.0723
  367loPI   C1A 5863   5.002   4.759   8.736  0.1513 -0.0800 -0.0929
  367loPI   C2A 5864   5.329   4.548   8.472  0.0125 -0.1624  0.0566
  367loPI   C3A 5865   5.670   4.535   8.092  0.4276  0.0805  0.1920
  367loPI   C4A 5866   5.660   4.279   7.750  0.1626  0.2736  0.0629
  367loPI   C5A 5867   5.248   4.041   7.605  0.1182 -0.0604 -0.1608
  367loPI   C6A 5868   5.052   4.334   7.386  0.2428 -0.0422 -0.3063
  367loPI   C1B 5869   5.359   5.093   8.940  0.2076  0.1384 -0.0803
  367loPI   C2B 5870   5.283   5.112   8.426 -0.0037  0.1349  0.1819
  367loPI   C3B 5871   5.466   5.014   8.021 -0.0121  0.2412 -0.1742
  367loPI   C4B 5872   5.415   4.782   7.656  0.0004  0.1506 -0.3992
  368loPI    C1 5873   6.162  11.953   9.704  0.0546  0.2465 -0.1072
  368loPI    C2 5874   6.096  12.015  10.093 -0.0681  0.2423 -0.1271
  368loPI    C3 5875   6.365  11.743   9.977 -0.3176 -0.0442 -0.0462
  368loPI   PO4 5876   6.042  12.105   9.625 -0.0928 -0.4001  0.0910
  368loPI   GL1 5877   6.021  12.444   9.435  0.2082 -0.0877  0.0676
  368loPI   GL2 5878   6.284  12.559   9.315 -0.0460 -0.1755 -0.0958
  368loPI   C1A 5879   5.668  12.722   9.171 -0.1046 -0.0657  0.0896
  368loPI   C2A 5880   5.492  12.642   8.768  0.3368 -0.0397  0.0491
  368loPI   C3A 5881   5.649  12.679   8.331  0.2063 -0.2210  0.0621
  368loPI   C4A 5882   5.739  12.779   7.946  0.3589 -0.1414 -0.0502
  368loPI   C5A 5883   5.720  12.984   7.636  0.1179  0.0043 -0.5262
  368loPI   C6A 5884   5.318  12.934   7.549  0.1466  0.2249 -0.0630
  368loPI   C1B 5885   6.175  12.538   8.937  0.0585 -0.4174 -0.0465
  368loPI   C2B 5886   5.893  12.237   8.785 -0.0211  0.1636  0.0241
  368loPI   C3B 5887   5.726  12.163   8.382  0.1338  0.2520  0.0791
  368loPI   C4B 5888   5.963  12.317   8.079 -0.0848  0.0071 -0.1990
  369loPI    C1 5889   6.065  14.568  10.279  0.0228  0.0014  0.0571
  369loPI    C2 5890   5.885  14.909  10.174 -0.0122 -0.0582 -0.0792
  369loPI    C3 5891   6.235  14.919  10.367 -0.0028  0.0544 -0.1015
  369loPI   PO4 5892   5.896  14.410  10.113  0.0542 -0.1993  0.3397
  369loPI   GL1 5893   5.902  14.516   9.703  0.3387 -0.0726 -0.1151
  369loPI   GL2 5894   5.661  14.736   9.732 -0.0769  0.1095  0.0847
  369loPI   C1A 5895   6.172  14.532   9.441  0.1827 -0.1416  0.0491
  369loPI   C2A 5896   6.380  14.575   9.082  0.0401 -0.0562  0.1636
  369loPI   C3A 5897   6.603  14.783   8.799  0.2199 -0.2608  0.0355
  369loPI   C4A 5898   6.937  14.726   8.478 -0.0319  0.0238  0.0287
  369loPI   C5A 5899   6.959  14.690   8.082 -0.3045  0.0921 -0.0685
  369loPI   C6A 5900   6.541  14.811   7.893 -0.0533  0.1337  0.3467
  369loPI   C1B 5901   5.708  14.781   9.273 -0.3722 -0.0225 -0.1506
  369loPI   C2B 5902   5.847  14.671   8.855  0.0151 -0.1432  0.1190
  369loPI   C3B 5903   6.173  14.578   8.616  0.0192  0.0778 -0.2118
  369loPI   C4B 5904   6.415  14.907   8.332  0.3739  0.1357  0.0741
  370loPI    C1 5905  11.492   2.051   9.722  0.0423  0.2892  0.0786
  370loPI    C2 5906  11.762   1.959  10.003  0.0121 -0.0338  0.0051
  370loPI    C3 5907  11.371   1.957  10.091  0.0268  0.3922  0.1001
  370loPI   PO4 5908  11.646   2.075   9.522  0.2251 -0.1235 -0.1240
  370loPI   GL1 5909  11.625   2.078   9.152  0.1321  0.4361 -0.4218
  370loPI   GL2 5910  11.247   2.244   9.217  0.0105 -0.0327  0.2139
  370loPI   C1A 5911  11.845   2.057   8.817 -0.4039  0.1764 -0.1801
  370loPI   C2A 5912  11.988   2.049   8.349 -0.0550 -0.1117 -0.2254
  370loPI   C3A 5913  12.046   2.044   7.862 -0.2639 -0.1252 -0.1569
  370loPI   C4A 5914  11.918   1.877   7.482  0.0910  0.0156 -0.0578
  370loPI   C5A 5915  11.679   1.867   7.165  0.2479  0.2166 -0.4387
  370loPI   C6A 5916  11.412   1.696   6.888 -0.0600  0.2277  0.1322
  370loPI   C1B 5917  11.340   2.398   8.849  0.0982  0.2437  0.4487
  370loPI   C2B 5918  11.489   2.215   8.394  0.2769  0.1412 -0.5120
  370loPI   C3B 5919  11.572   2.250   7.961 -0.0709 -0.3202  0.3360
  370loPI   C4B 5920  11.613   2.300   7.507  0.0538  0.6238 -0.0791
  371loPI    C1 5921   1.777   5.867   9.940  0.0734  0.1055 -0.0172
  371loPI    C2 5922   1.416   5.979  10.071  0.0929 -0.0908  0.2101
  371loPI    C3 5923   1.626   5.703  10.272  0.2978 -0.1018 -0.0142
  371loPI   PO4 5924   1.619   5.803   9.651  0.0438  0.1847 -0.1876
  371loPI   GL1 5925   1.612   5.942   9.263 -0.0042 -0.2763 -0.3562
  371loPI   GL2 5926   1.909   5.773   9.074 -0.1098  0.0163 -0.1427
  371loPI   C1A 5927   1.398   6.052   8.861 -0.0145 -0.1524  0.0490
  371loPI   C2A 5928   1.507   6.147   8.465  0.0330 -0.2776 -0.0089
  371loPI   C3A 5929   1.557   6.225   8.045  0.0700  0.1104  0.2093
  371loPI   C4A 5930   1.283   6.538   7.968  0.2299 -0.0907  0.1353
  371loPI   C5A 5931   1.315   6.692   7.616  0.3564  0.1972  0.1627
  371loPI   C6A 5932   1.372   6.747   7.180 -0.3271  0.1954 -0.1115
  371loPI   C1B 5933   1.813   5.620   8.663 -0.1727 -0.0120 -0.1211
  371loPI   C2B 5934   1.814   5.703   8.175  0.1150  0.4016 -0.0553
  371loPI   C3B 5935   1.662   5.831   7.803 -0.1908  0.0534  0.3582
  371loPI   C4B 5936   1.466   6.218   7.559 -0.2376  0.1382 -0.0305
  372loPI    C1 5937   3.246   0.856  10.198  0.0555 -0.2927 -0.0013
  372loPI    C2 5938   2.978   0.574  10.289  0.0104 -0.1990  0.1592
  372loPI    C3 5939   3.113   0.821  10.573 -0.1722  0.1323 -0.0364
  372loPI   PO4 5940   3.370   0.749  10.007  0.1436 -0.1964 -0.1343
  372loPI   GL1 5941   3.611   0.490   9.722  0.1629  0.1765  0.0359
  372loPI   GL2 5942   3.616   0.869   9.600  0.1148  0.0648  0.0321
  372loPI   C1A 5943   3.436   0.324   9.345 -0.0808  0.2890 -0.2434
  372loPI   C2A 5944   3.243   0.406   8.966 -0.1093 -0.1277  0.0913
  372loPI   C3A 5945   3.405   0.405   8.471 -0.3465 -0.0849  0.2210
  372loPI   C4A 5946   3.563   0.056   8.217 -0.1395  0.2611  0.0886
  372loPI   C5A 5947   3.635   0.047   7.855 -0.2157 -0.0240 -0.0882
  372loPI   C6A 5948   3.904  -0.023   7.460  0.0832  0.1848  0.2182
  372loPI   C1B 5949   3.322   0.837   9.212  0.0486 -0.1446 -0.0977
  372loPI   C2B 5950   2.979   0.865   8.860 -0.2141  0.1717  0.0223
  372loPI   C3B 5951   2.992   0.672   8.499 -0.0983  0.1203 -0.0303
  372loPI   C4B 5952   2.841   0.671   8.100  0.1222  0.1969  0.0039
  373loPI    C1 5953  11.388  11.788  10.061 -0.2132  0.0216 -0.0576
  373loPI    C2 5954  11.062  11.600  10.198 -0.0897  0.0463  0.2794
  373loPI    C3 5955  11.426  11.451  10.273 -0.0215 -0.0117 -0.1433
  373loPI   PO4 5956  11.299  11.962   9.837 -0.2443  0.0771 -0.3058
  373loPI   GL1 5957  11.362  12.109   9.509 -0.0642  0.4653  0.0583
  373loPI   GL2 5958  11.067  12.219   9.257 -0.0469 -0.1109  0.0233
  373loPI   C1A 5959  11.548  12.008   9.089  0.0780 -0.1685 -0.0103
  373loPI   C2A 5960  11.309  11.982   8.688 -0.4148 -0.0693  0.0592
  373loPI   C3A 5961  11.273  11.645   8.306 -0.4447 -0.1851  0.1941
  373loPI   C4A 5962  11.269  11.410   8.030 -0.2706  0.1718  0.3041
  373loPI   C5A 5963  11.596  11.221   7.806 -0.0424  0.0682 -0.1380
  373loPI   C6A 5964  11.753  10.871   7.511 -0.2572 -0.3335 -0.1483
  373loPI   C1B 5965  10.909  12.339   8.799 -0.1916  0.1916  0.0565
  373loPI   C2B 5966  10.887  12.132   8.320  0.0015 -0.1636  0.3482
  373loPI   C3B 5967  11.100  12.319   7.917  0.0827 -0.0725  0.1948
  373loPI   C4B 5968  11.188  12.464   7.625  0.1656 -0.2302  0.2775
  374loPI    C1 5969   8.943  12.107  10.269 -0.2166 -0.0493 -0.2165
  374loPI    C2 5970   9.299  12.036  10.100 -0.0614  0.0392  0.0660
  374loPI    C3 5971   9.216  11.888  10.462 -0.3221  0.0028 -0.0058
  374loPI   PO4 5972   8.686  12.094  10.090  0.1034 -0.0869  0.1362
  374loPI   GL1 5973   8.704  12.104   9.618  0.1790  0.0009 -0.3468
  374loPI   GL2 5974   9.124  11.999   9.640 -0.1278  0.0214 -0.1130
  374loPI   C1A 5975   8.879  11.893   9.229 -0.3787 -0.0533 -0.0701
  374loPI   C2A 5976   9.044  11.981   8.828 -0.1839 -0.4283  0.3094
  374loPI   C3A 5977   9.022  11.978   8.373 -0.1247 -0.2960 -0.1297
  374loPI   C4A 5978   8.784  12.266   8.036 -0.0964 -0.0616 -0.0355
  374loPI   C5A 5979   9.124  12.476   7.685 -0.0505  0.2490  0.0196
  374loPI   C6A 5980   9.417  12.730   7.536 -0.1274 -0.2188  0.0030
  374loPI   C1B 5981   9.384  12.112   9.223  0.0509  0.2236 -0.1308
  374loPI   C2B 5982   9.360  12.438   8.893 -0.1398  0.0899  0.1211
  374loPI   C3B 5983   9.336  12.374   8.487 -0.1239  0.1064 -0.0964
  374loPI   C4B 5984   9.513  12.402   8.060  0.0691  0.1132 -0.2314
  375loPI    C1 5985  10.434   1.086   9.616  0.0293 -0.0553  0.0697
  375loPI    C2 5986  10.158   1.235   9.369  0.1189  0.0301  0.0202
  375loPI    C3 5987  10.058   0.953   9.634 -0.0388  0.1362  0.0746
  375loPI   PO4 5988  10.632   1.035   9.472  0.2121  0.0593 -0.1873
  375loPI   GL1 5989  10.541   0.787   9.157  0.4593 -0.1099 -0.1439
  375loPI   GL2 5990  10.201   0.674   9.236 -0.0457 -0.1966 -0.0622
  375loPI   C1A 5991  10.471   0.929   8.693  0.0157 -0.1729  0.0695
  375loPI   C2A 5992  10.708   1.003   8.412 -0.0554  0.0707  0.0373
  375loPI   C3A 5993  10.838   1.278   8.201  0.2621 -0.2657  0.5449
  375loPI   C4A 5994  10.755   1.511   7.825 -0.0129  0.1338  0.0107
  375loPI   C5A 5995  10.502   1.717   7.563 -0.0160  0.0927  0.1416
  375loPI   C6A 5996  10.396   2.005   7.230  0.1232 -0.3167  0.1754
  375loPI   C1B 5997  10.323   0.393   8.902  0.1436  0.2682 -0.2066
  375loPI   C2B 5998  10.440   0.396   8.600  0.2731 -0.2281 -0.1580
  375loPI   C3B 5999  10.301   0.687   8.311  0.2993 -0.0207  0.0240
  375loPI   C4B 6000  10.364   0.962   8.036 -0.2399  0.1974 -0.1265
  376loPI    C1 6001  13.889   1.641  10.560  0.1541  0.0418  0.1212
  376loPI    C2 6002  13.559   1.861  10.504  0.2476  0.1317 -0.0874
  376loPI    C3 6003  13.798   1.933  10.817  0.0913  0.0921  0.0423
  376loPI   PO4 6004  13.919   1.599  10.178  0.0100  0.1446 -0.1216
  376loPI   GL1 6005  13.567   1.459   9.839 -0.0507  0.2349  0.4167
  376loPI   GL2 6006  13.810   1.624   9.670  0.2772 -0.0923  0.1743
  376loPI   C1A 6007  13.722   1.090   9.406  0.1885  0.0048 -0.0977
  376loPI   C2A 6008  13.812   0.979   9.021  0.0144 -0.1484 -0.1163
  376loPI   C3A 6009  13.711   0.880   8.552  0.3151 -0.0637 -0.0709
  376loPI   C4A 6010  13.700   0.789   8.135  0.0958  0.1650  0.2240
  376loPI   C5A 6011  13.530   0.648   7.722  0.0443 -0.1658  0.2805
  376loPI   C6A 6012  13.508   0.646   7.166 -0.0297  0.2192 -0.0727
  376loPI   C1B 6013  13.965   1.555   9.242 -0.1813  0.2289  0.0180
  376loPI   C2B 6014  14.290   1.492   9.109 -0.0402 -0.2909  0.0492
  376loPI   C3B 6015  14.280   1.167   8.742  0.2323  0.1084 -0.0150
  376loPI   C4B 6016  14.137   1.099   8.370 -0.1195  0.0328  0.1492
  377loPI    C1 6017  17.873  15.995  10.154  0.2403  0.1043  0.0404
  377loPI    C2 6018  18.005  16.370  10.193 -0.0787  0.2298 -0.0513
  377loPI    C3 6019  17.903  16.159  10.517 -0.0272  0.2694 -0.0091
  377loPI   PO4 6020  17.762  15.997   9.874  0.1067  0.0448 -0.0765
  377loPI   GL1 6021  17.792  15.837   9.434 -0.5157  0.1824 -0.0105
  377loPI   GL2 6022  17.513  15.700   9.560  0.2621 -0.1328 -0.2080
  377loPI   C1A 6023  18.112  15.693   9.079 -0.1849  0.0563  0.0011
  377loPI   C2A 6024  18.370  15.760   8.624 -0.3359 -0.1433 -0.0513
  377loPI   C3A 6025  18.742  15.605   8.535 -0.2071 -0.1603 -0.3340
  377loPI   C4A 6026  19.110  15.539   8.328  0.0968  0.0873  0.1558
  377loPI   C5A 6027  19.552  15.494   8.359  0.1877 -0.0489 -0.0917
  377loPI   C6A 6028  19.663  15.203   8.016 -0.1375  0.1321  0.1620
  377loPI   C1B 6029  17.182  15.373   9.502 -0.2287  0.4879 -0.0544
  377loPI   C2B 6030  17.253  15.034   9.183 -0.0498 -0.4801 -0.3437
  377loPI   C3B 6031  17.368  14.922   8.788 -0.2770 -0.2232  0.0291
  377loPI   C4B 6032  17.379  14.649   8.427  0.0264  0.1463 -0.0636
  378loPI    C1 6033   3.623  13.631  10.446  0.1816 -0.0018  0.0488
  378loPI    C2 6034   3.505  13.918  10.698 -0.2161 -0.0477 -0.0773
  378loPI    C3 6035   3.499  13.536  10.814 -0.1053 -0.0437 -0.0564
  378loPI   PO4 6036   3.387  13.650  10.185 -0.2115 -0.1683  0.1771
  378loPI   GL1 6037   3.128  13.295  10.020 -0.3235 -0.1531 -0.1222
  378loPI   GL2 6038   3.338  13.189   9.817 -0.1639 -0.0564 -0.2178
  378loPI   C1A 6039   2.867  13.415   9.647  0.2054  0.0864 -0.3739
  378loPI   C2A 6040   2.962  13.611   9.273 -0.0322  0.2084 -0.0992
  378loPI   C3A 6041   2.919  13.679   8.849  0.2163  0.0963 -0.1624
  378loPI   C4A 6042   2.595  13.716   8.522 -0.6094 -0.0003 -0.0644
  378loPI   C5A 6043   2.327  13.392   8.395 -0.2096  0.1054 -0.1473
  378loPI   C6A 6044   1.974  13.536   8.309  0.2518  0.2924 -0.0488
  378loPI   C1B 6045   3.286  13.168   9.353  0.1248  0.1051  0.3351
  378loPI   C2B 6046   3.276  13.213   8.944  0.2024 -0.1635  0.0082
  378loPI   C3B 6047   3.199  13.135   8.528  0.0347 -0.1213 -0.2964
  378loPI   C4B 6048   2.822  13.277   8.220  0.0612 -0.1064  0.0572
  379loPI    C1 6049  12.536  12.931   9.668  0.0909  0.2029 -0.3083
  379loPI    C2 6050  12.389  12.668   9.931 -0.0886  0.4348 -0.1721
  379loPI    C3 6051  12.763  12.805   9.973 -0.0132  0.2447 -0.2126
  379loPI   PO4 6052  12.596  12.927   9.446  0.3307 -0.1606 -0.1173
  379loPI   GL1 6053  12.485  13.162   9.082 -0.0906  0.0285 -0.0720
  379loPI   GL2 6054  12.780  12.962   9.027 -0.1159  0.0245 -0.1574
  379loPI   C1A 6055  12.401  12.846   8.706 -0.1479  0.2750 -0.0121
  379loPI   C2A 6056  12.443  12.533   8.329  0.1009 -0.0163  0.1979
  379loPI   C3A 6057  12.291  12.323   7.927  0.2883  0.1806  0.0173
  379loPI   C4A 6058  12.098  11.991   7.726  0.0994  0.1569  0.4028
  379loPI   C5A 6059  12.089  11.546   7.641 -0.1736 -0.0033 -0.2231
  379loPI   C6A 6060  12.076  11.129   7.743  0.2300  0.0414 -0.0373
  379loPI   C1B 6061  12.876  12.728   8.607  0.0361 -0.0595  0.0855
  379loPI   C2B 6062  12.788  12.998   8.272 -0.1277 -0.0996 -0.2539
  379loPI   C3B 6063  12.606  12.732   7.908  0.0550  0.2662 -0.1529
  379loPI   C4B 6064  12.461  12.796   7.551 -0.0118  0.2613  0.0629
  380loPI    C1 6065   7.455   4.531   9.884 -0.0839 -0.0673 -0.0286
  380loPI    C2 6066   7.653   4.813   9.681 -0.0805  0.0147  0.0879
  380loPI    C3 6067   7.737   4.747  10.067  0.0458 -0.2699  0.0146
  380loPI   PO4 6068   7.471   4.370   9.659  0.1998  0.2062 -0.2558
  380loPI   GL1 6069   7.298   4.304   9.208  0.0997  0.0183 -0.1602
  380loPI   GL2 6070   7.372   4.014   9.198 -0.3293 -0.1090 -0.0306
  380loPI   C1A 6071   7.346   4.366   8.746  0.0339 -0.2691  0.2775
  380loPI   C2A 6072   7.642   4.168   8.391 -0.4863  0.2453  0.2257
  380loPI   C3A 6073   7.638   3.936   7.993  0.0709  0.0923 -0.1694
  380loPI   C4A 6074   7.434   3.869   7.585 -0.1504 -0.0516 -0.3999
  380loPI   C5A 6075   7.201   3.718   7.274  0.2042  0.1809  0.1727
  380loPI   C6A 6076   6.829   3.529   7.363 -0.1323 -0.2242 -0.1138
  380loPI   C1B 6077   7.739   4.036   8.902 -0.0974 -0.0766 -0.4441
  380loPI   C2B 6078   7.879   3.729   8.440 -0.1200 -0.1373  0.1147
  380loPI   C3B 6079   8.122   3.489   8.105  0.0459 -0.0006 -0.4815
  380loPI   C4B 6080   8.249   3.344   7.787  0.2296 -0.1939 -0.0514
  381loPI    C1 6081   8.613  11.062   9.709 -0.0593 -0.0453  0.0620
  381loPI    C2 6082   8.886  11.038  10.000  0.0396 -0.1040 -0.0349
  381loPI    C3 6083   9.000  11.023   9.617 -0.0781  0.0889 -0.0791
  381loPI   PO4 6084   8.513  11.270   9.702 -0.0009 -0.0124 -0.2596
  381loPI   GL1 6085   8.313  11.350   9.286  0.0102 -0.0733 -0.0410
  381loPI   GL2 6086   8.421  11.649   9.241 -0.4864 -0.2651  0.1248
  381loPI   C1A 6087   8.367  11.348   8.841  0.2462  0.1336  0.1203
  381loPI   C2A 6088   8.271  11.431   8.438 -0.1971 -0.0636  0.0238
  381loPI   C3A 6089   8.063  11.526   8.011  0.0419  0.2189 -0.0999
  381loPI   C4A 6090   7.977  11.363   7.565 -0.1937 -0.1243 -0.0328
  381loPI   C5A 6091   8.003  11.434   7.112  0.2877  0.1423  0.2417
  381loPI   C6A 6092   8.098  11.136   6.859 -0.2638  0.2126  0.3194
  381loPI   C1B 6093   8.112  11.846   8.764 -0.0049 -0.3009 -0.0611
  381loPI   C2B 6094   7.907  11.760   8.429  0.0779  0.1164 -0.0102
  381loPI   C3B 6095   7.615  12.030   8.054  0.0304  0.1674 -0.0502
  381loPI   C4B 6096   7.247  12.151   7.899 -0.0533  0.1169 -0.2046
  382loPI    C1 6097   9.269   3.708   9.772 -0.0108 -0.1204 -0.0772
  382loPI    C2 6098   9.426   3.375   9.928  0.1120 -0.1377 -0.2342
  382loPI    C3 6099   9.218   3.626  10.160  0.2209 -0.2038 -0.0625
  382loPI   PO4 6100   9.419   3.861   9.630 -0.0753 -0.2319 -0.1610
  382loPI   GL1 6101   9.478   3.849   9.258 -0.3004  0.0470  0.0510
  382loPI   GL2 6102   9.387   3.653   9.090  0.2036  0.1282 -0.0571
  382loPI   C1A 6103   9.541   4.141   8.997  0.0397  0.2016 -0.3654
  382loPI   C2A 6104   9.525   4.162   8.519 -0.2021 -0.2843  0.0033
  382loPI   C3A 6105   9.660   4.245   8.084 -0.1646 -0.0971 -0.3631
  382loPI   C4A 6106  10.053   4.158   7.773 -0.0296 -0.3251 -0.1577
  382loPI   C5A 6107  10.080   3.909   7.345  0.0180 -0.2009 -0.0296
  382loPI   C6A 6108   9.991   3.477   7.252 -0.1151  0.1472  0.3238
  382loPI   C1B 6109   9.216   3.673   8.658  0.1442 -0.2281 -0.0887
  382loPI   C2B 6110   8.941   3.895   8.309 -0.3055 -0.2048  0.0913
  382loPI   C3B 6111   8.890   4.034   7.879  0.0281 -0.0484 -0.2526
  382loPI   C4B 6112   8.518   3.931   7.725  0.3410 -0.0563  0.2863
  383loPI    C1 6113  14.191  12.643  10.097  0.1003 -0.1544  0.0007
  383loPI    C2 6114  13.880  12.562  10.336 -0.0907  0.1163 -0.1510
  383loPI    C3 6115  14.234  12.659  10.495 -0.1859  0.1837  0.0230
  383loPI   PO4 6116  14.152  12.483   9.916  0.1793  0.0302 -0.2418
  383loPI   GL1 6117  14.020  12.703   9.535  0.1526  0.1519 -0.0870
  383loPI   GL2 6118  14.255  12.821   9.273  0.4035 -0.2034 -0.2282
  383loPI   C1A 6119  13.928  12.398   9.081  0.2343  0.1174 -0.3706
  383loPI   C2A 6120  13.895  12.378   8.609 -0.0638  0.1650  0.0970
  383loPI   C3A 6121  13.638  12.109   8.304 -0.0912  0.1197  0.1222
  383loPI   C4A 6122  13.314  12.117   7.893 -0.0253  0.1586 -0.1473
  383loPI   C5A 6123  12.974  12.244   7.798 -0.2124  0.0059  0.2586
  383loPI   C6A 6124  12.786  12.291   7.524  0.1259 -0.2604 -0.0223
  383loPI   C1B 6125  14.220  12.766   8.925  0.0153 -0.1703  0.2541
  383loPI   C2B 6126  14.213  12.766   8.556 -0.1803  0.4371 -0.0026
  383loPI   C3B 6127  14.001  12.738   8.189 -0.1466 -0.0032 -0.1091
  383loPI   C4B 6128  13.711  12.945   7.887 -0.3517 -0.2868  0.0785
  384loPI    C1 6129  17.316   3.529  10.408  0.2689 -0.2135  0.2983
  384loPI    C2 6130  17.184   3.270  10.134  0.0303  0.1026  0.1068
  384loPI    C3 6131  17.073   3.230  10.516 -0.2362  0.0859  0.0299
  384loPI   PO4 6132  17.160   3.778  10.284 -0.0188  0.4230 -0.1618
  384loPI   GL1 6133  17.381   4.014   9.934 -0.2413  0.7604 -0.0619
  384loPI   GL2 6134  17.468   3.668   9.908 -0.2129 -0.2915 -0.1175
  384loPI   C1A 6135  17.352   4.111   9.599 -0.1014  0.1869  0.1658
  384loPI   C2A 6136  17.138   4.277   9.293  0.1094  0.0934 -0.4201
  384loPI   C3A 6137  17.168   4.511   8.881 -0.2170 -0.3303 -0.2399
  384loPI   C4A 6138  17.143   4.556   8.395 -0.0085  0.1664  0.0276
  384loPI   C5A 6139  16.959   4.615   8.146  0.0346  0.2119 -0.1516
  384loPI   C6A 6140  16.596   4.812   7.892 -0.0650 -0.0284 -0.1253
  384loPI   C1B 6141  17.479   3.588   9.433 -0.0230 -0.0684  0.0458
  384loPI   C2B 6142  17.526   3.454   8.981  0.1572  0.0220  0.0829
  384loPI   C3B 6143  17.288   3.411   8.596 -0.1591  0.1011 -0.1714
  384loPI   C4B 6144  17.514   3.144   8.243 -0.1017  0.0623 -0.1607
  385loPI    C1 6145  17.520   1.395  10.254  0.0846 -0.0789 -0.1925
  385loPI    C2 6146  17.396   1.771  10.192  0.2077 -0.0397 -0.2042
  385loPI    C3 6147  17.285   1.576  10.523  0.2532  0.0549 -0.1327
  385loPI   PO4 6148  17.647   1.307  10.037  0.1019 -0.0224  0.0200
  385loPI   GL1 6149  17.604   1.407   9.556 -0.1232  0.1958  0.0145
  385loPI   GL2 6150  17.265   1.347   9.316  0.1820 -0.2059 -0.0240
  385loPI   C1A 6151  17.738   1.489   9.080  0.2374 -0.2167 -0.1414
  385loPI   C2A 6152  17.811   1.533   8.687  0.0608  0.1853  0.2135
  385loPI   C3A 6153  17.792   1.782   8.207 -0.1214 -0.1078  0.2395
  385loPI   C4A 6154  17.540   2.010   7.777  0.0931  0.0060 -0.0273
  385loPI   C5A 6155  17.482   2.188   7.369 -0.1541 -0.1456  0.1452
  385loPI   C6A 6156  17.406   2.181   6.865  0.1481  0.1319 -0.1249
  385loPI   C1B 6157  17.275   1.388   8.879  0.2039 -0.2664  0.2351
  385loPI   C2B 6158  17.319   1.788   8.608 -0.2022 -0.1501 -0.1050
  385loPI   C3B 6159  17.238   2.012   8.164  0.0338 -0.1998  0.4673
  385loPI   C4B 6160  17.064   2.208   7.845 -0.2542 -0.0209  0.2139
  386loPI    C1 6161   5.490  10.682  10.030 -0.2763 -0.2167  0.1777
  386loPI    C2 6162   5.493  10.807  10.410  0.0754 -0.0417  0.1212
  386loPI    C3 6163   5.509  10.415  10.328  0.2330 -0.0712  0.2854
  386loPI   PO4 6164   5.686  10.843   9.943  0.2694 -0.0199  0.1036
  386loPI   GL1 6165   5.823  11.125   9.777 -0.1641  0.1956  0.0124
  386loPI   GL2 6166   6.098  11.334   9.863  0.0363  0.0341  0.0697
  386loPI   C1A 6167   5.863  11.111   9.399 -0.1369 -0.2235  0.2889
  386loPI   C2A 6168   5.894  11.257   8.974 -0.0934  0.2021 -0.1385
  386loPI   C3A 6169   6.036  11.283   8.552  0.0577  0.0195  0.2281
  386loPI   C4A 6170   6.032  11.332   8.128  0.0763 -0.1498  0.2230
  386loPI   C5A 6171   6.045  11.575   7.742 -0.0735 -0.1029 -0.1618
  386loPI   C6A 6172   6.218  11.955   7.686 -0.2362 -0.2842  0.3111
  386loPI   C1B 6173   6.154  11.489   9.369 -0.0430  0.0387 -0.1517
  386loPI   C2B 6174   6.246  11.609   8.961 -0.1397  0.1615 -0.2505
  386loPI   C3B 6175   6.325  11.705   8.456 -0.0569  0.0211 -0.0965
  386loPI   C4B 6176   6.462  11.702   8.089 -0.0971  0.0993  0.3548
  387loPI    C1 6177  11.951   7.569  10.301  0.0466  0.0002  0.1553
  387loPI    C2 6178  12.002   7.294  10.588 -0.0718 -0.0075  0.1697
  387loPI    C3 6179  12.107   7.674  10.654  0.0244 -0.0349  0.1757
  387loPI   PO4 6180  11.990   7.516  10.027 -0.2218  0.2149  0.3309
  387loPI   GL1 6181  11.867   7.752   9.595  0.2537  0.0429 -0.1318
  387loPI   GL2 6182  11.565   7.849   9.491  0.1645 -0.3950  0.1470
  387loPI   C1A 6183  11.950   7.424   9.262 -0.1525  0.2090  0.1830
  387loPI   C2A 6184  12.181   7.292   9.006  0.0952 -0.2904 -0.1748
  387loPI   C3A 6185  12.661   7.192   8.994 -0.3518  0.0108  0.0476
  387loPI   C4A 6186  13.137   7.058   8.979  0.2925 -0.2465  0.1662
  387loPI   C5A 6187  13.350   7.368   8.979 -0.0614  0.0411  0.0842
  387loPI   C6A 6188  13.336   7.738   8.661  0.1056  0.0548  0.3047
  387loPI   C1B 6189  11.605   7.814   9.090  0.1670  0.1894 -0.1546
  387loPI   C2B 6190  11.734   7.665   8.654  0.1936 -0.1741  0.0985
  387loPI   C3B 6191  11.987   7.483   8.368  0.0596  0.0548 -0.1316
  387loPI   C4B 6192  12.146   7.115   8.019 -0.0618  0.1183 -0.1999
  388loPI    C1 6193   8.400   4.735  10.180 -0.0068 -0.0606  0.1797
  388loPI    C2 6194   8.082   4.529  10.307 -0.0431  0.0926  0.3425
  388loPI    C3 6195   8.147   4.899  10.442  0.1404  0.1071  0.2190
  388loPI   PO4 6196   8.416   4.654   9.881  0.4582  0.2522 -0.3965
  388loPI   GL1 6197   8.383   4.829   9.418  0.1488  0.0259 -0.0062
  388loPI   GL2 6198   8.071   4.844   9.289 -0.1883 -0.2959  0.0168
  388loPI   C1A 6199   8.620   4.644   9.028  0.0610  0.2931  0.0404
  388loPI   C2A 6200   8.678   4.633   8.667  0.0796 -0.0020 -0.0901
  388loPI   C3A 6201   8.592   4.325   8.325 -0.1995 -0.1902  0.1882
  388loPI   C4A 6202   8.469   4.418   7.912 -0.0639 -0.1218  0.0238
  388loPI   C5A 6203   8.256   4.513   7.529 -0.1672  0.1482  0.0624
  388loPI   C6A 6204   8.202   4.489   7.099 -0.2502 -0.2333 -0.2167
  388loPI   C1B 6205   8.299   4.967   8.887  0.0945 -0.1120 -0.0622
  388loPI   C2B 6206   8.306   5.480   8.810  0.0270  0.2459  0.1889
  388loPI   C3B 6207   8.347   5.582   8.363 -0.1463  0.0491 -0.3650
  388loPI   C4B 6208   8.365   5.646   7.991 -0.0833  0.0464  0.0210
  389loPI    C1 6209  16.792   8.816  10.164 -0.0084 -0.2393  0.1188
  389loPI    C2 6210  17.135   8.641  10.057  0.1523  0.0639  0.1269
  389loPI    C3 6211  17.123   8.875  10.381 -0.0957 -0.0530  0.2042
  389loPI   PO4 6212  16.616   8.829  10.014 -0.1315  0.0988  0.2837
  389loPI   GL1 6213  16.563   9.010   9.621 -0.1282 -0.1775  0.1108
  389loPI   GL2 6214  16.720   9.357   9.557  0.0629 -0.3828 -0.2953
  389loPI   C1A 6215  16.555   8.867   9.153 -0.1592  0.0534  0.0883
  389loPI   C2A 6216  16.407   9.159   8.835 -0.2034 -0.0691 -0.0599
  389loPI   C3A 6217  16.571   9.169   8.390  0.0643 -0.0319 -0.0607
  389loPI   C4A 6218  16.332   9.029   8.107  0.2162  0.1641 -0.1202
  389loPI   C5A 6219  15.946   8.957   7.946 -0.1324 -0.1292 -0.2308
  389loPI   C6A 6220  15.517   9.027   7.768 -0.0885  0.1535 -0.0558
  389loPI   C1B 6221  16.606   9.571   9.198  0.1748 -0.0446  0.0948
  389loPI   C2B 6222  16.717   9.657   8.801 -0.1128 -0.1740 -0.1211
  389loPI   C3B 6223  16.452   9.771   8.380  0.0609 -0.0027  0.0196
  389loPI   C4B 6224  16.412   9.927   7.909 -0.1857 -0.1480 -0.0927
  390loPI    C1 6225   1.471  17.859   9.850 -0.2405  0.2006 -0.1325
  390loPI    C2 6226   1.540  17.758   9.469 -0.0486  0.1337 -0.0815
  390loPI    C3 6227   1.421  17.480   9.731 -0.2853  0.2012 -0.1149
  390loPI   PO4 6228   1.264  18.025   9.886  0.0539  0.4958  0.0208
  390loPI   GL1 6229   1.179  18.238   9.577  0.1484  0.1639  0.0757
  390loPI   GL2 6230   1.100  18.452   9.465  0.1774 -0.0015  0.0199
  390loPI   C1A 6231   1.411  18.162   9.224 -0.0982  0.3383  0.0265
  390loPI   C2A 6232   1.644  18.148   8.892  0.0571  0.0653 -0.1288
  390loPI   C3A 6233   1.805  18.218   8.525  0.0900  0.3228 -0.1951
  390loPI   C4A 6234   2.040  18.243   8.102 -0.2598  0.0264 -0.1634
  390loPI   C5A 6235   2.293  18.137   7.916  0.1341  0.0180  0.2382
  390loPI   C6A 6236   2.311  17.744   7.703 -0.1820  0.0258  0.0556
  390loPI   C1B 6237   1.033  18.578   9.104  0.1663 -0.1310 -0.3288
  390loPI   C2B 6238   0.941  18.687   8.701 -0.2576 -0.1739 -0.2584
  390loPI   C3B 6239   0.867  18.509   8.309  0.0309  0.0147 -0.1056
  390loPI   C4B 6240   0.440  18.688   8.529  0.0502  0.1417 -0.1717
  391loPI    C1 6241   1.320   2.983  10.074  0.0382  0.0097  0.1171
  391loPI    C2 6242   1.594   3.029   9.786 -0.0814  0.0706  0.0121
  391loPI    C3 6243   1.532   3.321  10.052  0.1680 -0.0638  0.2226
  391loPI   PO4 6244   1.061   3.022  10.007 -0.1018  0.1580 -0.1037
  391loPI   GL1 6245   1.082   3.097   9.563 -0.0753  0.3402 -0.1996
  391loPI   GL2 6246   0.768   3.304   9.460  0.0213 -0.0834 -0.0187
  391loPI   C1A 6247   0.944   2.795   9.235 -0.1835  0.0432 -0.4822
  391loPI   C2A 6248   0.774   2.750   8.864 -0.1752  0.0221 -0.1950
  391loPI   C3A 6249   0.859   2.960   8.466 -0.3832  0.2145  0.1016
  391loPI   C4A 6250   1.156   3.169   8.166 -0.0590 -0.2296 -0.0146
  391loPI   C5A 6251   1.380   3.560   8.021  0.1975 -0.3283  0.0683
  391loPI   C6A 6252   1.758   3.644   7.781 -0.0067  0.1280  0.0326
  391loPI   C1B 6253   0.582   3.127   9.224 -0.0341  0.0064 -0.1381
  391loPI   C2B 6254   0.407   3.145   8.792  0.0970  0.0823 -0.0443
  391loPI   C3B 6255   0.525   3.406   8.455  0.1017 -0.1762  0.1800
  391loPI   C4B 6256   0.620   3.151   8.045  0.0358  0.2438  0.0666
  392loPI    C1 6257   2.346  11.574  10.119 -0.0225  0.1142 -0.0028
  392loPI    C2 6258   2.660  11.347  10.219  0.1952  0.4560  0.1086
  392loPI    C3 6259   2.399  11.461  10.499 -0.2287 -0.1091 -0.0384
  392loPI   PO4 6260   2.320  11.467   9.824  0.1585  0.0327 -0.1648
  392loPI   GL1 6261   2.135  11.366   9.397  0.0910 -0.1554 -0.0491
  392loPI   GL2 6262   1.909  11.180   9.373 -0.2522  0.0939  0.1301
  392loPI   C1A 6263   2.132  11.326   8.877  0.1052  0.1180 -0.1303
  392loPI   C2A 6264   1.858  11.329   8.575  0.1988  0.2835  0.0482
  392loPI   C3A 6265   1.489  11.468   8.371  0.1757 -0.0280  0.2382
  392loPI   C4A 6266   1.295  11.817   8.151  0.0596 -0.0122 -0.2992
  392loPI   C5A 6267   1.307  11.964   7.770 -0.3519 -0.1745  0.1674
  392loPI   C6A 6268   1.007  12.159   7.495 -0.3541 -0.0674  0.2229
  392loPI   C1B 6269   1.704  11.094   8.935 -0.1793  0.3377  0.3588
  392loPI   C2B 6270   1.421  11.065   8.633 -0.0216 -0.1372 -0.1055
  392loPI   C3B 6271   1.538  11.000   8.226  0.0707  0.2853 -0.0538
  392loPI   C4B 6272   1.609  10.905   7.746 -0.1256  0.0757  0.1267
  393loPI    C1 6273   4.526  12.535  10.436 -0.1526  0.0320  0.1130
  393loPI    C2 6274   4.396  12.899  10.333  0.1659  0.0587 -0.2156
  393loPI    C3 6275   4.763  12.853  10.486 -0.0130 -0.0819  0.1834
  393loPI   PO4 6276   4.493  12.431  10.216  0.2476  0.2690 -0.2887
  393loPI   GL1 6277   4.181  12.508  10.011 -0.3133 -0.3048 -0.1578
  393loPI   GL2 6278   3.953  12.262   9.854 -0.2591  0.2411 -0.0018
  393loPI   C1A 6279   4.497  12.564   9.577 -0.0551 -0.0420  0.0775
  393loPI   C2A 6280   4.526  12.694   9.186  0.2915 -0.1122  0.0199
  393loPI   C3A 6281   4.404  12.606   8.773  0.0967 -0.1148  0.2006
  393loPI   C4A 6282   4.572  12.525   8.382  0.0311  0.1252  0.1260
  393loPI   C5A 6283   4.523  12.222   8.046  0.1439 -0.1169 -0.0713
  393loPI   C6A 6284   4.341  12.367   7.653  0.0836  0.0468  0.1620
  393loPI   C1B 6285   4.004  12.664   9.573 -0.0782 -0.4620 -0.4222
  393loPI   C2B 6286   3.722  12.848   9.399 -0.1089 -0.0185 -0.1248
  393loPI   C3B 6287   3.569  12.763   9.055 -0.0456 -0.2015  0.2284
  393loPI   C4B 6288   3.556  12.804   8.658 -0.5454  0.0483 -0.0336
  394loPI    C1 6289   3.022  11.119   9.881  0.0173  0.0249  0.2353
  394loPI    C2 6290   2.902  10.738   9.866  0.0403  0.0258 -0.0036
  394loPI    C3 6291   2.971  10.912  10.219 -0.2872 -0.0907  0.1218
  394loPI   PO4 6292   2.848  11.345   9.772 -0.1678 -0.0485 -0.3867
  394loPI   GL1 6293   2.687  11.400   9.347 -0.4526  0.1781 -0.1417
  394loPI   GL2 6294   2.486  11.069   9.167 -0.0740  0.0199  0.1523
  394loPI   C1A 6295   2.690  11.586   8.922 -0.0797 -0.0653  0.2365
  394loPI   C2A 6296   2.741  11.680   8.541  0.2458 -0.2772  0.1089
  394loPI   C3A 6297   2.621  11.589   8.142  0.0158 -0.0991  0.0565
  394loPI   C4A 6298   2.717  11.514   7.706 -0.2850  0.1462 -0.1089
  394loPI   C5A 6299   2.703  11.798   7.417  0.1225 -0.0110  0.2478
  394loPI   C6A 6300   2.607  12.210   7.435  0.0711 -0.2648 -0.2264
  394loPI   C1B 6301   2.512  11.047   8.630  0.1278  0.1904 -0.0358
  394loPI   C2B 6302   2.217  11.211   8.256 -0.1575 -0.3228  0.1972
  394loPI   C3B 6303   1.798  11.321   8.001 -0.1235  0.1271  0.0647
  394loPI   C4B 6304   1.296  11.305   7.840 -0.0413 -0.0975 -0.1511
  395loPI    C1 6305   0.663  10.234  10.015  0.2237  0.0985  0.0602
  395loPI    C2 6306   0.831   9.985  10.278 -0.0051  0.0687  0.1808
  395loPI    C3 6307   0.476   9.896  10.117 -0.1500  0.3756  0.3230
  395loPI   PO4 6308   0.697  10.514  10.136  0.0969  0.0360  0.0042
  395loPI   GL1 6309   0.407  10.618   9.736  0.1077  0.1330 -0.0303
  395loPI   GL2 6310   0.074  10.552   9.668  0.2877 -0.0923  0.2754
  395loPI   C1A 6311   0.432  10.500   9.327 -0.0362  0.0705  0.3061
  395loPI   C2A 6312   0.322  10.549   8.827  0.2018 -0.0344 -0.1541
  395loPI   C3A 6313   0.549  10.506   8.503 -0.6423  0.3557  0.2754
  395loPI   C4A 6314   0.444  10.383   8.156 -0.2261  0.2479 -0.0852
  395loPI   C5A 6315   0.553  10.479   7.742 -0.0719 -0.5710 -0.0729
  395loPI   C6A 6316   0.611  10.903   7.563  0.0104 -0.2557  0.1363
  395loPI   C1B 6317  -0.262  10.534   9.350  0.0429  0.0969  0.1344
  395loPI   C2B 6318  -0.178  10.572   8.861  0.0216 -0.1313  0.1253
  395loPI   C3B 6319  -0.005  10.374   8.485  0.2966 -0.3625 -0.0343
  395loPI   C4B 6320  -0.073  10.299   8.081 -0.0797 -0.1536 -0.1459
  396loPI    C1 6321  11.749   2.503   9.809  0.0483 -0.1348  0.0636
  396loPI    C2 6322  11.905   2.452  10.173 -0.0214 -0.0289  0.1089
  396loPI    C3 6323  11.510   2.424  10.119 -0.0178  0.0238  0.0543
  396loPI   PO4 6324  12.111   2.540   9.738 -0.1076 -0.0205  0.1619
  396loPI   GL1 6325  12.184   2.451   9.332  0.1568  0.0319  0.0697
  396loPI   GL2 6326  12.376   2.801   9.114 -0.0414  0.0781  0.0029
  396loPI   C1A 6327  12.289   2.300   8.914 -0.4518  0.2245 -0.0886
  396loPI   C2A 6328  12.427   2.234   8.469  0.1209 -0.0146  0.0495
  396loPI   C3A 6329  12.685   2.249   8.218 -0.2073 -0.0372  0.2973
  396loPI   C4A 6330  13.013   2.438   7.971  0.1471  0.0567  0.2047
  396loPI   C5A 6331  13.446   2.600   7.831  0.1732  0.1917  0.1953
  396loPI   C6A 6332  13.612   2.861   7.538  0.2711 -0.2176  0.2899
  396loPI   C1B 6333  12.366   2.985   8.723  0.2734  0.1163 -0.1763
  396loPI   C2B 6334  12.250   3.036   8.352 -0.1059  0.1951  0.1427
  396loPI   C3B 6335  12.039   3.223   8.040  0.3749 -0.0098 -0.4344
  396loPI   C4B 6336  11.989   3.206   7.652  0.0375  0.1439 -0.1513
  397loPI    C1 6337  12.456  17.405  10.102 -0.1412 -0.1450 -0.3506
  397loPI    C2 6338  12.125  17.423  10.324  0.1049  0.2453  0.0003
  397loPI    C3 6339  12.333  17.082  10.302 -0.1999  0.0589 -0.0522
  397loPI   PO4 6340  12.541  17.393   9.893 -0.0937 -0.1382 -0.4315
  397loPI   GL1 6341  12.816  17.359   9.493  0.2981  0.0024 -0.1766
  397loPI   GL2 6342  12.563  17.209   9.410  0.0274  0.3391 -0.1346
  397loPI   C1A 6343  12.710  17.563   9.058 -0.1478 -0.1692 -0.0719
  397loPI   C2A 6344  12.482  17.655   8.700  0.2706 -0.1085 -0.4155
  397loPI   C3A 6345  12.429  17.599   8.288 -0.1323  0.0722 -0.1529
  397loPI   C4A 6346  12.268  17.584   7.937 -0.1265 -0.2272 -0.0811
  397loPI   C5A 6347  12.388  17.699   7.487  0.2643 -0.0050  0.3744
  397loPI   C6A 6348  12.702  17.962   7.334 -0.0466  0.0581  0.0652
  397loPI   C1B 6349  12.269  17.304   9.009 -0.2184  0.0443 -0.0309
  397loPI   C2B 6350  12.038  17.307   8.607  0.1073  0.1633 -0.2427
  397loPI   C3B 6351  11.961  17.215   8.183 -0.0830 -0.1638 -0.2289
  397loPI   C4B 6352  12.005  17.121   7.766 -0.1647  0.1655  0.0628
  398loPI    C1 6353  13.931  10.738   9.875  0.2891  0.0036 -0.2573
  398loPI    C2 6354  14.103  10.623  10.218  0.0130 -0.2238 -0.1914
  398loPI    C3 6355  13.887  10.959  10.206  0.1716 -0.1208 -0.1888
  398loPI   PO4 6356  14.052  10.728   9.702 -0.1631 -0.1824 -0.0996
  398loPI   GL1 6357  13.953  10.943   9.286  0.3393 -0.0030  0.1245
  398loPI   GL2 6358  14.160  11.074   9.255 -0.0845 -0.0277  0.1855
  398loPI   C1A 6359  13.875  10.829   8.805 -0.1070  0.0066 -0.0559
  398loPI   C2A 6360  13.884  10.833   8.335  0.0938  0.0081 -0.0138
  398loPI   C3A 6361  13.918  10.779   7.820  0.4270  0.2422 -0.1091
  398loPI   C4A 6362  14.023  11.051   7.488  0.0256 -0.1210 -0.2836
  398loPI   C5A 6363  14.004  11.455   7.491 -0.2391  0.3012 -0.1249
  398loPI   C6A 6364  14.242  11.936   7.532 -0.1388 -0.2276  0.2585
  398loPI   C1B 6365  14.319  11.038   8.877 -0.1099  0.1040  0.0014
  398loPI   C2B 6366  14.348  10.948   8.470 -0.2839 -0.1864 -0.2357
  398loPI   C3B 6367  14.379  10.975   8.036  0.0614 -0.1834 -0.0608
  398loPI   C4B 6368  14.475  10.835   7.600  0.2037 -0.2899 -0.0341
  399loPI    C1 6369  11.493  10.026  10.480 -0.0278  0.1172  0.0979
  399loPI    C2 6370  11.256   9.772  10.679  0.2378 -0.1947  0.0249
  399loPI    C3 6371  11.295  10.150  10.805  0.0308 -0.2561  0.2814
  399loPI   PO4 6372  11.452   9.927  10.239  0.3343  0.4787  0.2358
  399loPI   GL1 6373  11.688   9.962   9.817 -0.1597  0.0842  0.1285
  399loPI   GL2 6374  11.941  10.013   9.790 -0.0661 -0.1249 -0.0382
  399loPI   C1A 6375  11.560   9.912   9.430  0.1391  0.0113  0.0416
  399loPI   C2A 6376  11.509   9.963   8.993  0.1441 -0.0186  0.1935
  399loPI   C3A 6377  11.481  10.088   8.564  0.1024  0.4950 -0.1394
  399loPI   C4A 6378  11.501   9.904   8.146 -0.0219 -0.1856 -0.1411
  399loPI   C5A 6379  11.506   9.825   7.683 -0.1182 -0.0274 -0.5133
  399loPI   C6A 6380  11.226  10.011   7.364  0.0054 -0.0802 -0.1834
  399loPI   C1B 6381  12.021  10.043   9.311 -0.0970 -0.1140  0.2290
  399loPI   C2B 6382  12.245  10.214   8.841 -0.1987 -0.0599 -0.2135
  399loPI   C3B 6383  12.401  10.352   8.401  0.0375 -0.2677  0.1708
  399loPI   C4B 6384  12.473  10.200   8.032 -0.3180 -0.1903  0.2972
  400loPI    C1 6385  18.803   3.781  10.201 -0.0431  0.1680  0.0751
  400loPI    C2 6386  19.186   3.779  10.087 -0.0484 -0.0996  0.0564
  400loPI    C3 6387  19.089   3.890  10.458  0.0577 -0.1332  0.0946
  400loPI   PO4 6388  18.750   3.581  10.128  0.2034  0.2023  0.0257
  400loPI   GL1 6389  18.484   3.512   9.794  0.4627  0.4424 -0.1170
  400loPI   GL2 6390  18.576   3.206   9.692  0.1813 -0.0021  0.2024
  400loPI   C1A 6391  18.219   3.516   9.449 -0.2848  0.2260 -0.1757
  400loPI   C2A 6392  18.213   3.372   9.018 -0.1861 -0.1511  0.0028
  400loPI   C3A 6393  18.125   3.219   8.603 -0.2696 -0.0381 -0.0151
  400loPI   C4A 6394  18.107   2.933   8.230 -0.1639 -0.0929  0.0648
  400loPI   C5A 6395  18.026   2.814   7.724 -0.1060  0.1018 -0.1539
  400loPI   C6A 6396  18.273   2.959   7.461 -0.2067 -0.1820  0.2849
  400loPI   C1B 6397  18.721   3.246   9.331 -0.3768  0.1517 -0.2963
  400loPI   C2B 6398  18.943   3.124   8.992  0.0390  0.1242 -0.3925
  400loPI   C3B 6399  18.731   3.043   8.672 -0.0368 -0.2023  0.4568
  400loPI   C4B 6400  18.591   3.207   8.271 -0.1575  0.2167  0.1124
  401loPI    C1 6401  11.551   4.845   9.791  0.0175 -0.0372 -0.1517
  401loPI    C2 6402  11.758   4.676  10.089 -0.0611  0.0864 -0.0262
  401loPI    C3 6403  11.523   4.451   9.856  0.1088 -0.0331 -0.0845
  401loPI   PO4 6404  11.764   4.965   9.648  0.1556  0.2237  0.0994
  401loPI   GL1 6405  11.752   5.078   9.099 -0.1445  0.0558  0.0859
  401loPI   GL2 6406  12.140   5.126   8.982  0.0791 -0.1015  0.0626
  401loPI   C1A 6407  11.802   4.842   8.753 -0.0720  0.1734  0.1229
  401loPI   C2A 6408  11.939   4.731   8.313  0.1197 -0.0599 -0.1483
  401loPI   C3A 6409  11.833   4.795   7.847 -0.0776  0.2882 -0.0755
  401loPI   C4A 6410  11.855   4.512   7.344  0.2523 -0.3313 -0.1917
  401loPI   C5A 6411  12.124   4.517   7.014  0.0422 -0.1764 -0.2892
  401loPI   C6A 6412  12.503   4.741   7.100 -0.0014  0.1027 -0.1693
  401loPI   C1B 6413  12.169   5.064   8.606 -0.1440  0.0699  0.0468
  401loPI   C2B 6414  12.053   5.208   8.092  0.2031  0.0748 -0.0854
  401loPI   C3B 6415  12.008   5.367   7.675 -0.2823  0.1679  0.1279
  401loPI   C4B 6416  11.560   5.292   7.534 -0.1207  0.1187 -0.0949
  402loPI    C1 6417   3.818  14.371  10.388 -0.1482 -0.3040 -0.1158
  402loPI    C2 6418   3.964  14.276  10.748 -0.2176 -0.2055 -0.0609
  402loPI    C3 6419   3.709  14.581  10.711 -0.1564 -0.1709 -0.2044
  402loPI   PO4 6420   3.726  14.124  10.263 -0.1905 -0.3223  0.0686
  402loPI   GL1 6421   3.853  14.118   9.777 -0.0327  0.2915 -0.4634
  402loPI   GL2 6422   4.076  14.401   9.667  0.1530 -0.1896 -0.0272
  402loPI   C1A 6423   3.663  14.003   9.378  0.1540 -0.0198  0.2510
  402loPI   C2A 6424   3.419  13.781   9.028  0.0925  0.2513  0.1282
  402loPI   C3A 6425   3.355  13.695   8.620  0.0580  0.5106  0.1199
  402loPI   C4A 6426   3.284  13.561   8.226  0.2412  0.1469  0.3152
  402loPI   C5A 6427   3.125  13.606   7.907  0.1257  0.0914  0.0528
  402loPI   C6A 6428   3.078  13.724   7.442  0.2396 -0.0363  0.0308
  402loPI   C1B 6429   4.098  14.306   9.165 -0.0760  0.1636 -0.1396
  402loPI   C2B 6430   4.292  14.043   8.867 -0.0074 -0.0777 -0.0561
  402loPI   C3B 6431   4.372  13.818   8.450  0.0344  0.0246 -0.0860
  402loPI   C4B 6432   4.260  13.748   7.991 -0.0502  0.1569 -0.0542
  403loPI    C1 6433  16.068  16.350  10.020 -0.2538  0.1453  0.0655
  403loPI    C2 6434  16.185  16.113  10.320  0.1319 -0.0878 -0.2589
  403loPI    C3 6435  16.048  15.952   9.980 -0.0208  0.1675 -0.3211
  403loPI   PO4 6436  16.300  16.612   9.954 -0.2059 -0.0120 -0.0680
  403loPI   GL1 6437  16.566  16.482   9.597  0.2005  0.0404 -0.2618
  403loPI   GL2 6438  16.484  16.946   9.651  0.3238  0.0197 -0.2109
  403loPI   C1A 6439  16.598  16.627   9.108 -0.0045 -0.0032 -0.0502
  403loPI   C2A 6440  16.692  17.024   8.775 -0.0267  0.0569 -0.1994
  403loPI   C3A 6441  17.003  17.090   8.422  0.1963 -0.1514 -0.2273
  403loPI   C4A 6442  17.307  17.326   8.086 -0.0849 -0.3085 -0.0747
  403loPI   C5A 6443  17.400  17.242   7.669 -0.1646  0.5072 -0.0168
  403loPI   C6A 6444  17.448  17.120   7.252 -0.2528 -0.2719 -0.0397
  403loPI   C1B 6445  16.808  17.008   9.342 -0.3784  0.1827 -0.1672
  403loPI   C2B 6446  17.138  17.059   8.998  0.1091 -0.0163  0.0416
  403loPI   C3B 6447  17.405  16.827   8.711 -0.0198 -0.1364 -0.0569
  403loPI   C4B 6448  17.626  16.690   8.428  0.2032  0.0784  0.1355
  404loPI    C1 6449  18.614  15.551  10.361 -0.1761  0.0136  0.0135
  404loPI    C2 6450  18.531  15.160  10.389  0.1040 -0.0442  0.0679
  404loPI    C3 6451  18.678  15.357  10.705 -0.0605  0.1128  0.0484
  404loPI   PO4 6452  18.318  15.655  10.130  0.1818  0.0764  0.1149
  404loPI   GL1 6453  18.377  16.151   9.880  0.1699  0.1032  0.0516
  404loPI   GL2 6454  18.088  16.288   9.669  0.1168  0.0447  0.1740
  404loPI   C1A 6455  18.341  15.845   9.519 -0.0441 -0.2928  0.1914
  404loPI   C2A 6456  18.596  15.853   9.127  0.1470  0.0244  0.3955
  404loPI   C3A 6457  18.980  15.889   8.828 -0.3381  0.0461 -0.0976
  404loPI   C4A 6458  19.177  16.282   8.562 -0.1804  0.0791 -0.2972
  404loPI   C5A 6459  19.451  16.438   8.175 -0.1343 -0.1275  0.0098
  404loPI   C6A 6460  19.904  16.566   8.084  0.1496  0.1558 -0.1877
  404loPI   C1B 6461  18.023  16.210   9.157 -0.2201 -0.1249  0.2699
  404loPI   C2B 6462  18.022  16.108   8.700 -0.0490 -0.2747 -0.1129
  404loPI   C3B 6463  18.323  16.192   8.232  0.0675  0.0252  0.1884
  404loPI   C4B 6464  18.581  16.236   7.844 -0.0915 -0.1398  0.1040
  405loPI    C1 6465  18.127   7.432  10.302 -0.0138  0.0103  0.0578
  405loPI    C2 6466  18.321   7.667  10.042 -0.1281  0.2075  0.1481
  405loPI    C3 6467  18.492   7.330  10.174 -0.0630  0.1133 -0.1697
  405loPI   PO4 6468  17.839   7.650  10.328  0.2528  0.0266 -0.1178
  405loPI   GL1 6469  17.619   7.708  10.008 -0.2336 -0.3009 -0.3305
  405loPI   GL2 6470  17.888   7.768   9.824 -0.2655  0.0905 -0.0452
  405loPI   C1A 6471  17.273   7.748   9.699 -0.2290 -0.3678 -0.0135
  405loPI   C2A 6472  17.039   7.628   9.442  0.0390 -0.1672 -0.3173
  405loPI   C3A 6473  17.049   7.775   9.090 -0.0197 -0.0942 -0.2765
  405loPI   C4A 6474  17.099   7.781   8.600  0.0359  0.0267  0.0898
  405loPI   C5A 6475  17.048   7.403   8.286  0.3402 -0.2584 -0.2935
  405loPI   C6A 6476  16.943   7.402   7.876 -0.0993  0.1990 -0.0773
  405loPI   C1B 6477  18.098   7.642   9.444 -0.3463  0.1830  0.0125
  405loPI   C2B 6478  18.077   7.623   8.991 -0.3366 -0.2061  0.1908
  405loPI   C3B 6479  18.000   7.619   8.588 -0.5045 -0.0082 -0.1733
  405loPI   C4B 6480  18.097   7.813   8.201 -0.0851 -0.1111 -0.0795
  406loPI    C1 6481   8.596   3.676   9.823  0.0028  0.1059 -0.0155
  406loPI    C2 6482   8.594   3.459  10.159 -0.0398  0.0443 -0.0554
  406loPI    C3 6483   8.250   3.593  10.006 -0.0218  0.0585 -0.0836
  406loPI   PO4 6484   8.821   3.845   9.805  0.0916  0.3835  0.0851
  406loPI   GL1 6485   8.998   3.864   9.366 -0.0783  0.0609 -0.1458
  406loPI   GL2 6486   8.840   3.596   9.360  0.0029  0.0440 -0.0788
  406loPI   C1A 6487   9.044   4.024   9.041  0.0517  0.0207 -0.1005
  406loPI   C2A 6488   8.939   4.208   8.700 -0.0411  0.1920 -0.0031
  406loPI   C3A 6489   9.117   4.370   8.249 -0.3113 -0.0310 -0.0435
  406loPI   C4A 6490   9.192   4.437   7.870  0.2809 -0.2737  0.1627
  406loPI   C5A 6491   9.178   4.732   7.584 -0.1262  0.1539 -0.0981
  406loPI   C6A 6492   9.130   5.155   7.599  0.0573 -0.2385  0.1182
  406loPI   C1B 6493   8.738   3.673   8.955 -0.1945  0.1718  0.3510
  406loPI   C2B 6494   8.791   3.418   8.533  0.0455  0.0862  0.1619
  406loPI   C3B 6495   9.159   3.389   8.200  0.0547  0.1839  0.0051
  406loPI   C4B 6496   9.394   3.298   7.807 -0.2212 -0.0398 -0.1044
  407loPI    C1 6497   9.119  14.196  10.224  0.0153  0.1337 -0.4094
  407loPI    C2 6498   9.344  14.527  10.209  0.0040  0.1576 -0.1120
  407loPI    C3 6499   9.161  14.424  10.550  0.0019 -0.1524 -0.2033
  407loPI   PO4 6500   9.103  14.177   9.916  0.1926 -0.1918 -0.0212
  407loPI   GL1 6501   9.295  14.557   9.666 -0.2568  0.3897  0.0956
  407loPI   GL2 6502   9.606  14.657   9.572  0.0279 -0.2360 -0.0007
  407loPI   C1A 6503   9.201  14.631   9.194  0.0199  0.1191  0.3236
  407loPI   C2A 6504   9.284  14.705   8.802  0.1038  0.1205  0.0424
  407loPI   C3A 6505   9.227  14.797   8.332  0.1217 -0.3857  0.1643
  407loPI   C4A 6506   9.341  15.008   7.993 -0.3448 -0.0870 -0.0771
  407loPI   C5A 6507   9.149  15.442   7.815 -0.0511  0.3376  0.2284
  407loPI   C6A 6508   9.341  15.644   7.546  0.0282 -0.2959  0.2752
  407loPI   C1B 6509   9.686  14.861   9.173 -0.0915  0.0803 -0.1387
  407loPI   C2B 6510   9.789  14.849   8.677 -0.1427 -0.0757 -0.1122
  407loPI   C3B 6511   9.801  14.601   8.250 -0.0129  0.2313 -0.1724
  407loPI   C4B 6512   9.736  14.400   7.729 -0.1747  0.1321 -0.0453
  408loPI    C1 6513  14.102  15.454   9.961  0.2191  0.0261 -0.1583
  408loPI    C2 6514  14.287  15.280  10.270 -0.2825 -0.1096  0.0762
  408loPI    C3 6515  14.185  15.666  10.290  0.1604  0.0260 -0.1433
  408loPI   PO4 6516  14.197  15.321   9.759  0.0738  0.1597  0.1955
  408loPI   GL1 6517  14.266  15.044   9.392  0.2768 -0.0755 -0.0367
  408loPI   GL2 6518  13.997  15.124   9.370  0.0577 -0.0071 -0.2148
  408loPI   C1A 6519  14.300  15.261   8.911  0.3429 -0.0947 -0.1377
  408loPI   C2A 6520  14.167  15.306   8.480 -0.1595 -0.0108 -0.0838
  408loPI   C3A 6521  14.102  15.317   8.045  0.2164  0.2364  0.1224
  408loPI   C4A 6522  14.145  15.317   7.550 -0.0301  0.0593 -0.4233
  408loPI   C5A 6523  13.972  15.068   7.297 -0.4088  0.0558 -0.0967
  408loPI   C6A 6524  13.627  14.737   7.288 -0.1053  0.2005 -0.0109
  408loPI   C1B 6525  13.694  15.124   9.076 -0.0712 -0.3170  0.0181
  408loPI   C2B 6526  13.685  15.302   8.685 -0.3408 -0.0325 -0.1127
  408loPI   C3B 6527  13.796  15.652   8.386  0.0711  0.3396 -0.0484
  408loPI   C4B 6528  13.912  15.940   8.137  0.0871  0.0804  0.1962
  409loPI    C1 6529  11.725  11.348   9.575 -0.1296  0.3052  0.1563
  409loPI    C2 6530  11.800  11.391   9.966  0.0540  0.0968  0.1455
  409loPI    C3 6531  12.097  11.303   9.713 -0.0607  0.2486 -0.0451
  409loPI   PO4 6532  11.525  11.617   9.573  0.1105  0.0853 -0.0158
  409loPI   GL1 6533  11.285  11.647   9.299 -0.1557  0.1683  0.0719
  409loPI   GL2 6534  11.098  11.330   9.277  0.0553 -0.0655  0.0383
  409loPI   C1A 6535  11.258  11.530   8.847 -0.1352  0.0826 -0.0533
  409loPI   C2A 6536  11.098  11.259   8.492 -0.3341 -0.1836 -0.0247
  409loPI   C3A 6537  10.908  11.163   8.138  0.1891 -0.0416 -0.3976
  409loPI   C4A 6538  10.757  11.343   7.845  0.2779 -0.3257  0.4604
  409loPI   C5A 6539  10.735  11.138   7.458  0.3435 -0.1493  0.1838
  409loPI   C6A 6540  10.994  11.075   7.070  0.0716 -0.0239 -0.1855
  409loPI   C1B 6541  10.859  11.756   9.113  0.1932 -0.1730  0.1907
  409loPI   C2B 6542  10.816  11.852   8.764 -0.0568  0.1296  0.1970
  409loPI   C3B 6543  10.813  11.702   8.386 -0.1270  0.0492  0.0767
  409loPI   C4B 6544  10.905  11.817   7.959  0.1717 -0.0731 -0.0156
  410loPI    C1 6545   5.539   4.443   9.873 -0.0882  0.1412 -0.0415
  410loPI    C2 6546   5.719   4.597  10.196 -0.0387  0.1704 -0.0831
  410loPI    C3 6547   5.375   4.397  10.235 -0.0279  0.1660 -0.0109
  410loPI   PO4 6548   5.689   4.342   9.722 -0.3068  0.0522  0.3473
  410loPI   GL1 6549   5.583   4.361   9.328 -0.2407  0.3714 -0.2057
  410loPI   GL2 6550   5.484   4.035   9.131 -0.0727  0.0836 -0.2511
  410loPI   C1A 6551   5.503   4.534   8.892 -0.3239  0.0502  0.1345
  410loPI   C2A 6552   5.711   4.848   8.602  0.1536 -0.3484  0.3088
  410loPI   C3A 6553   5.869   4.958   8.271 -0.0284  0.0561 -0.0083
  410loPI   C4A 6554   5.921   4.848   7.806 -0.3130 -0.2893  0.2401
  410loPI   C5A 6555   6.207   4.753   7.504 -0.0424 -0.0067  0.1745
  410loPI   C6A 6556   6.340   4.535   7.178  0.0832 -0.0542 -0.0233
  410loPI   C1B 6557   5.484   3.963   8.727  0.0338 -0.0141  0.2700
  410loPI   C2B 6558   5.375   4.150   8.199 -0.0052 -0.0055  0.1613
  410loPI   C3B 6559   5.159   4.384   7.981  0.1801 -0.0240 -0.2977
  410loPI   C4B 6560   4.744   4.486   7.786 -0.0016 -0.1060  0.0724
  411loPI    C1 6561  14.834   7.292  10.233 -0.0281  0.2904  0.1691
  411loPI    C2 6562  15.156   7.061  10.181 -0.1397  0.1629  0.0388
  411loPI    C3 6563  15.026   7.141  10.550 -0.0277  0.1193  0.0884
  411loPI   PO4 6564  14.516   7.172  10.171  0.0012  0.0061 -0.0824
  411loPI   GL1 6565  14.349   7.033   9.849 -0.0399  0.4026  0.3040
  411loPI   GL2 6566  14.285   7.285   9.611 -0.0902  0.1440 -0.0499
  411loPI   C1A 6567  14.655   6.990   9.477 -0.0079 -0.4369 -0.3932
  411loPI   C2A 6568  14.785   7.128   9.208  0.0452  0.0478  0.0322
  411loPI   C3A 6569  14.639   7.200   8.859  0.3136 -0.1290 -0.0192
  411loPI   C4A 6570  14.883   7.355   8.505  0.2558  0.4626 -0.1857
  411loPI   C5A 6571  15.137   7.359   8.043  0.1806  0.3080  0.3451
  411loPI   C6A 6572  15.381   7.677   7.890 -0.0741  0.0969  0.0687
  411loPI   C1B 6573  14.292   7.327   9.233  0.1357 -0.1635 -0.1481
  411loPI   C2B 6574  14.201   7.597   8.792 -0.1037 -0.0615 -0.0522
  411loPI   C3B 6575  14.345   7.645   8.406 -0.1016 -0.1004 -0.1462
  411loPI   C4B 6576  14.485   8.050   8.242  0.1776 -0.0405  0.1474
  412loPI    C1 6577  12.452   7.989   9.950 -0.1474  0.0725  0.0974
  412loPI    C2 6578  12.573   8.122  10.307 -0.1929  0.1111  0.0986
  412loPI    C3 6579  12.462   7.740  10.263  0.0736  0.0358  0.0629
  412loPI   PO4 6580  12.252   8.114   9.839  0.2051 -0.2838  0.0868
  412loPI   GL1 6581  12.106   8.143   9.424 -0.0972  0.0415 -0.1386
  412loPI   GL2 6582  11.852   8.296   9.380 -0.3438 -0.1333  0.0119
  412loPI   C1A 6583  12.063   7.925   8.950  0.0746 -0.0196 -0.1239
  412loPI   C2A 6584  12.071   8.023   8.552  0.0479  0.1144 -0.0559
  412loPI   C3A 6585  12.178   7.879   8.154  0.1451 -0.0109 -0.3674
  412loPI   C4A 6586  12.226   7.659   7.737  0.2732  0.0538 -0.3174
  412loPI   C5A 6587  12.393   7.466   7.355 -0.0877  0.0621  0.1965
  412loPI   C6A 6588  12.761   7.110   7.174 -0.0125  0.0508 -0.1896
  412loPI   C1B 6589  11.698   8.288   8.936  0.2740  0.0580 -0.1238
  412loPI   C2B 6590  11.595   8.153   8.557  0.0956  0.5061  0.0374
  412loPI   C3B 6591  11.665   7.957   8.109  0.0401 -0.0886 -0.0906
  412loPI   C4B 6592  11.703   7.589   7.858 -0.1006  0.0755 -0.2035
  413loPI    C1 6593   8.232   1.477   9.885  0.0166  0.3730 -0.0125
  413loPI    C2 6594   8.273   1.619  10.257 -0.0395 -0.0503  0.1609
  413loPI    C3 6595   8.383   1.244  10.173 -0.2785 -0.0470 -0.1878
  413loPI   PO4 6596   8.160   1.645   9.748  0.2379  0.0539  0.0953
  413loPI   GL1 6597   8.231   1.903   9.405 -0.2153 -0.2501 -0.0405
  413loPI   GL2 6598   8.240   2.102   9.595  0.0234  0.1233 -0.1920
  413loPI   C1A 6599   8.054   2.077   9.092 -0.0715  0.0217  0.1562
  413loPI   C2A 6600   7.896   2.255   8.681  0.2017  0.0682  0.0080
  413loPI   C3A 6601   7.671   2.261   8.301  0.1987  0.1099 -0.2255
  413loPI   C4A 6602   7.345   2.064   8.078 -0.0616 -0.1016 -0.0894
  413loPI   C5A 6603   7.129   1.752   7.651 -0.2612 -0.1289  0.1787
  413loPI   C6A 6604   6.809   1.632   7.562  0.3450 -0.1235 -0.0326
  413loPI   C1B 6605   8.070   2.465   9.410 -0.1090  0.0744 -0.0878
  413loPI   C2B 6606   7.666   2.421   9.173  0.1303  0.0663 -0.0395
  413loPI   C3B 6607   7.511   2.551   8.792  0.1074 -0.1499 -0.2404
  413loPI   C4B 6608   7.801   2.731   8.426 -0.4764  0.2753  0.2395
  414loPI    C1 6609  13.156  12.160   9.439 -0.3106 -0.0174  0.2513
  414loPI    C2 6610  13.422  12.113   9.734 -0.0726  0.1374  0.0654
  414loPI    C3 6611  13.211  12.452   9.707 -0.0026  0.1753 -0.0130
  414loPI   PO4 6612  13.344  12.040   9.256  0.2530 -0.1481  0.1183
  414loPI   GL1 6613  13.609  12.079   8.872 -0.2793  0.0529  0.0666
  414loPI   GL2 6614  13.306  11.866   8.650  0.0530  0.0048 -0.1859
  414loPI   C1A 6615  13.333  12.380   8.591  0.2633  0.0297 -0.2088
  414loPI   C2A 6616  13.032  12.515   8.200 -0.2286 -0.0068 -0.1822
  414loPI   C3A 6617  13.184  12.750   7.732  0.3494 -0.1328  0.0285
  414loPI   C4A 6618  13.391  12.935   7.383  0.1231 -0.2908  0.4402
  414loPI   C5A 6619  13.487  13.228   7.120 -0.2267 -0.0596 -0.1973
  414loPI   C6A 6620  13.496  13.260   6.762 -0.2577 -0.0840  0.2240
  414loPI   C1B 6621  13.464  11.639   8.253 -0.0611 -0.2703 -0.0331
  414loPI   C2B 6622  13.632  11.748   7.849 -0.0323 -0.2343  0.3972
  414loPI   C3B 6623  13.268  11.794   7.503 -0.1039 -0.1579  0.0185
  414loPI   C4B 6624  12.965  11.852   7.262  0.0527 -0.2823 -0.0897
  415loPI    C1 6625   0.098   3.387  10.397 -0.2878 -0.0697 -0.0002
  415loPI    C2 6626  -0.267   3.264  10.506 -0.2196 -0.1002  0.1967
  415loPI    C3 6627  -0.004   3.382  10.783 -0.0692 -0.1062  0.0582
  415loPI   PO4 6628   0.143   3.290  10.154 -0.2127 -0.0677 -0.3031
  415loPI   GL1 6629   0.299   3.238   9.717 -0.3355  0.2442 -0.3565
  415loPI   GL2 6630   0.032   3.469   9.668  0.1006 -0.0001 -0.1658
  415loPI   C1A 6631   0.231   2.836   9.441  0.1515 -0.2872  0.0064
  415loPI   C2A 6632   0.319   2.664   9.055 -0.1871 -0.1116 -0.0622
  415loPI   C3A 6633   0.395   2.668   8.569  0.3262 -0.3627  0.0112
  415loPI   C4A 6634   0.677   2.634   8.188 -0.1397  0.0813 -0.1108
  415loPI   C5A 6635   0.899   2.761   7.901  0.0706  0.1256  0.0450
  415loPI   C6A 6636   1.111   3.090   7.685 -0.0850 -0.1137 -0.1178
  415loPI   C1B 6637   0.246   3.501   9.296 -0.0534  0.3023 -0.1464
  415loPI   C2B 6638   0.290   3.667   8.916  0.2043  0.3580 -0.0387
  415loPI   C3B 6639   0.033   3.511   8.609 -0.3275 -0.1860 -0.0293
  415loPI   C4B 6640   0.112   3.114   8.312 -0.2394  0.3289  0.2342
  416loPI    C1 6641   8.528  10.465   9.642 -0.0901  0.2854  0.0387
  416loPI    C2 6642   8.315  10.518   9.977  0.0822  0.0649  0.1862
  416loPI    C3 6643   8.714  10.551   9.986  0.0760  0.2185 -0.0333
  416loPI   PO4 6644   8.433  10.609   9.438 -0.0595  0.1082 -0.0911
  416loPI   GL1 6645   8.533  10.858   9.101  0.2288  0.0249 -0.1565
  416loPI   GL2 6646   8.738  11.082   9.220  0.1684  0.1409 -0.2111
  416loPI   C1A 6647   8.714  10.990   8.742  0.2351  0.0122 -0.0872
  416loPI   C2A 6648   8.910  10.970   8.308  0.0209 -0.1659  0.0915
  416loPI   C3A 6649   8.880  11.001   7.853  0.4833 -0.0218  0.0239
  416loPI   C4A 6650   8.796  11.272   7.452  0.0592  0.3918 -0.1962
  416loPI   C5A 6651   8.853  11.734   7.277  0.1341  0.0413 -0.0425
  416loPI   C6A 6652   8.865  12.207   7.395  0.1845  0.1686 -0.0497
  416loPI   C1B 6653   8.861  11.449   8.954 -0.0912 -0.1698 -0.0660
  416loPI   C2B 6654   8.870  11.448   8.568  0.0261  0.2841 -0.2367
  416loPI   C3B 6655   8.637  11.523   8.173 -0.0638 -0.0347  0.0375
  416loPI   C4B 6656   8.712  11.780   7.792  0.1080 -0.0026 -0.0637
  417loPI    C1 6657   7.783  14.267  10.341  0.0236  0.0189  0.0221
  417loPI    C2 6658   7.647  13.899  10.420  0.0300 -0.0268 -0.1721
  417loPI    C3 6659   7.934  14.060  10.648 -0.2741  0.0309  0.1810
  417loPI   PO4 6660   7.734  14.206  10.085  0.1517 -0.0484 -0.1074
  417loPI   GL1 6661   7.877  14.221   9.676 -0.1912 -0.1756  0.1282
  417loPI   GL2 6662   7.964  14.495   9.556 -0.1262  0.0795 -0.4056
  417loPI   C1A 6663   8.386  14.332   9.348 -0.0673 -0.3447 -0.0790
  417loPI   C2A 6664   8.343  14.404   8.877 -0.1220 -0.1379  0.1575
  417loPI   C3A 6665   8.263  14.588   8.483  0.2555 -0.1373 -0.1111
  417loPI   C4A 6666   8.349  14.718   8.130  0.1700 -0.0278 -0.2931
  417loPI   C5A 6667   8.648  14.490   7.964  0.2167 -0.1069 -0.0684
  417loPI   C6A 6668   9.104  14.562   7.859 -0.0373  0.0597  0.1757
  417loPI   C1B 6669   7.904  14.407   9.111 -0.0349 -0.2680  0.0658
  417loPI   C2B 6670   7.827  14.417   8.646 -0.0890 -0.1273  0.2787
  417loPI   C3B 6671   7.918  14.386   8.184 -0.2705 -0.0256  0.0013
  417loPI   C4B 6672   7.815  14.305   7.736  0.1924 -0.0035  0.2858
  418loPI    C1 6673  16.892   6.505  10.683 -0.2096 -0.0105 -0.1234
  418loPI    C2 6674  16.591   6.624  10.447  0.0504  0.4089 -0.2556
  418loPI    C3 6675  16.714   6.858  10.746 -0.1560 -0.0378  0.1935
  418loPI   PO4 6676  17.117   6.440  10.523  0.1626 -0.0869  0.0869
  418loPI   GL1 6677  17.358   6.826  10.123  0.1033 -0.2406  0.1372
  418loPI   GL2 6678  17.647   6.601  10.055 -0.1861  0.2259  0.0410
  418loPI   C1A 6679  17.202   6.891   9.717  0.0271  0.1985 -0.2217
  418loPI   C2A 6680  17.193   6.686   9.327 -0.0604  0.0353  0.1865
  418loPI   C3A 6681  17.222   6.793   8.968  0.2126 -0.0943 -0.1575
  418loPI   C4A 6682  17.535   6.776   8.639 -0.1482  0.0482 -0.3143
  418loPI   C5A 6683  17.646   6.895   8.217  0.0890 -0.3356  0.1808
  418loPI   C6A 6684  17.487   7.314   8.078 -0.1430  0.0499 -0.0406
  418loPI   C1B 6685  17.635   6.744   9.677 -0.0014 -0.2120  0.1484
  418loPI   C2B 6686  17.688   6.629   9.210 -0.0687 -0.2841  0.0137
  418loPI   C3B 6687  17.926   6.575   8.941  0.2026 -0.1955  0.0334
  418loPI   C4B 6688  18.020   6.694   8.512 -0.5080  0.0231  0.3737
  419loPI    C1 6689  16.326  17.543  10.044 -0.0952  0.1910 -0.2389
  419loPI    C2 6690  16.394  17.923   9.941  0.1804  0.2467  0.1285
  419loPI    C3 6691  16.352  17.825  10.327  0.1510 -0.1026  0.0396
  419loPI   PO4 6692  16.557  17.452   9.939 -0.0914  0.1097  0.1284
  419loPI   GL1 6693  16.636  17.542   9.623 -0.1340 -0.1164  0.1545
  419loPI   GL2 6694  16.851  17.789   9.744  0.0026 -0.1106 -0.1069
  419loPI   C1A 6695  17.085  17.388   9.444  0.1353  0.1631 -0.0035
  419loPI   C2A 6696  17.296  17.567   9.066 -0.0282  0.0975  0.0463
  419loPI   C3A 6697  17.393  17.407   8.687 -0.1758  0.0378 -0.2520
  419loPI   C4A 6698  17.746  17.234   8.391  0.3614  0.0809  0.0894
  419loPI   C5A 6699  17.833  17.014   8.077 -0.3267 -0.2124  0.0138
  419loPI   C6A 6700  17.548  16.751   7.832  0.1186 -0.0267 -0.2483
  419loPI   C1B 6701  16.935  17.855   9.347  0.1244  0.0093  0.0681
  419loPI   C2B 6702  17.097  17.955   8.890 -0.0143  0.1486  0.1821
  419loPI   C3B 6703  17.170  18.029   8.507  0.2911  0.1061  0.0090
  419loPI   C4B 6704  17.202  18.076   8.080  0.4315 -0.0048  0.1910
  420loPI    C1 6705   1.170  10.995  10.313 -0.0757  0.1062 -0.0169
  420loPI    C2 6706   1.388  11.310  10.197  0.2611 -0.1102  0.0138
  420loPI    C3 6707   1.377  11.205  10.583 -0.1696  0.0962  0.0633
  420loPI   PO4 6708   0.843  11.059  10.159  0.2913  0.0089 -0.2089
  420loPI   GL1 6709   0.712  11.046   9.845 -0.0228 -0.0545  0.0338
  420loPI   GL2 6710   0.762  11.212   9.522 -0.0367 -0.1716  0.0270
  420loPI   C1A 6711   0.942  10.765   9.482 -0.3010 -0.0264 -0.4708
  420loPI   C2A 6712   0.784  10.769   9.049 -0.1058  0.3207  0.2670
  420loPI   C3A 6713   0.927  10.746   8.773  0.1150 -0.1640 -0.4442
  420loPI   C4A 6714   0.997  10.825   8.337 -0.1452 -0.0153 -0.1826
  420loPI   C5A 6715   1.088  10.884   7.902 -0.1584 -0.1267 -0.1620
  420loPI   C6A 6716   1.117  10.697   7.501 -0.0008  0.1556 -0.2225
  420loPI   C1B 6717   0.496  11.134   9.252  0.0923  0.2344  0.1245
  420loPI   C2B 6718   0.463  11.053   8.806 -0.0808  0.1184 -0.0948
  420loPI   C3B 6719   0.500  10.944   8.427  0.0095 -0.0058 -0.0808
  420loPI   C4B 6720   0.620  10.931   8.055 -0.2827  0.4611  0.0463
  421loPI    C1 6721   3.030   8.548  10.114 -0.0300  0.1245 -0.0715
  421loPI    C2 6722   2.858   8.192  10.054 -0.0299  0.1102  0.0133
  421loPI    C3 6723   3.071   8.258  10.386  0.3536  0.0400 -0.2135
  421loPI   PO4 6724   2.879   8.698   9.953 -0.2486  0.0712  0.1458
  421loPI   GL1 6725   2.866   8.938   9.465  0.1976  0.1736 -0.0496
  421loPI   GL2 6726   3.216   8.829   9.474  0.3272  0.1648 -0.1184
  421loPI   C1A 6727   2.687   9.083   9.044  0.0311  0.3080  0.1533
  421loPI   C2A 6728   2.810   9.096   8.657 -0.1034  0.2631  0.0074
  421loPI   C3A 6729   2.601   8.933   8.387  0.1754 -0.2316 -0.0679
  421loPI   C4A 6730   2.341   8.580   8.274  0.0262 -0.0224  0.0525
  421loPI   C5A 6731   2.157   8.315   7.929  0.0030 -0.1137 -0.1067
  421loPI   C6A 6732   1.928   8.299   7.526  0.0188  0.2361  0.2484
  421loPI   C1B 6733   3.162   8.862   9.074 -0.2415  0.0579  0.0812
  421loPI   C2B 6734   3.181   8.810   8.570  0.2354 -0.0776  0.1442
  421loPI   C3B 6735   3.034   8.743   8.150 -0.0908  0.0882 -0.0112
  421loPI   C4B 6736   2.680   8.721   7.879  0.0687 -0.2545 -0.2503
  422loPI    C1 6737  17.096   2.048  10.564 -0.0911  0.0752  0.1593
  422loPI    C2 6738  17.448   2.059  10.752  0.0067 -0.0464 -0.0139
  422loPI    C3 6739  17.152   1.832  10.896 -0.0451  0.1558  0.2042
  422loPI   PO4 6740  17.182   2.238  10.399 -0.2359  0.1674  0.1389
  422loPI   GL1 6741  17.290   2.238   9.973  0.0880 -0.0456  0.3179
  422loPI   GL2 6742  17.176   2.403   9.686  0.3753 -0.1880  0.1115
  422loPI   C1A 6743  17.459   2.028   9.593  0.0550 -0.0735  0.0631
  422loPI   C2A 6744  17.363   1.966   9.122  0.0668  0.3705 -0.1866
  422loPI   C3A 6745  16.940   1.979   8.868  0.2542  0.1932 -0.0263
  422loPI   C4A 6746  16.883   2.183   8.494 -0.0722 -0.3901  0.4150
  422loPI   C5A 6747  17.082   2.517   8.231  0.1062 -0.2046  0.1978
  422loPI   C6A 6748  17.312   2.673   8.066  0.1599  0.4121 -0.0496
  422loPI   C1B 6749  17.486   2.766   9.946  0.2366  0.0041 -0.3695
  422loPI   C2B 6750  17.406   3.191   9.727 -0.1461  0.0468  0.3371
  422loPI   C3B 6751  17.083   3.317   9.484 -0.2742  0.0419  0.1983
  422loPI   C4B 6752  16.945   3.366   9.064 -0.0237  0.1675 -0.2259
  423loPI    C1 6753  16.098   6.520  10.350 -0.1373 -0.1094 -0.0951
  423loPI    C2 6754  15.960   6.881  10.249  0.0517 -0.0184 -0.0318
  423loPI    C3 6755  15.767   6.664  10.523  0.0277  0.1031  0.0487
  423loPI   PO4 6756  16.133   6.397  10.181 -0.1061 -0.0303  0.1815
  423loPI   GL1 6757  16.113   6.559   9.751  0.1273  0.0198 -0.0764
  423loPI   GL2 6758  15.839   6.140   9.793 -0.0667  0.1410 -0.2132
  423loPI   C1A 6759  16.193   6.590   9.256 -0.2761 -0.3333 -0.1486
  423loPI   C2A 6760  16.191   6.647   8.905  0.0925 -0.0455  0.0984
  423loPI   C3A 6761  16.101   6.603   8.462  0.2024  0.3774 -0.0846
  423loPI   C4A 6762  16.108   6.732   8.108 -0.4171 -0.0528 -0.0805
  423loPI   C5A 6763  15.865   7.016   7.839 -0.2887  0.0747 -0.0062
  423loPI   C6A 6764  15.588   7.226   7.836 -0.1867  0.0795  0.1343
  423loPI   C1B 6765  15.893   6.165   9.335 -0.2427  0.2250 -0.3173
  423loPI   C2B 6766  15.893   6.209   8.915  0.0092 -0.0291  0.0129
  423loPI   C3B 6767  15.998   6.105   8.507  0.0675  0.0790  0.0183
  423loPI   C4B 6768  15.958   6.210   8.100 -0.2973 -0.1686 -0.0854
  424loPI    C1 6769   4.806   8.259   9.756  0.3707 -0.1476 -0.1855
  424loPI    C2 6770   4.950   8.575   9.953 -0.2459 -0.0329  0.1038
  424loPI    C3 6771   4.988   8.209  10.108 -0.1225 -0.0243  0.0952
  424loPI   PO4 6772   4.614   8.342   9.611  0.0658  0.0248  0.2949
  424loPI   GL1 6773   4.463   8.321   9.266 -0.2045  0.0770  0.1318
  424loPI   GL2 6774   4.359   8.004   9.088  0.1368 -0.0589  0.1562
  424loPI   C1A 6775   4.696   8.419   8.920  0.0609 -0.1307  0.1476
  424loPI   C2A 6776   4.651   8.420   8.420 -0.0164 -0.0827  0.1172
  424loPI   C3A 6777   4.791   8.706   8.039  0.1145 -0.2649  0.0037
  424loPI   C4A 6778   4.808   9.141   7.849 -0.0854 -0.1807  0.0655
  424loPI   C5A 6779   4.836   9.458   7.726  0.0377 -0.0703  0.0800
  424loPI   C6A 6780   4.654   9.571   7.316 -0.0338  0.2820 -0.4265
  424loPI   C1B 6781   4.275   8.214   8.702 -0.3173  0.0078  0.0363
  424loPI   C2B 6782   4.386   8.031   8.323  0.0658  0.1375  0.2225
  424loPI   C3B 6783   4.642   7.969   8.058 -0.4917 -0.2587 -0.1082
  424loPI   C4B 6784   4.662   8.195   7.801  0.0675 -0.2670 -0.4641
  425loPI    C1 6785   6.587   4.693   9.971  0.1745  0.0080 -0.3036
  425loPI    C2 6786   6.511   5.067   9.850 -0.3243  0.0417  0.0831
  425loPI    C3 6787   6.512   4.979  10.241 -0.2045 -0.3622 -0.0036
  425loPI   PO4 6788   6.878   4.571   9.919 -0.3306 -0.2280 -0.0630
  425loPI   GL1 6789   6.935   4.510   9.444 -0.2519  0.0253  0.2239
  425loPI   GL2 6790   7.199   4.779   9.514  0.0114 -0.0860 -0.0850
  425loPI   C1A 6791   6.763   4.558   9.083 -0.0555 -0.1174  0.1823
  425loPI   C2A 6792   6.848   4.428   8.674  0.0595 -0.1514  0.0310
  425loPI   C3A 6793   7.116   4.521   8.231  0.1714  0.1918  0.0615
  425loPI   C4A 6794   7.496   4.380   7.870  0.0135 -0.1174 -0.0302
  425loPI   C5A 6795   7.741   4.326   7.487  0.0943  0.1014  0.1248
  425loPI   C6A 6796   8.068   4.012   7.256 -0.0533  0.0500  0.1701
  425loPI   C1B 6797   7.565   4.764   9.179  0.0635 -0.1187 -0.1404
  425loPI   C2B 6798   7.830   4.629   8.820  0.1151 -0.0540 -0.0262
  425loPI   C3B 6799   8.094   4.667   8.433  0.3958  0.2179  0.3563
  425loPI   C4B 6800   8.544   4.815   8.202  0.1055  0.0194  0.1574
  426loPI    C1 6801   5.371  11.965  10.240 -0.2014  0.0939 -0.0608
  426loPI    C2 6802   5.273  12.169  10.569 -0.1659  0.1140 -0.0626
  426loPI    C3 6803   5.408  11.794  10.599 -0.0301  0.1640 -0.0443
  426loPI   PO4 6804   5.205  12.023  10.069  0.0542 -0.2395 -0.0295
  426loPI   GL1 6805   4.987  12.191   9.784  0.3024  0.3221  0.2306
  426loPI   GL2 6806   5.329  12.169   9.568 -0.1061  0.0957 -0.2601
  426loPI   C1A 6807   4.788  12.109   9.431 -0.0195 -0.1309 -0.2114
  426loPI   C2A 6808   4.800  12.338   9.067 -0.4533 -0.0510  0.0202
  426loPI   C3A 6809   5.007  12.617   8.688 -0.2461 -0.1760  0.2604
  426loPI   C4A 6810   5.113  12.986   8.398 -0.0183  0.1681  0.3295
  426loPI   C5A 6811   4.919  13.158   7.937  0.0932 -0.1342  0.2678
  426loPI   C6A 6812   4.862  13.628   7.867  0.1150 -0.1077 -0.2464
  426loPI   C1B 6813   5.330  12.294   9.120 -0.3516  0.0548 -0.3168
  426loPI   C2B 6814   5.340  12.127   8.709  0.3013  0.2515 -0.1194
  426loPI   C3B 6815   5.272  12.306   8.344 -0.3382  0.0828  0.4038
  426loPI   C4B 6816   5.203  12.662   7.973 -0.3565 -0.0598  0.2518
  427loPI    C1 6817  15.141  12.582   9.942  0.0034 -0.0194 -0.2683
  427loPI    C2 6818  15.300  12.237  10.068  0.2257  0.0984 -0.2202
  427loPI    C3 6819  15.431  12.584  10.218 -0.2398  0.1906 -0.0067
  427loPI   PO4 6820  15.136  12.521   9.681 -0.0316  0.1590 -0.0162
  427loPI   GL1 6821  15.346  12.185   9.443  0.1379 -0.0348 -0.1110
  427loPI   GL2 6822  15.017  12.324   9.255  0.1925  0.0486  0.0232
  427loPI   C1A 6823  15.487  12.382   9.037 -0.0001  0.1277 -0.0102
  427loPI   C2A 6824  15.488  12.310   8.636 -0.0983  0.0071  0.0429
  427loPI   C3A 6825  15.152  12.481   8.315  0.2974 -0.1721 -0.1351
  427loPI   C4A 6826  14.691  12.601   8.267  0.3257 -0.1938 -0.0100
  427loPI   C5A 6827  14.468  12.802   7.939 -0.1535  0.0865 -0.3884
  427loPI   C6A 6828  14.414  12.892   7.523 -0.0055  0.0408  0.1165
  427loPI   C1B 6829  14.987  12.206   8.779 -0.2109 -0.3479 -0.3751
  427loPI   C2B 6830  15.197  11.941   8.642 -0.1611  0.3648  0.3908
  427loPI   C3B 6831  15.443  11.960   8.229 -0.1310  0.1065 -0.0738
  427loPI   C4B 6832  15.338  12.085   7.734 -0.2113 -0.1073 -0.2192
  428loPI    C1 6833  17.621  18.110  10.386  0.0856  0.1562  0.0178
  428loPI    C2 6834  17.794  17.833  10.617  0.2028  0.0251 -0.2231
  428loPI    C3 6835  17.987  18.174  10.535  0.1514  0.0819 -0.1100
  428loPI   PO4 6836  17.404  18.045  10.305  0.0438 -0.0380  0.3469
  428loPI   GL1 6837  17.152  18.191   9.970  0.1504 -0.1487 -0.2554
  428loPI   GL2 6838  17.403  18.084   9.813 -0.1045 -0.0934  0.1230
  428loPI   C1A 6839  16.893  18.335   9.626  0.4923  0.1534 -0.1513
  428loPI   C2A 6840  16.882  18.376   9.159  0.0192 -0.0686  0.0391
  428loPI   C3A 6841  17.192  18.440   8.737 -0.0250 -0.2432 -0.0104
  428loPI   C4A 6842  17.555  18.367   8.491  0.5381 -0.0692 -0.0802
  428loPI   C5A 6843  17.688  18.280   8.018  0.1066  0.0194 -0.1339
  428loPI   C6A 6844  17.686  18.372   7.633 -0.1032  0.1851 -0.2390
  428loPI   C1B 6845  17.403  18.149   9.423 -0.1688 -0.0149  0.1189
  428loPI   C2B 6846  17.564  18.065   9.110 -0.1374  0.0473 -0.0794
  428loPI   C3B 6847  17.602  17.907   8.709 -0.0006  0.1231 -0.1023
  428loPI   C4B 6848  17.659  17.752   8.315 -0.0063  0.0313 -0.1704
  429loPI    C1 6849   1.969   6.984   9.836  0.1285 -0.1438  0.0310
  429loPI    C2 6850   1.782   7.311   9.967  0.0992  0.0281 -0.4212
  429loPI    C3 6851   2.091   7.162  10.173 -0.1121  0.1266 -0.0215
  429loPI   PO4 6852   1.870   6.760   9.697 -0.1174  0.1156 -0.0296
  429loPI   GL1 6853   1.684   6.523   9.303  0.3441 -0.4554  0.1467
  429loPI   GL2 6854   1.920   6.518   9.206 -0.2192 -0.3053 -0.0673
  429loPI   C1A 6855   1.390   6.490   9.092  0.0214  0.0071  0.0335
  429loPI   C2A 6856   1.279   6.524   8.660  0.2050 -0.0401 -0.0357
  429loPI   C3A 6857   1.026   6.323   8.309 -0.2998 -0.1055 -0.2138
  429loPI   C4A 6858   0.755   6.103   8.099 -0.0024 -0.1624  0.0312
  429loPI   C5A 6859   0.480   6.240   7.685 -0.1796  0.0605 -0.1350
  429loPI   C6A 6860   0.370   6.088   7.228 -0.1701  0.1560 -0.0425
  429loPI   C1B 6861   1.765   6.568   8.778 -0.3803  0.0307 -0.2103
  429loPI   C2B 6862   1.713   6.599   8.367  0.4457  0.0743  0.2790
  429loPI   C3B 6863   1.801   6.701   7.936 -0.2863 -0.0431 -0.1189
  429loPI   C4B 6864   1.836   6.552   7.483 -0.1626  0.1612 -0.0088
  430loPI    C1 6865   7.502   3.736  10.009  0.1083  0.0651  0.0305
  430loPI    C2 6866   7.695   4.068  10.122 -0.0499  0.2015 -0.0954
  430loPI    C3 6867   7.784   3.717  10.293  0.0878  0.3152  0.0696
  430loPI   PO4 6868   7.512   3.819   9.706 -0.3796  0.1766  0.3678
  430loPI   GL1 6869   7.797   3.735   9.270 -0.0152  0.2512  0.0576
  430loPI   GL2 6870   7.505   3.481   9.288  0.1384 -0.1865 -0.1725
  430loPI   C1A 6871   7.894   3.340   8.915 -0.0937 -0.3183  0.1620
  430loPI   C2A 6872   7.816   3.246   8.411  0.0104  0.0759  0.0161
  430loPI   C3A 6873   7.703   3.223   8.057 -0.0852  0.1022  0.1248
  430loPI   C4A 6874   7.594   3.415   7.680  0.3615 -0.0694 -0.2257
  430loPI   C5A 6875   7.790   3.546   7.271  0.1309  0.0082  0.0768
  430loPI   C6A 6876   7.737   3.756   6.971  0.1515 -0.5131  0.0688
  430loPI   C1B 6877   7.466   3.625   8.776  0.4415 -0.4773  0.5372
  430loPI   C2B 6878   7.431   3.536   8.362 -0.2692  0.3364  0.0998
  430loPI   C3B 6879   7.245   3.567   8.032  0.3065 -0.2887  0.1924
  430loPI   C4B 6880   7.023   3.294   7.774  0.0931  0.0261 -0.2018
  431loPI    C1 6881   7.313  18.299  10.048  0.1062 -0.1221  0.0674
  431loPI    C2 6882   7.211  18.024   9.776  0.0564 -0.0702  0.0331
  431loPI    C3 6883   7.371  17.911  10.125  0.1233 -0.1370 -0.0186
  431loPI   PO4 6884   7.459  18.437   9.859  0.0840 -0.2645  0.0786
  431loPI   GL1 6885   7.233  18.612   9.674  0.0479 -0.1839 -0.0757
  431loPI   GL2 6886   6.965  18.922   9.643  0.0005 -0.0772 -0.1647
  431loPI   C1A 6887   7.335  18.660   9.168 -0.3173 -0.1027 -0.1616
  431loPI   C2A 6888   7.398  18.638   8.726 -0.1117  0.2824 -0.0284
  431loPI   C3A 6889   7.315  18.541   8.223  0.0426  0.0008  0.3081
  431loPI   C4A 6890   7.381  18.571   7.864  0.2464 -0.0164 -0.1231
  431loPI   C5A 6891   7.092  18.536   7.626  0.0667  0.4328  0.3174
  431loPI   C6A 6892   6.924  18.503   7.216 -0.0339 -0.0919 -0.3562
  431loPI   C1B 6893   6.905  18.816   9.228 -0.0478 -0.2164 -0.0909
  431loPI   C2B 6894   6.912  18.973   8.736  0.0626 -0.2484 -0.1030
  431loPI   C3B 6895   6.837  18.928   8.285 -0.2329 -0.3853 -0.0354
  431loPI   C4B 6896   6.738  19.016   7.847 -0.1875 -0.2772 -0.1294
  432loPI    C1 6897   8.894   5.516   9.858 -0.0617  0.3971 -0.0568
  432loPI    C2 6898   9.200   5.773   9.866  0.2861 -0.0075  0.0039
  432loPI    C3 6899   9.122   5.545  10.185 -0.1702  0.1873  0.0398
  432loPI   PO4 6900   8.807   5.561   9.558  0.5311 -0.0178 -0.1531
  432loPI   GL1 6901   8.717   5.695   9.144 -0.0792  0.1899 -0.1259
  432loPI   GL2 6902   8.667   5.965   9.072 -0.2463 -0.2320  0.0266
  432loPI   C1A 6903   8.779   5.654   8.688  0.1244  0.0488 -0.2428
  432loPI   C2A 6904   8.772   5.844   8.255  0.3357 -0.1776  0.3485
  432loPI   C3A 6905   8.713   5.968   7.733 -0.0250  0.1769 -0.0257
  432loPI   C4A 6906   8.323   6.052   7.407  0.2687 -0.1749  0.0710
  432loPI   C5A 6907   8.022   5.808   7.274  0.2945 -0.1739  0.3287
  432loPI   C6A 6908   7.578   5.585   7.335  0.0391 -0.0082  0.0380
  432loPI   C1B 6909   8.825   6.224   8.757  0.1033 -0.6040  0.2099
  432loPI   C2B 6910   8.602   6.360   8.323 -0.0531  0.1601  0.2381
  432loPI   C3B 6911   8.559   6.542   7.924  0.1739 -0.0983  0.2368
  432loPI   C4B 6912   8.387   6.559   7.532  0.2944  0.3718  0.2376
  433loPI    C1 6913  15.466   4.929  10.035 -0.0498 -0.1444 -0.0327
  433loPI    C2 6914  15.548   4.983  10.422 -0.2307  0.1139 -0.0281
  433loPI    C3 6915  15.484   4.614  10.281  0.1019 -0.0090  0.1316
  433loPI   PO4 6916  15.516   5.261   9.911  0.1006 -0.0741 -0.0318
  433loPI   GL1 6917  15.438   5.436   9.567  0.0445 -0.0493 -0.2301
  433loPI   GL2 6918  15.398   5.728   9.538 -0.0292  0.3892 -0.1264
  433loPI   C1A 6919  15.565   5.367   9.200  0.0786 -0.0735 -0.1032
  433loPI   C2A 6920  15.602   5.427   8.846 -0.1152  0.1404 -0.0956
  433loPI   C3A 6921  15.443   5.546   8.492 -0.2564  0.0416  0.0665
  433loPI   C4A 6922  15.473   5.570   8.080  0.2140  0.0490  0.2383
  433loPI   C5A 6923  15.497   5.200   7.695  0.3473 -0.1163  0.0906
  433loPI   C6A 6924  15.720   5.023   7.437 -0.0904 -0.1544  0.0913
  433loPI   C1B 6925  15.407   5.853   9.149  0.1574 -0.2347  0.0333
  433loPI   C2B 6926  15.494   5.994   8.818  0.0290 -0.0111 -0.1808
  433loPI   C3B 6927  15.555   5.970   8.359 -0.0929  0.0394  0.1757
  433loPI   C4B 6928  15.481   6.116   7.977 -0.1136  0.2399  0.0608
  434loPI    C1 6929   2.080   3.375   9.867 -0.2094 -0.1142 -0.2378
  434loPI    C2 6930   1.945   3.054  10.064  0.0668 -0.1135 -0.0419
  434loPI    C3 6931   2.155   3.334  10.258  0.0085  0.0821 -0.2567
  434loPI   PO4 6932   1.895   3.530   9.752 -0.0091 -0.1246  0.1278
  434loPI   GL1 6933   1.794   3.864   9.451  0.2122 -0.2307  0.2164
  434loPI   GL2 6934   1.561   4.087   9.356 -0.0850 -0.0536  0.1220
  434loPI   C1A 6935   1.893   3.626   8.993 -0.1272  0.0127 -0.1042
  434loPI   C2A 6936   2.015   3.411   8.583 -0.0336  0.0429  0.1207
  434loPI   C3A 6937   1.742   3.260   8.171 -0.0470 -0.1622 -0.0034
  434loPI   C4A 6938   1.585   3.104   7.787  0.3286  0.1975  0.1095
  434loPI   C5A 6939   1.624   2.887   7.441 -0.0521 -0.1382 -0.0428
  434loPI   C6A 6940   1.933   2.688   7.211 -0.1643  0.0829  0.0676
  434loPI   C1B 6941   1.560   4.053   8.929 -0.2492 -0.0895 -0.0484
  434loPI   C2B 6942   1.840   4.120   8.599 -0.0726  0.2029 -0.0922
  434loPI   C3B 6943   1.911   4.253   8.229  0.1292  0.0794 -0.1559
  434loPI   C4B 6944   1.888   4.266   7.795  0.2549 -0.1123 -0.1351
  435loPI    C1 6945  16.603  14.732   9.853  0.1051 -0.1601  0.0378
  435loPI    C2 6946  16.542  14.605   9.479  0.3219  0.2948 -0.1601
  435loPI    C3 6947  16.819  14.429   9.706  0.0548 -0.1119 -0.1387
  435loPI   PO4 6948  16.733  14.918   9.845  0.3308 -0.0403 -0.0833
  435loPI   GL1 6949  17.134  14.768   9.610  0.0661  0.1722 -0.2112
  435loPI   GL2 6950  17.271  14.684   9.714 -0.0889 -0.1217  0.2046
  435loPI   C1A 6951  16.977  14.588   9.230 -0.1319 -0.1147  0.3324
  435loPI   C2A 6952  16.976  14.639   8.723  0.0996  0.2126 -0.2171
  435loPI   C3A 6953  16.695  14.616   8.392  0.0832  0.0413  0.0832
  435loPI   C4A 6954  16.697  14.946   8.008  0.2927  0.1951  0.2083
  435loPI   C5A 6955  16.879  15.452   7.991 -0.0417  0.2828 -0.1786
  435loPI   C6A 6956  17.099  15.687   8.256  0.0726 -0.2650 -0.2610
  435loPI   C1B 6957  17.632  14.812   9.488  0.6339  0.0324 -0.0021
  435loPI   C2B 6958  17.807  14.890   9.211  0.1947  0.0877 -0.1482
  435loPI   C3B 6959  17.845  15.160   8.860 -0.2114  0.0199 -0.1927
  435loPI   C4B 6960  17.885  15.616   8.668 -0.2670  0.0555 -0.0934
  436loPI    C1 6961  11.682   5.847   9.748 -0.0194 -0.0670 -0.3320
  436loPI    C2 6962  11.823   6.150   9.967 -0.1347 -0.0981 -0.2133
  436loPI    C3 6963  11.475   5.978  10.064  0.0424 -0.4231 -0.1378
  436loPI   PO4 6964  11.783   5.834   9.488 -0.0191  0.4667  0.0632
  436loPI   GL1 6965  11.785   5.640   9.144  0.0645 -0.1802  0.0405
  436loPI   GL2 6966  11.799   5.935   8.974 -0.2512  0.0816  0.0933
  436loPI   C1A 6967  11.612   5.504   8.845 -0.0434 -0.2205  0.1242
  436loPI   C2A 6968  11.723   5.351   8.444  0.2966  0.0885  0.2428
  436loPI   C3A 6969  11.611   5.553   8.015 -0.1251 -0.1373 -0.2402
  436loPI   C4A 6970  11.636   5.742   7.663 -0.2280 -0.0575  0.1656
  436loPI   C5A 6971  11.923   5.926   7.501 -0.2405  0.1403  0.0178
  436loPI   C6A 6972  12.157   6.254   7.549  0.3778  0.1915  0.1742
  436loPI   C1B 6973  11.717   5.867   8.505 -0.0466  0.2828 -0.1546
  436loPI   C2B 6974  11.781   6.052   8.133 -0.0718  0.0680  0.2978
  436loPI   C3B 6975  11.868   6.526   8.042  0.1155  0.0947 -0.2242
  436loPI   C4B 6976  12.165   6.700   7.720 -0.2559  0.1616 -0.2334
  437loPI    C1 6977  12.811  14.377   9.734 -0.0064  0.1428 -0.0524
  437loPI    C2 6978  13.102  14.638   9.820 -0.0003  0.0450  0.2340
  437loPI    C3 6979  13.152  14.249   9.901 -0.0573 -0.0301 -0.0791
  437loPI   PO4 6980  12.730  14.500   9.527 -0.1307  0.4089 -0.2213
  437loPI   GL1 6981  12.992  14.644   9.217 -0.5503 -0.3167 -0.1508
  437loPI   GL2 6982  13.271  14.559   9.221  0.0426  0.0443  0.2525
  437loPI   C1A 6983  12.883  14.718   8.804  0.0466  0.0877 -0.2314
  437loPI   C2A 6984  12.796  14.500   8.501 -0.0959  0.1053 -0.2657
  437loPI   C3A 6985  12.659  14.223   8.238 -0.1482  0.0282  0.0527
  437loPI   C4A 6986  12.458  13.996   7.887 -0.1382  0.0235  0.0448
  437loPI   C5A 6987  12.194  13.677   7.951  0.0620 -0.2633  0.1827
  437loPI   C6A 6988  11.821  13.726   7.703  0.2073 -0.0626  0.0635
  437loPI   C1B 6989  13.263  14.375   8.841 -0.1586  0.4497  0.0205
  437loPI   C2B 6990  13.591  14.255   8.541 -0.4131 -0.0405 -0.1849
  437loPI   C3B 6991  13.638  14.435   8.215  0.2496  0.1041  0.1315
  437loPI   C4B 6992  13.578  14.624   7.788  0.2810 -0.2812 -0.0951
  438loPI    C1 6993   8.659   1.695   9.726 -0.1907 -0.0829  0.1524
  438loPI    C2 6994   8.822   2.059   9.758  0.0047 -0.1409 -0.1427
  438loPI    C3 6995   8.512   1.958   9.990  0.0222  0.1712  0.0227
  438loPI   PO4 6996   8.880   1.554   9.474  0.1757 -0.2868 -0.3089
  438loPI   GL1 6997   8.985   1.505   9.050 -0.0153 -0.2263 -0.2306
  438loPI   GL2 6998   8.622   1.619   9.010 -0.2124  0.2145 -0.2817
  438loPI   C1A 6999   8.901   1.515   8.554  0.0442  0.0118  0.2515
  438loPI   C2A 7000   8.873   1.294   8.183 -0.4618  0.2995  0.2625
  438loPI   C3A 7001   8.814   1.139   7.806 -0.0101 -0.1995 -0.2288
  438loPI   C4A 7002   8.451   0.894   7.747  0.3469  0.0668 -0.0779
  438loPI   C5A 7003   8.243   0.537   7.466 -0.3002  0.0503 -0.0227
  438loPI   C6A 7004   8.258   0.131   7.361  0.0545 -0.1879 -0.2698
  438loPI   C1B 7005   8.379   1.770   8.688  0.2086  0.0693 -0.0986
  438loPI   C2B 7006   8.475   1.677   8.193 -0.2557  0.1303 -0.1940
  438loPI   C3B 7007   8.404   1.423   7.819 -0.1217 -0.0615 -0.1528
  438loPI   C4B 7008   8.628   1.382   7.371  0.3977 -0.0977  0.1526
  439loPI    C1 7009   9.645  12.707  10.369 -0.0739 -0.1503 -0.0332
  439loPI    C2 7010   9.547  13.089  10.303 -0.0559 -0.1344  0.0316
  439loPI    C3 7011   9.780  12.993  10.614 -0.1567 -0.2109  0.0842
  439loPI   PO4 7012   9.711  12.658  10.047  0.0526 -0.2051  0.0322
  439loPI   GL1 7013   9.869  12.873   9.550  0.0653  0.0127  0.4284
  439loPI   GL2 7014   9.800  13.293   9.523  0.1615  0.1417 -0.2060
  439loPI   C1A 7015  10.151  12.922   9.233  0.1607  0.1561 -0.0135
  439loPI   C2A 7016  10.569  13.048   9.234  0.0329  0.4092  0.0804
  439loPI   C3A 7017  10.852  13.277   8.882 -0.1236  0.0449  0.1761
  439loPI   C4A 7018  11.069  13.431   8.651 -0.0366  0.0799  0.1703
  439loPI   C5A 7019  11.014  13.636   8.200 -0.0215  0.1997  0.1723
  439loPI   C6A 7020  11.135  13.956   7.848  0.1038  0.1646  0.0831
  439loPI   C1B 7021   9.802  13.373   9.091 -0.2177 -0.3138 -0.0091
  439loPI   C2B 7022   9.836  13.440   8.595  0.0340 -0.0870  0.1222
  439loPI   C3B 7023  10.025  13.427   8.186  0.1260 -0.1695  0.0098
  439loPI   C4B 7024  10.087  13.437   7.718  0.1294  0.0097  0.2852
  440loPI    C1 7025   4.003   7.934   9.581 -0.0450  0.3062 -0.2296
  440loPI    C2 7026   4.153   7.585   9.454 -0.1156  0.2174 -0.0718
  440loPI    C3 7027   4.127   7.661   9.846 -0.2362  0.3406 -0.1029
  440loPI   PO4 7028   4.050   8.124   9.454  0.0436 -0.2639  0.1423
  440loPI   GL1 7029   3.953   8.340   9.099 -0.0840 -0.1134 -0.0811
  440loPI   GL2 7030   3.816   8.242   8.851  0.0578  0.2021  0.1066
  440loPI   C1A 7031   4.053   8.715   8.941  0.1455  0.1607 -0.3050
  440loPI   C2A 7032   4.231   8.695   8.659 -0.4795  0.0359  0.2147
  440loPI   C3A 7033   4.226   8.588   8.193  0.0695  0.4435 -0.0122
  440loPI   C4A 7034   4.202   8.278   7.922  0.1927  0.0757 -0.1708
  440loPI   C5A 7035   3.812   8.246   7.489  0.0164  0.0214 -0.0463
  440loPI   C6A 7036   3.439   8.444   7.222 -0.1386  0.1508  0.2797
  440loPI   C1B 7037   3.889   8.114   8.454  0.1661 -0.0159 -0.0130
  440loPI   C2B 7038   3.664   8.056   7.987 -0.0505 -0.2194  0.0330
  440loPI   C3B 7039   3.471   7.886   7.573  0.0742 -0.0003 -0.0007
  440loPI   C4B 7040   3.413   7.948   7.182  0.0951  0.1602 -0.0323
  441loPI    C1 7041  17.027   0.395  10.232 -0.0489 -0.0494 -0.2547
  441loPI    C2 7042  17.423   0.445  10.213 -0.0678  0.1626 -0.1144
  441loPI    C3 7043  17.221   0.566  10.537 -0.2201 -0.1382 -0.0936
  441loPI   PO4 7044  16.954   0.156  10.081 -0.2756 -0.1802  0.1277
  441loPI   GL1 7045  16.897   0.031   9.757  0.1219 -0.1469 -0.3284
  441loPI   GL2 7046  16.733  -0.248   9.824 -0.1985 -0.0125  0.2543
  441loPI   C1A 7047  17.078   0.169   9.392 -0.2044 -0.0442  0.1571
  441loPI   C2A 7048  17.084   0.268   8.975  0.2823  0.0352 -0.0412
  441loPI   C3A 7049  16.865   0.380   8.630  0.1673 -0.0664 -0.1061
  441loPI   C4A 7050  16.943   0.602   8.286 -0.0264  0.3417 -0.3215
  441loPI   C5A 7051  17.147   0.940   8.056 -0.0451  0.2573  0.0604
  441loPI   C6A 7052  17.463   1.081   7.775  0.1517  0.0369 -0.1114
  441loPI   C1B 7053  16.565  -0.219   9.446  0.1330 -0.0235 -0.2038
  441loPI   C2B 7054  16.689  -0.190   9.088 -0.1297  0.2301 -0.1001
  441loPI   C3B 7055  16.832  -0.076   8.618 -0.0382 -0.0275  0.2397
  441loPI   C4B 7056  17.109   0.133   8.220  0.1075  0.0920 -0.0365
  442loPI    C1 7057   3.135  11.619  10.071 -0.1075  0.0026  0.2184
  442loPI    C2 7058   3.470  11.588  10.287  0.1811 -0.2926 -0.2526
  442loPI    C3 7059   3.166  11.337  10.352  0.1243 -0.1514  0.0426
  442loPI   PO4 7060   3.137  11.805   9.891 -0.0315 -0.0096  0.2898
  442loPI   GL1 7061   2.716  11.849   9.792 -0.0930  0.0107  0.0253
  442loPI   GL2 7062   2.356  12.017   9.872  0.1526  0.0489 -0.0861
  442loPI   C1A 7063   2.757  11.912   9.311 -0.0031 -0.0306  0.0590
  442loPI   C2A 7064   2.710  12.089   8.926  0.1013  0.1383  0.1216
  442loPI   C3A 7065   2.948  12.177   8.629  0.2343  0.0730  0.0288
  442loPI   C4A 7066   3.040  12.164   8.189 -0.0622  0.1375 -0.1711
  442loPI   C5A 7067   2.776  12.048   7.877  0.2238 -0.1254 -0.3967
  442loPI   C6A 7068   2.397  11.951   7.868  0.0352 -0.0297  0.3551
  442loPI   C1B 7069   2.277  12.329   9.559  0.2802  0.2970 -0.3632
  442loPI   C2B 7070   2.149  12.254   9.084 -0.3538 -0.1143  0.1859
  442loPI   C3B 7071   2.276  12.204   8.643  0.1946  0.2159 -0.0493
  442loPI   C4B 7072   2.522  12.049   8.342  0.0709  0.2379  0.0440
  443loPI    C1 7073   8.678   8.736   9.811 -0.0142  0.1405  0.1624
  443loPI    C2 7074   8.314   8.901   9.825 -0.0268  0.1584 -0.2583
  443loPI    C3 7075   8.621   9.080  10.007 -0.1571  0.3321 -0.2064
  443loPI   PO4 7076   8.723   8.774   9.552 -0.1454 -0.0125 -0.0089
  443loPI   GL1 7077   8.999   8.869   9.198  0.0317  0.0234  0.1495
  443loPI   GL2 7078   9.307   8.978   9.308 -0.1077 -0.0229 -0.2893
  443loPI   C1A 7079   8.926   8.845   8.829  0.1360 -0.3254 -0.0288
  443loPI   C2A 7080   8.825   8.918   8.374 -0.1572 -0.0686  0.1245
  443loPI   C3A 7081   8.688   8.995   8.066 -0.1117  0.2240 -0.3077
  443loPI   C4A 7082   9.032   9.067   7.608  0.3596 -0.0985  0.1828
  443loPI   C5A 7083   9.242   9.093   7.328  0.0669 -0.0604 -0.3075
  443loPI   C6A 7084   9.400   9.021   6.926 -0.1203 -0.1156  0.0517
  443loPI   C1B 7085   9.610   9.258   9.042  0.0397 -0.0356  0.0707
  443loPI   C2B 7086   9.608   9.310   8.680 -0.1148 -0.1921 -0.3244
  443loPI   C3B 7087   9.298   9.081   8.501  0.2639 -0.1235  0.2961
  443loPI   C4B 7088   9.267   8.648   8.527  0.4899  0.2034 -0.0345
  444loPI    C1 7089   2.075   9.424  10.015  0.2966  0.1670  0.0813
  444loPI    C2 7090   2.237   9.264  10.344 -0.1329  0.0711  0.2540
  444loPI    C3 7091   1.952   9.066  10.146  0.1878  0.0834 -0.2394
  444loPI   PO4 7092   2.301   9.492   9.783  0.2735 -0.2617 -0.1246
  444loPI   GL1 7093   2.388   9.553   9.421 -0.2332 -0.3089  0.0744
  444loPI   GL2 7094   2.278   9.918   9.572  0.1294  0.3569  0.3895
  444loPI   C1A 7095   2.305   9.440   9.036  0.2957  0.4934 -0.2954
  444loPI   C2A 7096   2.399   9.421   8.658  0.1875  0.0640 -0.3211
  444loPI   C3A 7097   2.348   9.436   8.132 -0.3569  0.1099 -0.1320
  444loPI   C4A 7098   2.402   9.116   7.823  0.2104  0.3248 -0.0913
  444loPI   C5A 7099   2.160   8.765   7.604 -0.1706  0.3524 -0.0061
  444loPI   C6A 7100   1.802   8.958   7.603  0.0406  0.1345  0.2492
  444loPI   C1B 7101   2.131   9.917   9.176 -0.0885 -0.2373 -0.0636
  444loPI   C2B 7102   2.131   9.841   8.736 -0.0619  0.1505  0.3210
  444loPI   C3B 7103   1.944   9.710   8.316 -0.1571 -0.3446 -0.0015
  444loPI   C4B 7104   1.617   9.519   8.251  0.0557 -0.0662 -0.0113
  445loPI    C1 7105  16.494   0.307  10.190 -0.3126 -0.0054  0.0793
  445loPI    C2 7106  16.389   0.057  10.484 -0.2139 -0.0021  0.1180
  445loPI    C3 7107  16.623   0.372  10.563 -0.0716 -0.0797  0.0112
  445loPI   PO4 7108  16.295   0.233  10.012 -0.4252  0.0361  0.0092
  445loPI   GL1 7109  16.176  -0.013   9.689  0.1325  0.0891  0.2574
  445loPI   GL2 7110  15.843  -0.106   9.773  0.0748 -0.1189  0.1437
  445loPI   C1A 7111  16.071  -0.063   9.181 -0.1021 -0.3297 -0.1324
  445loPI   C2A 7112  16.264  -0.163   8.788 -0.0955 -0.0330  0.2733
  445loPI   C3A 7113  16.416  -0.205   8.377 -0.1106 -0.1343 -0.1059
  445loPI   C4A 7114  16.657  -0.071   8.001  0.2002 -0.0869  0.0170
  445loPI   C5A 7115  16.628   0.263   7.706  0.3466  0.1687  0.0024
  445loPI   C6A 7116  16.248   0.469   7.565 -0.1007 -0.0101  0.2922
  445loPI   C1B 7117  15.609   0.127   9.494  0.3307  0.2413 -0.2376
  445loPI   C2B 7118  15.557   0.054   9.019  0.0122  0.0636 -0.0619
  445loPI   C3B 7119  15.290  -0.121   8.775 -0.0194  0.1703 -0.0221
  445loPI   C4B 7120  15.086  -0.070   8.520 -0.2062 -0.3328 -0.0697
  446loPI    C1 7121   8.264   0.091   9.838 -0.0816 -0.2044  0.0352
  446loPI    C2 7122   8.130   0.247  10.180 -0.0782  0.3236 -0.1953
  446loPI    C3 7123   8.438  -0.008  10.184 -0.1664  0.2157  0.2039
  446loPI   PO4 7124   8.064   0.160   9.707  0.3074 -0.3903  0.0385
  446loPI   GL1 7125   8.011   0.425   9.318  0.1754  0.0635 -0.0782
  446loPI   GL2 7126   8.261   0.656   9.429  0.4742 -0.2306  0.0026
  446loPI   C1A 7127   7.854   0.531   8.989  0.0051  0.0754  0.2834
  446loPI   C2A 7128   7.689   0.492   8.573  0.4107 -0.3661  0.3936
  446loPI   C3A 7129   7.730   0.297   8.126  0.0261 -0.1200  0.0622
  446loPI   C4A 7130   7.744  -0.098   8.030 -0.0408 -0.3412 -0.1704
  446loPI   C5A 7131   7.806  -0.311   8.259 -0.0153  0.2728  0.0863
  446loPI   C6A 7132   7.733  -0.697   8.369 -0.1302  0.1542 -0.0588
  446loPI   C1B 7133   8.232   0.869   8.975  0.1365  0.2758 -0.5039
  446loPI   C2B 7134   7.996   0.901   8.669 -0.1657 -0.1233  0.2949
  446loPI   C3B 7135   7.778   0.826   8.201  0.2448  0.0724  0.0379
  446loPI   C4B 7136   7.935   0.947   7.785  0.0661 -0.3555  0.1778
  447loPI    C1 7137   8.670  18.660   9.940  0.1170 -0.0942  0.0478
  447loPI    C2 7138   8.956  18.806  10.179  0.0518  0.0887  0.0156
  447loPI    C3 7139   8.740  18.490  10.295  0.2112  0.0003  0.0751
  447loPI   PO4 7140   8.714  18.764   9.687  0.0188  0.1689 -0.0022
  447loPI   GL1 7141   8.508  18.770   9.266 -0.1288 -0.3109 -0.2830
  447loPI   GL2 7142   8.212  18.934   9.269 -0.4712  0.1212 -0.1726
  447loPI   C1A 7143   8.379  18.688   8.824  0.1163 -0.1515 -0.0367
  447loPI   C2A 7144   8.239  18.558   8.438 -0.0554 -0.1441  0.0590
  447loPI   C3A 7145   8.364  18.457   8.057  0.0484  0.2124  0.2124
  447loPI   C4A 7146   8.434  18.113   7.789 -0.0554  0.2969 -0.0973
  447loPI   C5A 7147   8.509  17.638   7.793 -0.0660 -0.1264 -0.1690
  447loPI   C6A 7148   8.677  17.302   7.456  0.1170  0.1370 -0.1043
  447loPI   C1B 7149   8.159  19.114   8.825  0.1932 -0.0528 -0.2910
  447loPI   C2B 7150   7.737  19.047   8.605  0.2850  0.3174  0.2824
  447loPI   C3B 7151   7.334  19.022   8.439  0.0632  0.4536  0.3910
  447loPI   C4B 7152   7.251  19.051   7.954 -0.1702 -0.2134 -0.0824
  448loPI    C1 7153   7.859  10.614   9.500  0.0925  0.0015  0.1799
  448loPI    C2 7154   8.053  10.913   9.317  0.2001 -0.0972  0.1309
  448loPI    C3 7155   8.099  10.855   9.711  0.2588 -0.1112  0.1222
  448loPI   PO4 7156   7.700  10.574   9.446 -0.0603  0.0034  0.3509
  448loPI   GL1 7157   7.447  10.320   9.223 -0.2080  0.0108  0.2334
  448loPI   GL2 7158   7.145  10.663   9.273  0.1268  0.3263  0.2508
  448loPI   C1A 7159   7.687  10.366   8.761  0.1496  0.1052  0.0242
  448loPI   C2A 7160   7.749  10.621   8.420  0.2609  0.1484  0.0962
  448loPI   C3A 7161   7.765  10.564   7.929 -0.0285  0.1821  0.1068
  448loPI   C4A 7162   8.024  10.673   7.617 -0.2873 -0.0964  0.2143
  448loPI   C5A 7163   7.788  10.938   7.386 -0.1399 -0.0815  0.1251
  448loPI   C6A 7164   7.431  11.181   7.414 -0.3169  0.1064  0.0514
  448loPI   C1B 7165   7.228  10.572   8.826  0.0101 -0.1939 -0.0032
  448loPI   C2B 7166   7.196  10.446   8.465 -0.0889 -0.1019  0.1643
  448loPI   C3B 7167   7.351  10.369   8.048  0.0180 -0.4441  0.1639
  448loPI   C4B 7168   7.486  10.045   7.883  0.4127  0.1591 -0.3307
  449loPI    C1 7169   5.764  11.426  10.387  0.2245  0.0051  0.1556
  449loPI    C2 7170   6.164  11.405  10.376  0.2277  0.0449  0.1883
  449loPI    C3 7171   5.945  11.071  10.347  0.2638  0.0208  0.1927
  449loPI   PO4 7172   5.742  11.657  10.232 -0.0165  0.0104  0.0697
  449loPI   GL1 7173   5.707  11.694   9.789  0.0534  0.1730  0.1190
  449loPI   GL2 7174   5.378  11.551   9.872 -0.0354 -0.2021 -0.1208
  449loPI   C1A 7175   5.688  11.621   9.382  0.1789 -0.1433  0.0741
  449loPI   C2A 7176   5.771  11.884   9.117  0.0025  0.0826  0.2687
  449loPI   C3A 7177   5.835  11.719   8.637  0.1032 -0.0832  0.0191
  449loPI   C4A 7178   5.631  11.708   8.236 -0.3772 -0.1962  0.1307
  449loPI   C5A 7179   5.615  11.931   7.942  0.1751 -0.2073 -0.1719
  449loPI   C6A 7180   5.548  12.313   7.875  0.1231 -0.2206 -0.2090
  449loPI   C1B 7181   5.205  11.718   9.516  0.0382  0.0781  0.3485
  449loPI   C2B 7182   5.127  11.850   9.188 -0.1386  0.0437 -0.1357
  449loPI   C3B 7183   4.920  11.890   8.883 -0.0291 -0.4222  0.1149
  449loPI   C4B 7184   4.849  12.176   8.555  0.1264 -0.4006 -0.2441
  450loPI    C1 7185   7.117   8.357   9.839  0.0841 -0.3070  0.1283
  450loPI    C2 7186   6.761   8.336  10.020 -0.0321 -0.0442 -0.0625
  450loPI    C3 7187   7.065   8.527  10.197 -0.0819  0.0213 -0.0476
  450loPI   PO4 7188   7.104   8.252   9.667 -0.0734  0.0098  0.0636
  450loPI   GL1 7189   6.964   8.248   9.326 -0.0655  0.0197  0.0517
  450loPI   GL2 7190   7.127   8.084   9.179  0.1506  0.3008 -0.3243
  450loPI   C1A 7191   6.627   8.305   9.128 -0.1011 -0.2594  0.0106
  450loPI   C2A 7192   6.402   8.429   8.695  0.1619 -0.0849 -0.1439
  450loPI   C3A 7193   6.608   8.351   8.299 -0.3012 -0.0429 -0.3512
  450loPI   C4A 7194   6.626   8.488   7.898 -0.0315 -0.2220 -0.1849
  450loPI   C5A 7195   6.798   8.757   7.613 -0.2614  0.0849 -0.0421
  450loPI   C6A 7196   6.381   8.869   7.433  0.2481 -0.1675 -0.1371
  450loPI   C1B 7197   7.227   8.173   8.844 -0.0526  0.1803 -0.2433
  450loPI   C2B 7198   7.183   8.137   8.376  0.1868  0.1145  0.2126
  450loPI   C3B 7199   6.821   7.978   8.132  0.0363  0.3808  0.0496
  450loPI   C4B 7200   6.439   7.990   7.906 -0.0391 -0.0880 -0.1772
  451loPI    C1 7201  11.551  10.794  10.158  0.0109 -0.0410 -0.0936
  451loPI    C2 7202  11.467  10.409  10.093 -0.0037 -0.0591  0.0318
  451loPI    C3 7203  11.554  10.535  10.463 -0.0448  0.0665 -0.0011
  451loPI   PO4 7204  11.738  10.863   9.945 -0.1019 -0.2952 -0.0807
  451loPI   GL1 7205  11.632  10.773   9.597  0.0470  0.0320  0.3042
  451loPI   GL2 7206  11.781  10.432   9.643 -0.1342 -0.1124 -0.0533
  451loPI   C1A 7207  11.532  11.029   9.202 -0.0567 -0.0252 -0.0030
  451loPI   C2A 7208  11.607  10.999   8.753  0.1119 -0.0447  0.3703
  451loPI   C3A 7209  11.593  11.090   8.294  0.0462  0.0921  0.2722
  451loPI   C4A 7210  11.341  10.898   8.005  0.1508  0.2094 -0.1114
  451loPI   C5A 7211  11.235  11.100   7.521  0.0778 -0.0717  0.0517
  451loPI   C6A 7212  11.482  11.186   7.094  0.2520  0.2192 -0.0115
  451loPI   C1B 7213  11.577  10.466   9.194 -0.2302  0.1058 -0.2529
  451loPI   C2B 7214  11.783  10.414   8.837  0.0315  0.0118 -0.0799
  451loPI   C3B 7215  11.747  10.558   8.379 -0.0259  0.0868 -0.0651
  451loPI   C4B 7216  11.818  10.758   7.973 -0.1004 -0.0183  0.2144
  452loPI    C1 7217   7.908  17.238   9.807 -0.0392  0.1978 -0.1049
  452loPI    C2 7218   8.097  16.889   9.858 -0.2366  0.1353  0.2285
  452loPI    C3 7219   8.299  17.232   9.891 -0.0923  0.0594  0.1432
  452loPI   PO4 7220   7.679  17.127   9.784 -0.1033  0.2385 -0.2933
  452loPI   GL1 7221   7.426  16.892   9.533 -0.0042  0.1048  0.4015
  452loPI   GL2 7222   7.158  16.836   9.407 -0.3351 -0.0609 -0.1295
  452loPI   C1A 7223   7.542  16.854   9.095  0.0314  0.0841  0.0262
  452loPI   C2A 7224   7.574  16.958   8.660  0.0136 -0.2401  0.0695
  452loPI   C3A 7225   7.494  17.023   8.239 -0.0978  0.0359 -0.1605
  452loPI   C4A 7226   7.620  16.928   7.821 -0.1779 -0.0241  0.2469
  452loPI   C5A 7227   7.915  16.986   7.433  0.0043 -0.1016 -0.4246
  452loPI   C6A 7228   8.209  17.293   7.165 -0.0348  0.0420  0.1960
  452loPI   C1B 7229   7.035  16.652   9.049 -0.0031 -0.0574 -0.1807
  452loPI   C2B 7230   7.130  16.618   8.632  0.2526 -0.0040  0.1556
  452loPI   C3B 7231   7.178  16.578   8.146 -0.1812  0.2615  0.0395
  452loPI   C4B 7232   7.176  16.709   7.682 -0.0280  0.0475  0.0768
  453loPI    C1 7233  16.397  10.742  10.008 -0.0435  0.2444  0.0331
  453loPI    C2 7234  16.506  11.106  10.132  0.3710  0.2146 -0.2245
  453loPI    C3 7235  16.590  10.785  10.355 -0.0270  0.2738  0.0202
  453loPI   PO4 7236  16.563  10.768   9.714  0.1921 -0.0888 -0.2922
  453loPI   GL1 7237  17.093  10.786   9.566 -0.0578 -0.4923 -0.2440
  453loPI   GL2 7238  17.207  10.495   9.566  0.1950 -0.0598  0.1112
  453loPI   C1A 7239  17.070  11.074   9.169 -0.1668  0.1264 -0.0412
  453loPI   C2A 7240  17.231  11.114   8.832  0.2638  0.0174 -0.1644
  453loPI   C3A 7241  17.247  11.052   8.432 -0.1944  0.0850  0.2013
  453loPI   C4A 7242  17.581  11.025   8.136  0.2966  0.1084  0.1845
  453loPI   C5A 7243  17.972  10.902   7.868 -0.1732  0.3779 -0.0305
  453loPI   C6A 7244  18.373  10.920   7.849  0.1346 -0.2848 -0.1858
  453loPI   C1B 7245  17.244  10.387   9.185 -0.1204 -0.4740 -0.0447
  453loPI   C2B 7246  17.443  10.665   8.879 -0.0765  0.0449 -0.1338
  453loPI   C3B 7247  17.660  10.586   8.435 -0.2422 -0.1865  0.0397
  453loPI   C4B 7248  17.536  10.527   7.977  0.1391 -0.0405 -0.2454
  454loPI    C1 7249   9.878  11.042   9.910 -0.0021  0.1212 -0.0755
  454loPI    C2 7250  10.012  11.418   9.901  0.0305  0.1151  0.1144
  454loPI    C3 7251  10.266  11.118   9.974 -0.0026  0.0597  0.0025
  454loPI   PO4 7252   9.673  11.054   9.597 -0.0549  0.1291 -0.2283
  454loPI   GL1 7253   9.412  10.991   9.281 -0.0776 -0.0219  0.0860
  454loPI   GL2 7254   9.206  11.028   8.995 -0.0189 -0.0494 -0.0167
  454loPI   C1A 7255   9.652  10.760   8.921 -0.0390 -0.2788 -0.1143
  454loPI   C2A 7256   9.681  10.620   8.596 -0.5446  0.1964 -0.0251
  454loPI   C3A 7257  10.053  10.371   8.554 -0.0918 -0.0025 -0.2048
  454loPI   C4A 7258  10.444  10.382   8.466 -0.2654 -0.1696  0.0199
  454loPI   C5A 7259  10.438  10.365   8.111  0.0096 -0.1969  0.1389
  454loPI   C6A 7260  10.485  10.113   7.771  0.1376 -0.0240  0.0961
  454loPI   C1B 7261   9.373  11.099   8.638  0.3260 -0.1840  0.2028
  454loPI   C2B 7262   9.535  10.970   8.255 -0.0004 -0.0118 -0.2335
  454loPI   C3B 7263   9.515  10.624   7.854  0.0700 -0.0024 -0.1108
  454loPI   C4B 7264   9.653  10.222   7.716  0.0106  0.0930 -0.0882
  455loPI    C1 7265  12.381   8.841   9.615  0.0353 -0.3319  0.4485
  455loPI    C2 7266  12.014   8.884   9.766  0.0913  0.1060  0.4731
  455loPI    C3 7267  12.122   9.091   9.441  0.2707 -0.1322  0.3781
  455loPI   PO4 7268  12.354   8.568   9.601 -0.1883 -0.1162  0.0589
  455loPI   GL1 7269  12.574   8.098   9.410  0.0207  0.1542 -0.3601
  455loPI   GL2 7270  12.671   8.146   9.157 -0.0729  0.2014  0.0916
  455loPI   C1A 7271  12.473   7.677   9.078 -0.0195  0.1701 -0.0920
  455loPI   C2A 7272  12.528   7.621   8.565  0.1973  0.3232 -0.0964
  455loPI   C3A 7273  12.441   7.452   8.174 -0.1932  0.2081 -0.1683
  455loPI   C4A 7274  12.605   7.324   7.804  0.0152  0.0020  0.3232
  455loPI   C5A 7275  12.674   6.841   7.641 -0.1082  0.1074 -0.1295
  455loPI   C6A 7276  12.969   6.550   7.563 -0.2938 -0.1416  0.0714
  455loPI   C1B 7277  12.406   8.317   8.872 -0.1622  0.0202  0.1075
  455loPI   C2B 7278  12.559   8.302   8.397  0.3321 -0.0001  0.0765
  455loPI   C3B 7279  12.572   8.153   7.965  0.1213 -0.0258  0.3412
  455loPI   C4B 7280  12.535   8.311   7.517  0.0885  0.1923 -0.2467
  456loPI    C1 7281  16.342   5.075  10.423  0.0818  0.0242 -0.3502
  456loPI    C2 7282  16.738   5.060  10.481  0.0356 -0.0570 -0.0391
  456loPI    C3 7283  16.491   5.094  10.794 -0.2230 -0.4164 -0.1969
  456loPI   PO4 7284  16.326   5.219  10.185 -0.2433 -0.1305 -0.2439
  456loPI   GL1 7285  16.344   5.229   9.730  0.0340  0.1497 -0.3394
  456loPI   GL2 7286  16.673   5.133   9.597  0.0377  0.1480  0.2705
  456loPI   C1A 7287  16.052   5.167   9.457 -0.1445  0.2477 -0.1379
  456loPI   C2A 7288  16.118   5.110   9.013  0.1281 -0.2456 -0.0722
  456loPI   C3A 7289  16.283   5.000   8.563  0.1391 -0.1471 -0.0167
  456loPI   C4A 7290  16.416   5.212   8.091 -0.0991  0.2666 -0.1102
  456loPI   C5A 7291  16.528   5.407   7.730 -0.1027 -0.1079  0.0453
  456loPI   C6A 7292  16.497   5.687   7.402  0.0838 -0.0898  0.0806
  456loPI   C1B 7293  16.561   5.211   9.294 -0.1541 -0.1210 -0.0908
  456loPI   C2B 7294  16.602   5.244   8.873  0.2439  0.0047  0.0113
  456loPI   C3B 7295  16.884   5.407   8.562  0.0268 -0.0270  0.0309
  456loPI   C4B 7296  16.795   5.594   8.141  0.2498  0.3052  0.2693
  457loPI    C1 7297  12.557   9.506   9.904  0.0668  0.0180 -0.0286
  457loPI    C2 7298  12.607   9.835   9.682  0.0654  0.0561  0.0276
  457loPI    C3 7299  12.337   9.832   9.978  0.1699  0.0539  0.1238
  457loPI   PO4 7300  12.528   9.321   9.744  0.1096 -0.2318 -0.2618
  457loPI   GL1 7301  12.685   9.435   9.340 -0.0604  0.0425 -0.3218
  457loPI   GL2 7302  12.703   9.108   9.309 -0.0743 -0.0193  0.0587
  457loPI   C1A 7303  12.565   9.758   9.061  0.0841 -0.2471 -0.0979
  457loPI   C2A 7304  12.389   9.781   8.642 -0.0782 -0.0764  0.2920
  457loPI   C3A 7305  12.323   9.696   8.198 -0.0424  0.0320  0.0964
  457loPI   C4A 7306  12.034   9.771   7.916 -0.0346 -0.0518  0.1822
  457loPI   C5A 7307  11.857   9.611   7.473 -0.0315 -0.0069 -0.1576
  457loPI   C6A 7308  11.806   9.815   7.103 -0.3375  0.2433  0.2016
  457loPI   C1B 7309  12.432   9.144   8.936 -0.0827  0.0112 -0.1031
  457loPI   C2B 7310  12.272   9.197   8.546 -0.2631 -0.1629  0.1405
  457loPI   C3B 7311  12.087   9.276   8.144 -0.2018  0.1245 -0.0628
  457loPI   C4B 7312  11.958   9.235   7.738  0.1121 -0.3075  0.1192
  458loPI    C1 7313  10.383   8.342   9.903  0.0073 -0.0699 -0.1012
  458loPI    C2 7314  10.602   8.203  10.207  0.0373  0.1306 -0.0292
  458loPI    C3 7315  10.207   8.247  10.249  0.0415  0.1594 -0.0189
  458loPI   PO4 7316  10.513   8.546   9.749 -0.2681  0.0129 -0.0222
  458loPI   GL1 7317  10.749   8.527   9.393  0.0861 -0.2758  0.1717
  458loPI   GL2 7318  10.977   8.732   9.519  0.1475 -0.0450  0.0042
  458loPI   C1A 7319  10.807   8.703   8.997 -0.3703  0.2465 -0.1756
  458loPI   C2A 7320  10.940   8.725   8.596  0.0019  0.0122 -0.0050
  458loPI   C3A 7321  11.018   8.842   8.190 -0.3644 -0.1358  0.0765
  458loPI   C4A 7322  10.930   9.098   7.997 -0.0547 -0.3742 -0.0459
  458loPI   C5A 7323  10.584   9.086   7.897  0.0492  0.1573 -0.0192
  458loPI   C6A 7324  10.146   9.063   7.851  0.0372  0.1480 -0.2479
  458loPI   C1B 7325  11.253   8.688   9.174  0.1772  0.1783 -0.0119
  458loPI   C2B 7326  11.532   8.730   8.717 -0.1350 -0.1541  0.0156
  458loPI   C3B 7327  11.424   8.729   8.374  0.0381 -0.1869  0.0151
  458loPI   C4B 7328  11.478   8.490   8.026 -0.0915  0.3951  0.0546
  459loPI    C1 7329   1.632  10.851  10.385  0.0601 -0.1601 -0.2571
  459loPI    C2 7330   1.860  10.601  10.599  0.0594 -0.1276 -0.2182
  459loPI    C3 7331   1.812  10.980  10.718 -0.0136 -0.1338 -0.2275
  459loPI   PO4 7332   1.688  10.883  10.132 -0.2509  0.2910 -0.1171
  459loPI   GL1 7333   1.591  10.910   9.712  0.0215 -0.0096  0.0005
  459loPI   GL2 7334   1.322  11.079   9.691 -0.3168 -0.2734  0.4634
  459loPI   C1A 7335   1.602  10.789   9.326  0.2193  0.3620 -0.2736
  459loPI   C2A 7336   1.703  10.611   9.037 -0.0474  0.1467  0.2539
  459loPI   C3A 7337   1.532  10.505   8.667  0.3056  0.0207 -0.3412
  459loPI   C4A 7338   1.495  10.418   8.192 -0.1579  0.1165  0.2797
  459loPI   C5A 7339   1.387  10.383   7.773 -0.2223  0.1857 -0.0747
  459loPI   C6A 7340   1.321  10.330   7.269 -0.0734  0.0428 -0.0673
  459loPI   C1B 7341   1.353  11.413   9.398 -0.1469  0.4118  0.2092
  459loPI   C2B 7342   1.725  11.602   9.199 -0.3708  0.0041  0.0879
  459loPI   C3B 7343   1.831  11.813   8.793  0.0039  0.0401  0.0908
  459loPI   C4B 7344   1.776  11.898   8.443  0.0388 -0.0117  0.2177
  460loPI    C1 7345   4.400  10.516   9.875  0.0035 -0.1082 -0.2707
  460loPI    C2 7346   4.763  10.362   9.941  0.0103 -0.0743 -0.2283
  460loPI    C3 7347   4.457  10.260  10.177  0.0885  0.2441  0.0195
  460loPI   PO4 7348   4.397  10.850   9.876 -0.0571 -0.1203 -0.3078
  460loPI   GL1 7349   4.368  11.141   9.573  0.2904 -0.0502 -0.0770
  460loPI   GL2 7350   4.045  11.311   9.457 -0.0838  0.2593 -0.1273
  460loPI   C1A 7351   4.507  11.115   9.195 -0.0096 -0.1683  0.1388
  460loPI   C2A 7352   4.509  11.007   8.820 -0.0524  0.0820 -0.1502
  460loPI   C3A 7353   4.449  10.937   8.371  0.3488  0.0630  0.0801
  460loPI   C4A 7354   4.451  10.912   7.850 -0.0129 -0.1768 -0.0852
  460loPI   C5A 7355   4.099  10.817   7.561  0.1939  0.2028  0.0438
  460loPI   C6A 7356   3.844  10.739   7.252 -0.2545 -0.1443  0.0421
  460loPI   C1B 7357   3.852  11.417   9.110  0.0852 -0.3118 -0.0979
  460loPI   C2B 7358   3.645  11.546   8.674 -0.0836  0.1504 -0.0410
  460loPI   C3B 7359   3.662  11.383   8.354 -0.0391  0.0412 -0.0901
  460loPI   C4B 7360   3.288  11.303   8.051  0.1949  0.0454 -0.0235
  461loPI    C1 7361   8.799  15.916  10.612  0.1148  0.1794 -0.0210
  461loPI    C2 7362   8.769  16.311  10.562 -0.0621  0.1443 -0.2065
  461loPI    C3 7363   8.571  16.131  10.860  0.1765  0.2195  0.0010
  461loPI   PO4 7364   8.709  15.803  10.374  0.2781 -0.1930  0.1174
  461loPI   GL1 7365   8.734  15.688  10.050  0.0198  0.0312  0.2551
  461loPI   GL2 7366   9.016  15.521  10.018  0.0433 -0.1024 -0.1296
  461loPI   C1A 7367   8.458  15.768   9.562 -0.1128  0.2093 -0.3027
  461loPI   C2A 7368   8.372  15.926   9.206 -0.0304  0.1915 -0.0016
  461loPI   C3A 7369   8.409  16.138   8.779 -0.2401  0.2896 -0.0180
  461loPI   C4A 7370   8.537  16.006   8.342  0.3502 -0.1686  0.0788
  461loPI   C5A 7371   8.469  16.214   8.074  0.1531 -0.0646  0.4972
  461loPI   C6A 7372   8.410  16.221   7.688  0.1252  0.0406 -0.1625
  461loPI   C1B 7373   8.915  15.534   9.506  0.0973 -0.0515  0.0793
  461loPI   C2B 7374   8.677  15.471   9.113 -0.0783  0.2029 -0.2789
  461loPI   C3B 7375   8.428  15.165   8.754  0.1138 -0.3785  0.0571
  461loPI   C4B 7376   8.284  15.183   8.319  0.1207  0.0076 -0.0573
  462loPI    C1 7377  18.026  13.580   9.989 -0.1546  0.0224 -0.1093
  462loPI    C2 7378  17.690  13.522   9.781 -0.2886  0.0381  0.1001
  462loPI    C3 7379  17.680  13.728  10.124 -0.0969 -0.1168  0.2005
  462loPI   PO4 7380  18.173  13.548   9.751  0.0395 -0.2746  0.1388
  462loPI   GL1 7381  18.156  13.437   9.275 -0.0776  0.4846 -0.0465
  462loPI   GL2 7382  18.143  13.741   9.231  0.1388 -0.3285 -0.1909
  462loPI   C1A 7383  18.213  13.325   8.870  0.3161  0.2946  0.1508
  462loPI   C2A 7384  18.198  13.286   8.419 -0.1079 -0.2498 -0.0555
  462loPI   C3A 7385  18.336  13.164   8.010  0.1419  0.1473  0.0112
  462loPI   C4A 7386  18.786  13.192   7.727  0.0210 -0.0932 -0.0657
  462loPI   C5A 7387  19.149  13.144   7.895  0.0866  0.1584  0.1835
  462loPI   C6A 7388  19.597  13.012   7.777 -0.0260 -0.1074  0.1959
  462loPI   C1B 7389  18.065  13.781   8.830 -0.1393  0.2057 -0.3343
  462loPI   C2B 7390  18.041  13.810   8.405 -0.1701  0.2162 -0.1424
  462loPI   C3B 7391  18.009  13.585   8.029  0.0958 -0.0606 -0.1488
  462loPI   C4B 7392  18.089  13.388   7.601 -0.2549 -0.2322  0.0737
  463loPI    C1 7393  11.231  15.732  10.353 -0.0407  0.2467 -0.2522
  463loPI    C2 7394  10.896  15.940  10.418 -0.0084  0.2491 -0.0881
  463loPI    C3 7395  11.140  15.854  10.723  0.0328  0.0632 -0.1721
  463loPI   PO4 7396  11.353  15.900  10.049  0.0899 -0.2573  0.0488
  463loPI   GL1 7397  11.248  16.113   9.743  0.0500 -0.2301 -0.1235
  463loPI   GL2 7398  11.486  16.026   9.545  0.0477 -0.1701 -0.3168
  463loPI   C1A 7399  10.966  15.830   9.462  0.2323  0.1898  0.0341
  463loPI   C2A 7400  10.868  15.740   8.982 -0.0467  0.0582  0.0439
  463loPI   C3A 7401  10.702  15.703   8.477 -0.2815  0.5567 -0.4992
  463loPI   C4A 7402  10.571  15.561   8.073  0.3371 -0.1551  0.1155
  463loPI   C5A 7403  10.593  15.776   7.629 -0.0280  0.0233  0.3242
  463loPI   C6A 7404  10.540  15.695   7.205  0.0049  0.2015 -0.1817
  463loPI   C1B 7405  11.539  15.720   9.292  0.2349  0.0645 -0.0913
  463loPI   C2B 7406  11.561  15.505   8.968  0.0121 -0.0925 -0.1848
  463loPI   C3B 7407  11.585  15.474   8.551  0.1568  0.0162 -0.2206
  463loPI   C4B 7408  11.626  15.368   8.247 -0.3356 -0.3637 -0.2361
  464loPI    C1 7409   9.278   6.437   9.452 -0.0659  0.0028 -0.1381
  464loPI    C2 7410   9.444   6.772   9.594  0.0895  0.0078 -0.3281
  464loPI    C3 7411   9.613   6.418   9.670 -0.0949 -0.0327 -0.0962
  464loPI   PO4 7412   9.192   6.406   9.244  0.1036 -0.0047  0.1008
  464loPI   GL1 7413   9.223   6.662   8.771  0.0483  0.2203 -0.1819
  464loPI   GL2 7414   9.064   6.938   8.786 -0.1297 -0.1568 -0.1722
  464loPI   C1A 7415   9.325   6.280   8.530 -0.1897  0.1561 -0.3323
  464loPI   C2A 7416   9.161   6.108   8.175  0.0184  0.0320 -0.3198
  464loPI   C3A 7417   9.227   6.046   7.815 -0.1007 -0.0157  0.0658
  464loPI   C4A 7418   9.372   6.135   7.366  0.0869  0.0131 -0.1784
  464loPI   C5A 7419   9.617   6.331   7.075 -0.0284 -0.1542  0.2703
  464loPI   C6A 7420  10.049   6.381   6.933 -0.4719  0.1102  0.0420
  464loPI   C1B 7421   9.146   7.110   8.425 -0.0992 -0.0236  0.0433
  464loPI   C2B 7422   9.278   7.123   7.982 -0.0694  0.2418 -0.3971
  464loPI   C3B 7423   9.280   6.964   7.559 -0.2119  0.0392  0.3236
  464loPI   C4B 7424   9.311   6.738   7.250  0.0113  0.0816  0.1278
  465loPI    C1 7425  15.325  14.200   9.746 -0.0720  0.0046  0.1104
  465loPI    C2 7426  15.096  13.987   9.497 -0.1471  0.0011  0.1819
  465loPI    C3 7427  15.474  13.875   9.566 -0.1613 -0.0630  0.1570
  465loPI   PO4 7428  15.194  14.474   9.625 -0.1776  0.5498 -0.3017
  465loPI   GL1 7429  15.328  14.796   9.379 -0.1217 -0.2837  0.0737
  465loPI   GL2 7430  15.239  14.946   9.077  0.1113  0.0583 -0.1252
  465loPI   C1A 7431  15.212  14.545   8.885 -0.0778  0.1637  0.1641
  465loPI   C2A 7432  15.156  14.563   8.464 -0.2242 -0.0922  0.0271
  465loPI   C3A 7433  14.976  14.754   8.119  0.0812 -0.2092  0.0638
  465loPI   C4A 7434  15.062  15.090   7.851  0.0493  0.2996 -0.1334
  465loPI   C5A 7435  15.402  15.247   7.824  0.0316  0.1221 -0.1868
  465loPI   C6A 7436  15.581  15.518   7.527  0.2697  0.0113  0.3581
  465loPI   C1B 7437  15.070  15.133   8.587  0.2061 -0.3369 -0.1080
  465loPI   C2B 7438  15.169  15.401   8.232  0.1855  0.0964  0.0309
  465loPI   C3B 7439  14.903  15.542   7.903  0.3347 -0.0704 -0.0501
  465loPI   C4B 7440  14.664  15.478   7.525 -0.1308  0.1272  0.0501
  466loPI    C1 7441   5.570  15.232  10.420 -0.2107  0.0695 -0.1746
  466loPI    C2 7442   5.639  15.596  10.569 -0.2241  0.0692 -0.1677
  466loPI    C3 7443   5.934  15.327  10.553 -0.2200  0.0728 -0.1514
  466loPI   PO4 7444   5.417  15.230  10.177  0.0806 -0.0562  0.0790
  466loPI   GL1 7445   5.385  15.234   9.783  0.1356  0.2329 -0.4105
  466loPI   GL2 7446   5.090  15.173   9.753  0.1433 -0.3941  0.4920
  466loPI   C1A 7447   5.704  15.338   9.466  0.0383  0.3210 -0.1563
  466loPI   C2A 7448   5.663  15.454   9.009  0.0470 -0.0289 -0.1177
  466loPI   C3A 7449   5.414  15.567   8.705 -0.0430  0.0239 -0.3234
  466loPI   C4A 7450   5.200  15.403   8.336 -0.1782  0.1455 -0.0530
  466loPI   C5A 7451   4.937  15.130   8.109  0.1283 -0.3875  0.0749
  466loPI   C6A 7452   5.082  15.124   7.719  0.0257  0.1878  0.2776
  466loPI   C1B 7453   4.755  15.236   9.397 -0.0061  0.0232 -0.1897
  466loPI   C2B 7454   4.615  15.104   8.927  0.2061  0.0465  0.1145
  466loPI   C3B 7455   4.387  14.901   8.636  0.0712  0.2514  0.1165
  466loPI   C4B 7456   4.224  14.687   8.352 -0.0486  0.0780  0.3678
  467loPI    C1 7457  18.183   1.942  10.337  0.0029  0.1782  0.2056
  467loPI    C2 7458  17.811   2.057  10.430 -0.1647 -0.1129 -0.0861
  467loPI    C3 7459  17.906   1.668  10.424  0.1261 -0.0448 -0.0898
  467loPI   PO4 7460  18.259   2.067  10.174  0.0735 -0.0996  0.2215
  467loPI   GL1 7461  18.244   2.175   9.751  0.2365  0.0129 -0.5058
  467loPI   GL2 7462  18.136   1.995   9.568 -0.0378  0.1871  0.1334
  467loPI   C1A 7463  18.333   2.402   9.325 -0.0361  0.1920 -0.0611
  467loPI   C2A 7464  18.429   2.350   8.921 -0.3157 -0.3211  0.1852
  467loPI   C3A 7465  18.528   2.155   8.590 -0.1562 -0.2188  0.1672
  467loPI   C4A 7466  18.275   1.968   8.217 -0.0362  0.2595 -0.2090
  467loPI   C5A 7467  18.033   1.981   7.826 -0.0159 -0.0198 -0.1243
  467loPI   C6A 7468  17.831   1.637   7.590  0.0644 -0.2642  0.0107
  467loPI   C1B 7469  17.905   1.931   9.178  0.2259 -0.0776  0.0766
  467loPI   C2B 7470  17.788   2.030   8.692  0.0457 -0.1882 -0.1982
  467loPI   C3B 7471  17.960   2.263   8.515  0.2266  0.2770  0.3607
  467loPI   C4B 7472  18.007   2.406   8.098 -0.1135  0.0654  0.0803
  468loPI    C1 7473   9.891  15.348  10.510  0.0275 -0.1080  0.0597
  468loPI    C2 7474  10.117  15.619  10.700 -0.1385  0.1339 -0.0822
  468loPI    C3 7475   9.720  15.618  10.751 -0.1636  0.0718 -0.2709
  468loPI   PO4 7476  10.036  15.359  10.189 -0.1035  0.0508  0.0142
  468loPI   GL1 7477   9.907  15.448   9.703  0.0056 -0.3214  0.1642
  468loPI   GL2 7478  10.196  15.459   9.689  0.0800 -0.0677 -0.1195
  468loPI   C1A 7479   9.823  15.347   9.292 -0.0545  0.0549 -0.2220
  468loPI   C2A 7480   9.689  15.328   8.851  0.0731  0.2518  0.1672
  468loPI   C3A 7481   9.593  15.262   8.419 -0.1845 -0.0143 -0.1142
  468loPI   C4A 7482   9.528  15.629   8.077 -0.2048 -0.3017  0.1316
  468loPI   C5A 7483   9.479  16.058   7.888 -0.2468  0.0630  0.2140
  468loPI   C6A 7484   9.370  16.320   7.526  0.1922 -0.2546  0.0133
  468loPI   C1B 7485  10.510  15.225   9.279  0.1656  0.0775  0.0920
  468loPI   C2B 7486  10.631  15.221   8.901 -0.1026 -0.4555 -0.0175
  468loPI   C3B 7487  10.642  15.104   8.461 -0.1356 -0.1311  0.1228
  468loPI   C4B 7488  10.558  15.023   8.064 -0.3364 -0.1075  0.1948
  469loPI    C1 7489   0.780   9.049  10.083  0.0369 -0.2041 -0.1503
  469loPI    C2 7490   1.037   9.066  10.389 -0.0143 -0.0686 -0.1140
  469loPI    C3 7491   0.680   8.893  10.437 -0.1430  0.2191 -0.0072
  469loPI   PO4 7492   0.895   9.003   9.903  0.2261 -0.0181  0.3131
  469loPI   GL1 7493   1.033   9.268   9.537 -0.0455  0.4089  0.1380
  469loPI   GL2 7494   1.326   9.165   9.518  0.0394 -0.0367  0.3717
  469loPI   C1A 7495   0.947   9.376   9.078 -0.0357  0.2366  0.0098
  469loPI   C2A 7496   0.742   9.265   8.612  0.0635 -0.1612  0.0512
  469loPI   C3A 7497   0.492   9.509   8.303  0.3068  0.3094  0.0476
  469loPI   C4A 7498   0.434   9.400   7.903  0.3363  0.1123  0.4445
  469loPI   C5A 7499   0.264   9.343   7.518 -0.0721 -0.1599  0.0209
  469loPI   C6A 7500   0.010   9.635   7.455 -0.2254  0.0154 -0.0663
  469loPI   C1B 7501   1.296   8.984   9.168  0.1098 -0.1827  0.5861
  469loPI   C2B 7502   1.290   9.199   8.742 -0.0702  0.3854  0.0176
  469loPI   C3B 7503   1.181   9.308   8.302  0.0475  0.0464  0.1541
  469loPI   C4B 7504   0.994   9.354   7.894 -0.2121  0.0226  0.2879
  470loPI    C1 7505   3.690  10.376  10.012  0.0493 -0.2246  0.0190
  470loPI    C2 7506   3.438  10.110   9.851 -0.1836  0.0645 -0.1015
  470loPI    C3 7507   3.299  10.458   9.992  0.0962  0.0581  0.2011
  470loPI   PO4 7508   3.911  10.249   9.862 -0.0858 -0.1126 -0.3065
  470loPI   GL1 7509   3.844   9.989   9.538 -0.0137  0.0396 -0.3326
  470loPI   GL2 7510   4.131  10.198   9.277 -0.1074  0.1504 -0.1136
  470loPI   C1A 7511   3.732   9.988   9.094  0.1215  0.0428 -0.2359
  470loPI   C2A 7512   3.775   9.970   8.662  0.1126 -0.1608  0.1103
  470loPI   C3A 7513   3.776  10.081   8.218 -0.0260 -0.1717 -0.0257
  470loPI   C4A 7514   3.997  10.056   7.904 -0.2828  0.0347 -0.4243
  470loPI   C5A 7515   4.145   9.882   7.577  0.2827 -0.1135  0.0664
  470loPI   C6A 7516   3.960   9.656   7.228  0.0565  0.0869  0.1659
  470loPI   C1B 7517   4.234  10.237   8.854  0.2985 -0.0365 -0.2925
  470loPI   C2B 7518   4.191  10.425   8.464 -0.0622 -0.2627  0.0677
  470loPI   C3B 7519   4.352  10.488   8.110  0.0541  0.0041 -0.1266
  470loPI   C4B 7520   4.353  10.328   7.690  0.1703  0.0896  0.0730
  471loPI    C1 7521  17.771  16.862  10.194 -0.0778 -0.1241 -0.0202
  471loPI    C2 7522  17.996  16.834  10.524 -0.0948 -0.0695 -0.0038
  471loPI    C3 7523  17.640  16.652  10.508 -0.1421  0.0176  0.0487
  471loPI   PO4 7524  17.935  16.769   9.917  0.2135  0.1771  0.0557
  471loPI   GL1 7525  18.252  16.929   9.675  0.2527 -0.0335 -0.2818
  471loPI   GL2 7526  18.161  17.298   9.786 -0.0610 -0.0381 -0.0277
  471loPI   C1A 7527  18.538  16.830   9.429  0.1014 -0.0748  0.0995
  471loPI   C2A 7528  18.423  16.727   8.967 -0.1849 -0.3431 -0.0255
  471loPI   C3A 7529  18.202  16.553   8.559 -0.3595 -0.2539 -0.1527
  471loPI   C4A 7530  18.281  16.705   8.190  0.1662  0.1314  0.2391
  471loPI   C5A 7531  18.141  16.614   7.760  0.2967 -0.1747  0.1392
  471loPI   C6A 7532  18.222  16.737   7.346  0.2703 -0.2636  0.0333
  471loPI   C1B 7533  18.177  17.265   9.280  0.0561  0.1718 -0.1389
  471loPI   C2B 7534  18.318  17.362   8.894  0.1565 -0.3233  0.1078
  471loPI   C3B 7535  18.616  17.447   8.696 -0.2797 -0.1976 -0.0210
  471loPI   C4B 7536  18.695  17.390   8.357  0.4086  0.0021  0.0394
  472loPI    C1 7537  12.807   8.847   9.918 -0.0608  0.0122  0.1058
  472loPI    C2 7538  12.871   9.184  10.124 -0.0056  0.0101  0.0925
  472loPI    C3 7539  12.504   9.024  10.111 -0.0639  0.1507 -0.0244
  472loPI   PO4 7540  12.924   8.852   9.669  0.1823 -0.2396  0.1711
  472loPI   GL1 7541  13.024   8.535   9.341 -0.1806  0.0700  0.0461
  472loPI   GL2 7542  12.693   8.622   9.211 -0.0855  0.0133 -0.1408
  472loPI   C1A 7543  13.104   8.565   8.964  0.1811  0.1983 -0.0187
  472loPI   C2A 7544  13.033   8.560   8.516 -0.0346  0.1390 -0.0271
  472loPI   C3A 7545  13.014   8.496   8.086 -0.1534  0.0893 -0.0966
  472loPI   C4A 7546  12.993   8.231   7.643  0.1480 -0.1395  0.0323
  472loPI   C5A 7547  13.297   7.984   7.409  0.1102  0.0435  0.1053
  472loPI   C6A 7548  13.660   7.645   7.208 -0.2449  0.2490  0.0168
  472loPI   C1B 7549  12.664   8.766   8.738 -0.1306  0.0416 -0.2976
  472loPI   C2B 7550  12.552   8.850   8.314  0.0240 -0.4235  0.3423
  472loPI   C3B 7551  12.414   8.632   7.955 -0.3965  0.3658  0.0055
  472loPI   C4B 7552  12.208   8.689   7.508 -0.0871 -0.0021  0.1880
  473loPI    C1 7553  15.737   5.708  10.392 -0.0308 -0.0392  0.0627
  473loPI    C2 7554  15.903   5.344  10.384 -0.2471 -0.1399  0.1017
  473loPI    C3 7555  15.676   5.453  10.694 -0.3297 -0.0375  0.0061
  473loPI   PO4 7556  16.006   5.828  10.316 -0.0981 -0.0781  0.0837
  473loPI   GL1 7557  16.324   5.996   9.938  0.1252 -0.0584  0.2752
  473loPI   GL2 7558  16.400   5.696   9.991  0.0895 -0.0163  0.3323
  473loPI   C1A 7559  16.446   6.102   9.478  0.3448 -0.1654  0.0402
  473loPI   C2A 7560  16.425   6.130   9.007  0.0271  0.0329  0.1038
  473loPI   C3A 7561  16.530   6.261   8.611 -0.3881 -0.1591  0.1209
  473loPI   C4A 7562  16.459   6.353   8.169 -0.2052 -0.2742  0.2135
  473loPI   C5A 7563  16.367   6.265   7.610  0.0859 -0.0622 -0.0828
  473loPI   C6A 7564  16.077   5.999   7.454  0.2293 -0.0791 -0.3620
  473loPI   C1B 7565  16.567   5.611   9.592  0.1029 -0.5717 -0.0496
  473loPI   C2B 7566  16.754   5.647   9.148 -0.0408  0.2655 -0.1206
  473loPI   C3B 7567  16.629   5.767   8.765  0.2268  0.3187  0.0724
  473loPI   C4B 7568  16.405   5.903   8.308 -0.1103 -0.2626 -0.1637
  474loPI    C1 7569   3.626  15.614   9.995 -0.0960  0.0032 -0.1262
  474loPI    C2 7570   3.275  15.423  10.027 -0.0180 -0.1015  0.1264
  474loPI    C3 7571   3.515  15.456  10.346  0.1659  0.0414 -0.0244
  474loPI   PO4 7572   3.667  15.479   9.706  0.2747 -0.0908  0.0003
  474loPI   GL1 7573   3.741  15.223   9.373 -0.0397 -0.1379 -0.5322
  474loPI   GL2 7574   3.490  15.060   9.212  0.0578 -0.2913 -0.2179
  474loPI   C1A 7575   3.929  15.216   8.994  0.1339  0.4057  0.1475
  474loPI   C2A 7576   3.962  15.064   8.521  0.1255 -0.0758  0.2701
  474loPI   C3A 7577   4.000  15.049   8.135 -0.0069  0.0452  0.1902
  474loPI   C4A 7578   4.208  15.350   7.845  0.0222  0.0617 -0.0503
  474loPI   C5A 7579   4.277  15.527   7.448 -0.1648 -0.1361  0.1611
  474loPI   C6A 7580   4.499  15.389   7.047 -0.2412  0.2741  0.3562
  474loPI   C1B 7581   3.547  14.965   8.787  0.1303 -0.0420  0.0132
  474loPI   C2B 7582   3.595  14.660   8.443 -0.4689 -0.2993 -0.3152
  474loPI   C3B 7583   3.735  14.634   8.044 -0.0013  0.2595  0.0960
  474loPI   C4B 7584   4.189  14.563   7.882  0.1180 -0.1504  0.2939
  475loPI    C1 7585  16.070  18.333  10.042  0.2509  0.1320 -0.1098
  475loPI    C2 7586  16.169  18.698  10.173 -0.0307  0.1814 -0.0278
  475loPI    C3 7587  16.124  18.397  10.433 -0.1726  0.1794 -0.0537
  475loPI   PO4 7588  15.832  18.416   9.935  0.3311 -0.3472  0.0097
  475loPI   GL1 7589  15.432  18.360   9.624  0.2234  0.1825 -0.1762
  475loPI   GL2 7590  15.480  18.017   9.569  0.3734  0.0882  0.0078
  475loPI   C1A 7591  15.658  18.684   9.379  0.3250 -0.2944 -0.3203
  475loPI   C2A 7592  15.769  18.581   8.991  0.0306  0.0879 -0.0916
  475loPI   C3A 7593  15.748  18.675   8.646 -0.1299  0.2853  0.2246
  475loPI   C4A 7594  15.855  18.580   8.230  0.0304  0.0588  0.1504
  475loPI   C5A 7595  15.921  18.447   7.762 -0.1506 -0.1109  0.1195
  475loPI   C6A 7596  15.998  18.613   7.308 -0.1721 -0.1868 -0.0195
  475loPI   C1B 7597  15.386  18.160   9.189  0.2574  0.0430 -0.1725
  475loPI   C2B 7598  15.595  18.192   8.792  0.3956 -0.0152  0.1523
  475loPI   C3B 7599  15.751  18.096   8.408 -0.2865 -0.0199 -0.2086
  475loPI   C4B 7600  15.716  18.018   8.026  0.0645 -0.1597  0.0212
  476loPI    C1 7601  12.324  15.117   9.654  0.3766 -0.2949  0.1359
  476loPI    C2 7602  12.440  14.759   9.791  0.0362 -0.3859  0.1951
  476loPI    C3 7603  12.296  15.033  10.044  0.1820 -0.2497  0.1323
  476loPI   PO4 7604  12.273  15.106   9.436  0.0465 -0.1295  0.1328
  476loPI   GL1 7605  12.327  15.128   9.075  0.0194  0.0060 -0.2471
  476loPI   GL2 7606  12.513  14.951   9.029  0.1430 -0.0953  0.0601
  476loPI   C1A 7607  12.360  14.894   8.594 -0.0051  0.4375  0.1734
  476loPI   C2A 7608  12.334  14.756   8.169 -0.0613  0.0024  0.5490
  476loPI   C3A 7609  12.087  14.709   7.831 -0.0179 -0.2050 -0.2363
  476loPI   C4A 7610  12.162  14.735   7.466 -0.0876 -0.0235 -0.3264
  476loPI   C5A 7611  12.253  15.057   7.161 -0.0154 -0.2334  0.0814
  476loPI   C6A 7612  12.099  15.255   6.765  0.1748  0.0447  0.0137
  476loPI   C1B 7613  12.761  15.138   8.738 -0.1193  0.0939  0.2943
  476loPI   C2B 7614  12.862  15.011   8.389 -0.3394 -0.4396  0.1067
  476loPI   C3B 7615  12.953  15.051   7.910 -0.3202  0.0812  0.1758
  476loPI   C4B 7616  13.181  14.793   7.511  0.0661 -0.2306  0.0010
  477loPI    C1 7617   3.103   0.635   9.592  0.1703  0.1007 -0.0178
  477loPI    C2 7618   2.935   0.283   9.506  0.1055  0.0916  0.1425
  477loPI    C3 7619   2.898   0.589   9.251 -0.0491  0.0537  0.1182
  477loPI   PO4 7620   2.884   0.733   9.810  0.1107 -0.1551  0.0044
  477loPI   GL1 7621   2.482   0.731   9.569 -0.3062 -0.0483  0.1037
  477loPI   GL2 7622   2.501   0.449   9.606 -0.4209 -0.2149 -0.3135
  477loPI   C1A 7623   2.489   0.876   9.110 -0.0024 -0.0913 -0.1051
  477loPI   C2A 7624   2.460   0.980   8.709 -0.0095  0.0627 -0.3440
  477loPI   C3A 7625   2.456   0.869   8.287 -0.1820  0.1660 -0.2044
  477loPI   C4A 7626   2.257   0.690   7.995 -0.3202  0.0679 -0.0390
  477loPI   C5A 7627   1.899   0.556   7.870 -0.0726  0.2265  0.0697
  477loPI   C6A 7628   1.649   0.610   7.532 -0.1238 -0.2162 -0.0439
  477loPI   C1B 7629   2.511   0.310   9.236 -0.2435  0.0472  0.3284
  477loPI   C2B 7630   2.593   0.429   8.816 -0.2980 -0.3063  0.3614
  477loPI   C3B 7631   2.502   0.358   8.375  0.2111 -0.0120  0.1152
  477loPI   C4B 7632   2.215   0.203   8.023  0.0220 -0.0246 -0.2287
  478loPI    C1 7633   5.919   0.263  10.018 -0.0338 -0.0758 -0.0274
  478loPI    C2 7634   5.800  -0.024  10.270  0.2235  0.0544  0.2493
  478loPI    C3 7635   6.140  -0.068  10.063 -0.0104 -0.0731 -0.1197
  478loPI   PO4 7636   5.687   0.306   9.903 -0.3846  0.3556  0.0429
  478loPI   GL1 7637   5.562   0.425   9.526 -0.0285 -0.4689 -0.0126
  478loPI   GL2 7638   5.480   0.696   9.624  0.2603  0.0478  0.1662
  478loPI   C1A 7639   5.803   0.505   9.205 -0.2393 -0.1736 -0.0009
  478loPI   C2A 7640   5.998   0.571   8.799 -0.1779  0.0002 -0.1810
  478loPI   C3A 7641   6.056   0.465   8.361 -0.0185  0.0196 -0.2321
  478loPI   C4A 7642   5.921   0.384   7.974 -0.0041 -0.1293  0.0595
  478loPI   C5A 7643   5.731   0.212   7.691  0.0156 -0.1496  0.1358
  478loPI   C6A 7644   5.364   0.010   7.613 -0.3333  0.1470 -0.2039
  478loPI   C1B 7645   5.195   0.626   9.284 -0.2064 -0.0682  0.2739
  478loPI   C2B 7646   5.065   0.691   8.827 -0.1444 -0.0124 -0.0707
  478loPI   C3B 7647   4.680   0.705   8.484 -0.3848  0.2641 -0.1692
  478loPI   C4B 7648   4.315   0.680   8.464 -0.3064  0.2920 -0.2282
  479loPI    C1 7649  14.623   0.657   9.898 -0.2095  0.1006  0.0572
  479loPI    C2 7650  14.624   0.997  10.109 -0.0548  0.0730  0.1021
  479loPI    C3 7651  14.625   1.010   9.710  0.2681  0.1285  0.1024
  479loPI   PO4 7652  14.855   0.484   9.863 -0.1367 -0.2088  0.2326
  479loPI   GL1 7653  14.980   0.240   9.556  0.0685 -0.1832  0.1032
  479loPI   GL2 7654  14.807  -0.007   9.458  0.1938  0.3453 -0.0194
  479loPI   C1A 7655  15.254   0.412   9.238  0.1768 -0.0893 -0.1527
  479loPI   C2A 7656  15.525   0.515   8.835 -0.0237  0.0861  0.0360
  479loPI   C3A 7657  15.433   0.250   8.494 -0.0730 -0.1786 -0.2492
  479loPI   C4A 7658  15.522  -0.096   8.197 -0.1565 -0.0270 -0.0612
  479loPI   C5A 7659  15.752  -0.122   7.787  0.1923 -0.0921 -0.1491
  479loPI   C6A 7660  15.891   0.114   7.460 -0.1225 -0.1475 -0.1940
  479loPI   C1B 7661  14.783   0.204   9.070 -0.1290 -0.0392 -0.0947
  479loPI   C2B 7662  14.955   0.329   8.816 -0.2281 -0.1582  0.1417
  479loPI   C3B 7663  14.992   0.551   8.470  0.3817 -0.1544 -0.1208
  479loPI   C4B 7664  15.187   0.359   8.095  0.0803  0.2816  0.2394
  480loPI    C1 7665  10.061  15.845  10.290  0.1375 -0.1084 -0.1826
  480loPI    C2 7666  10.425  15.737  10.166  0.1106 -0.0466 -0.3167
  480loPI    C3 7667  10.386  15.999  10.465  0.1759 -0.2783 -0.1017
  480loPI   PO4 7668   9.908  15.934   9.997  0.0857 -0.2023  0.1547
  480loPI   GL1 7669   9.948  15.992   9.629  0.2525  0.2036 -0.0530
  480loPI   GL2 7670   9.804  15.843   9.436  0.2211  0.1379 -0.3137
  480loPI   C1A 7671  10.042  16.135   9.134 -0.1525 -0.1127 -0.4602
  480loPI   C2A 7672  10.025  16.170   8.671  0.1168 -0.4372  0.5415
  480loPI   C3A 7673   9.884  16.138   8.193 -0.0535  0.1103 -0.1996
  480loPI   C4A 7674   9.837  16.420   7.791 -0.0036  0.1136  0.2052
  480loPI   C5A 7675   9.917  16.809   7.410 -0.0915  0.0373  0.0744
  480loPI   C6A 7676   9.757  17.035   7.038 -0.0346  0.0174 -0.0178
  480loPI   C1B 7677   9.688  15.774   9.026  0.3672 -0.0472  0.0183
  480loPI   C2B 7678   9.696  15.795   8.509  0.2849 -0.4169  0.2655
  480loPI   C3B 7679   9.419  16.184   8.358 -0.1859  0.1863  0.1636
  480loPI   C4B 7680   9.238  16.558   8.651 -0.3187  0.1375 -0.3654
  481loPI    C1 7681  15.669   1.664  10.009 -0.2567 -0.0470 -0.0360
  481loPI    C2 7682  15.871   1.443  10.275  0.2972  0.1777 -0.2528
  481loPI    C3 7683  15.586   1.695  10.399  0.0232 -0.2640  0.0444
  481loPI   PO4 7684  15.577   1.482   9.878  0.1777  0.3233 -0.3512
  481loPI   GL1 7685  15.787   1.451   9.482 -0.1011  0.0073  0.0629
  481loPI   GL2 7686  15.446   1.550   9.376 -0.0527  0.1800 -0.1417
  481loPI   C1A 7687  15.856   1.156   9.166  0.1250 -0.2434  0.2039
  481loPI   C2A 7688  15.614   1.085   8.724 -0.2472 -0.1698  0.4004
  481loPI   C3A 7689  15.473   0.785   8.291 -0.1442  0.1000 -0.1433
  481loPI   C4A 7690  15.705   0.449   7.997 -0.1016 -0.0738 -0.0258
  481loPI   C5A 7691  15.537   0.377   7.628  0.0885  0.3111  0.0317
  481loPI   C6A 7692  15.521   0.353   7.193 -0.0121  0.1672 -0.0042
  481loPI   C1B 7693  15.298   1.393   9.043 -0.0568  0.1168 -0.0503
  481loPI   C2B 7694  15.035   1.439   8.586  0.1134  0.0210 -0.1934
  481loPI   C3B 7695  14.596   1.349   8.397  0.0550  0.0631  0.0816
  481loPI   C4B 7696  14.529   1.167   8.060  0.0178  0.0235 -0.4516
  482loPI    C1 7697   1.947   0.563  10.056  0.3243 -0.1782  0.2356
  482loPI    C2 7698   2.114   0.894   9.906  0.2965 -0.2804 -0.0264
  482loPI    C3 7699   2.063   0.857  10.301  0.1229  0.1097 -0.0070
  482loPI   PO4 7700   2.100   0.388   9.924 -0.4275 -0.0647 -0.0775
  482loPI   GL1 7701   2.010   0.245   9.417 -0.0238 -0.1962  0.1989
  482loPI   GL2 7702   2.090   0.597   9.398  0.4428 -0.2994  0.1866
  482loPI   C1A 7703   1.627   0.603   9.200  0.0575 -0.0974 -0.0113
  482loPI   C2A 7704   1.574   0.591   8.722  0.1623  0.5245 -0.3066
  482loPI   C3A 7705   1.366   0.684   8.335  0.0297  0.1952  0.0116
  482loPI   C4A 7706   1.316   0.417   7.903  0.0793 -0.0126 -0.2318
  482loPI   C5A 7707   1.454   0.142   7.557 -0.2021  0.0238 -0.0696
  482loPI   C6A 7708   1.909   0.112   7.532  0.0785 -0.5404  0.2142
  482loPI   C1B 7709   2.117   0.373   8.937  0.1082 -0.1888  0.2212
  482loPI   C2B 7710   1.979   0.280   8.512 -0.3219  0.2847  0.4055
  482loPI   C3B 7711   1.660   0.137   8.319  0.0248  0.1506  0.1676
  482loPI   C4B 7712   1.720   0.001   7.936 -0.0835 -0.0160 -0.0887
  483loPI    C1 7713   1.067   1.577   9.816 -0.1592 -0.1408 -0.0469
  483loPI    C2 7714   1.356   1.304   9.776 -0.2256 -0.1968 -0.1479
  483loPI    C3 7715   1.335   1.525  10.109  0.0434 -0.0642 -0.2164
  483loPI   PO4 7716   0.847   1.491   9.758  0.1833  0.1783  0.0335
  483loPI   GL1 7717   0.633   1.417   9.385 -0.1140  0.0827  0.0455
  483loPI   GL2 7718   0.868   1.448   9.216 -0.2085 -0.0304 -0.1739
  483loPI   C1A 7719   0.306   1.369   9.066  0.0930  0.0954  0.0883
  483loPI   C2A 7720  -0.016   1.306   8.750 -0.0458  0.3708 -0.2655
  483loPI   C3A 7721  -0.356   1.199   8.384 -0.3821 -0.0521 -0.0109
  483loPI   C4A 7722  -0.618   1.023   8.010 -0.0201  0.1484 -0.1934
  483loPI   C5A 7723  -0.728   0.599   7.772  0.0731 -0.1266 -0.1124
  483loPI   C6A 7724  -1.073   0.353   7.951 -0.0128  0.3006  0.1471
  483loPI   C1B 7725   0.799   1.436   8.794  0.1924 -0.2534  0.3516
  483loPI   C2B 7726   0.706   1.516   8.348  0.1031  0.2388 -0.0657
  483loPI   C3B 7727   0.672   1.290   7.974 -0.1555 -0.2503  0.3032
  483loPI   C4B 7728   0.581   1.059   7.632  0.2112 -0.2096  0.0957
  484loPI    C1 7729   7.762   1.687  10.050 -0.2074  0.0882  0.0804
  484loPI    C2 7730   7.484   1.483  10.252 -0.1112 -0.0302  0.0946
  484loPI    C3 7731   7.867   1.369  10.269 -0.0904  0.0087 -0.0890
  484loPI   PO4 7732   7.637   1.767   9.878 -0.0474 -0.2367 -0.1022
  484loPI   GL1 7733   7.724   1.750   9.458  0.1954 -0.2492  0.0329
  484loPI   GL2 7734   7.903   1.575   9.268 -0.1369  0.3248  0.2516
  484loPI   C1A 7735   7.559   1.904   9.072 -0.4127 -0.0860 -0.2107
  484loPI   C2A 7736   7.323   1.900   8.677  0.0064 -0.1800  0.0454
  484loPI   C3A 7737   7.419   1.693   8.343  0.1833 -0.2961 -0.0422
  484loPI   C4A 7738   7.529   1.583   7.870 -0.2201  0.0201 -0.4559
  484loPI   C5A 7739   7.897   1.496   7.591 -0.3643 -0.1044 -0.4291
  484loPI   C6A 7740   8.141   1.170   7.384 -0.0056  0.0522  0.0613
  484loPI   C1B 7741   7.891   1.691   8.782 -0.1422 -0.3010  0.2256
  484loPI   C2B 7742   7.967   1.791   8.445  0.0337  0.0401  0.0036
  484loPI   C3B 7743   7.981   1.927   8.011  0.1077 -0.2131  0.1602
  484loPI   C4B 7744   8.173   2.069   7.685 -0.4417 -0.0878 -0.0448
  485loPI    C1 7745  12.948   4.181   9.533 -0.2014 -0.1814  0.1081
  485loPI    C2 7746  13.067   4.142   9.913 -0.1936 -0.0628  0.1181
  485loPI    C3 7747  12.677   4.145   9.824 -0.1948 -0.1290  0.1209
  485loPI   PO4 7748  13.195   4.318   9.461  0.4311 -0.2062 -0.0158
  485loPI   GL1 7749  13.309   4.251   9.060 -0.3283  0.0611  0.0294
  485loPI   GL2 7750  13.181   3.946   9.085  0.0076  0.1558  0.1008
  485loPI   C1A 7751  13.326   4.179   8.534  0.0306 -0.1377 -0.1881
  485loPI   C2A 7752  13.337   4.259   8.078 -0.2740 -0.0863  0.0624
  485loPI   C3A 7753  13.579   4.569   7.717  0.0062  0.0348 -0.0014
  485loPI   C4A 7754  13.444   4.980   7.663  0.3114 -0.1001  0.1594
  485loPI   C5A 7755  13.638   5.425   7.452  0.0582 -0.1641 -0.3420
  485loPI   C6A 7756  13.821   5.767   7.266  0.1209 -0.0725  0.1421
  485loPI   C1B 7757  13.394   3.726   8.889 -0.1640  0.0356  0.1036
  485loPI   C2B 7758  13.509   3.738   8.450 -0.1395  0.0193  0.1261
  485loPI   C3B 7759  13.636   3.875   8.131 -0.1534  0.0248  0.0838
  485loPI   C4B 7760  13.597   4.020   7.727  0.1995 -0.0491 -0.0970
  486loPI    C1 7761   8.736   6.519   9.652 -0.2082  0.1233  0.0778
  486loPI    C2 7762   9.000   6.290   9.846 -0.1680  0.0519 -0.0597
  486loPI    C3 7763   8.996   6.686   9.905 -0.1466  0.0323  0.0750
  486loPI   PO4 7764   8.674   6.365   9.396  0.1071  0.0401 -0.0686
  486loPI   GL1 7765   8.664   6.637   8.944 -0.2782 -0.2180 -0.2657
  486loPI   GL2 7766   8.574   6.900   8.854 -0.2096 -0.0435 -0.1413
  486loPI   C1A 7767   8.307   6.515   8.668 -0.1449  0.1746 -0.2236
  486loPI   C2A 7768   8.119   6.569   8.224  0.2492  0.5329 -0.2394
  486loPI   C3A 7769   7.921   6.515   7.796  0.1284 -0.0563 -0.0820
  486loPI   C4A 7770   7.844   6.213   7.567  0.0985 -0.0658 -0.0330
  486loPI   C5A 7771   7.783   6.218   7.149  0.3102 -0.0461 -0.2130
  486loPI   C6A 7772   7.877   6.207   6.680 -0.1321 -0.0775 -0.1519
  486loPI   C1B 7773   8.709   6.816   8.445  0.1490 -0.3549 -0.2870
  486loPI   C2B 7774   8.807   6.982   8.125 -0.0988  0.1424  0.0210
  486loPI   C3B 7775   8.798   6.970   7.680  0.4018  0.2009 -0.4036
  486loPI   C4B 7776   8.641   7.269   7.362  0.0503 -0.2687 -0.1097
  487loPI    C1 7777  15.841  17.577  10.102  0.1574  0.0968 -0.1705
  487loPI    C2 7778  15.556  17.587  10.382  0.1284  0.0506 -0.1981
  487loPI    C3 7779  15.623  17.250  10.176  0.1614  0.0791 -0.2345
  487loPI   PO4 7780  15.761  17.818   9.994 -0.3236 -0.0636 -0.2599
  487loPI   GL1 7781  15.980  18.048   9.637 -0.1568 -0.0774  0.0251
  487loPI   GL2 7782  16.039  17.749   9.604 -0.1887 -0.2555  0.1211
  487loPI   C1A 7783  15.928  18.173   9.219  0.0799  0.1489 -0.0548
  487loPI   C2A 7784  16.096  18.255   8.742  0.1168 -0.0769  0.0282
  487loPI   C3A 7785  16.249  18.290   8.333 -0.1619  0.2965 -0.0091
  487loPI   C4A 7786  16.369  18.456   7.988  0.1569  0.0437  0.0006
  487loPI   C5A 7787  16.694  18.507   7.710 -0.0523 -0.0342  0.2302
  487loPI   C6A 7788  16.979  18.660   7.431  0.0671  0.5087  0.2077
  487loPI   C1B 7789  16.200  17.606   9.212 -0.1579  0.0238 -0.2987
  487loPI   C2B 7790  16.606  17.465   9.146 -0.3712  0.2833 -0.0543
  487loPI   C3B 7791  16.890  17.495   8.730 -0.0087  0.2052  0.0427
  487loPI   C4B 7792  16.943  17.615   8.261  0.2774  0.0680 -0.2461
  488loPI    C1 7793   8.146   5.154  10.005 -0.0508 -0.0084 -0.1613
  488loPI    C2 7794   7.779   5.312  10.017 -0.0593 -0.0394  0.0260
  488loPI    C3 7795   8.049   5.416  10.292  0.0374 -0.1032 -0.0441
  488loPI   PO4 7796   8.109   5.136   9.728 -0.0519 -0.1607  0.2768
  488loPI   GL1 7797   7.725   5.366   9.489  0.2159  0.0369 -0.1209
  488loPI   GL2 7798   7.487   5.232   9.455  0.1701  0.3046  0.3729
  488loPI   C1A 7799   7.812   5.180   9.054  0.0410 -0.0579  0.0812
  488loPI   C2A 7800   7.899   5.207   8.593  0.1767 -0.1616 -0.0361
  488loPI   C3A 7801   8.154   5.101   8.276 -0.3227 -0.0917 -0.1707
  488loPI   C4A 7802   8.239   5.140   7.837  0.2845 -0.2189  0.3249
  488loPI   C5A 7803   8.360   5.469   7.470 -0.2658 -0.1342  0.0189
  488loPI   C6A 7804   8.274   5.384   6.992 -0.1633  0.0676  0.2757
  488loPI   C1B 7805   7.421   5.474   9.043 -0.1137  0.1112  0.1551
  488loPI   C2B 7806   7.405   5.379   8.573  0.1861  0.1108  0.2331
  488loPI   C3B 7807   7.307   5.128   8.275  0.2267  0.2249  0.1817
  488loPI   C4B 7808   7.125   4.920   7.931  0.1559  0.2636 -0.2345
  489loPI    C1 7809  14.432   1.491  10.108 -0.2179 -0.2227  0.0730
  489loPI    C2 7810  14.635   1.739  10.349 -0.0521 -0.1630 -0.1253
  489loPI    C3 7811  14.346   1.507  10.499 -0.1139  0.0477  0.0875
  489loPI   PO4 7812  14.644   1.434   9.959 -0.3385  0.0836 -0.0502
  489loPI   GL1 7813  14.572   1.479   9.512  0.0872  0.2357 -0.0305
  489loPI   GL2 7814  14.822   1.752   9.277  0.3386 -0.0589 -0.1778
  489loPI   C1A 7815  14.673   1.194   9.143  0.3919  0.1247  0.1970
  489loPI   C2A 7816  14.260   0.897   9.141  0.1918  0.1024  0.1288
  489loPI   C3A 7817  14.108   0.696   8.739  0.4963 -0.4597 -0.2240
  489loPI   C4A 7818  14.108   0.575   8.335 -0.0769  0.0485  0.0537
  489loPI   C5A 7819  14.045   0.464   7.859  0.2496  0.0108  0.4828
  489loPI   C6A 7820  13.843   0.343   7.474 -0.4196 -0.1002 -0.0795
  489loPI   C1B 7821  14.629   1.647   8.831  0.1421 -0.1120 -0.3891
  489loPI   C2B 7822  14.359   1.712   8.598  0.2044  0.0547 -0.4500
  489loPI   C3B 7823  14.257   1.564   8.141  0.2274  0.3266  0.1599
  489loPI   C4B 7824  14.257   1.730   7.737 -0.0769  0.1457  0.0579
  490loPI    C1 7825   6.072   1.104  10.004  0.2950 -0.1910  0.1560
  490loPI    C2 7826   6.142   1.410  10.251 -0.1112 -0.0259  0.0734
  490loPI    C3 7827   6.072   1.046  10.399 -0.0903  0.0180  0.1920
  490loPI   PO4 7828   5.835   1.260   9.784  0.0611  0.0417 -0.1225
  490loPI   GL1 7829   5.685   1.392   9.462 -0.0040  0.0453  0.0387
  490loPI   GL2 7830   5.972   1.567   9.339 -0.0995  0.0116 -0.4241
  490loPI   C1A 7831   5.630   1.004   9.257  0.1743 -0.2321  0.0633
  490loPI   C2A 7832   5.578   0.795   8.851  0.2341  0.1931 -0.0798
  490loPI   C3A 7833   5.239   0.909   8.414 -0.4578 -0.1245  0.1290
  490loPI   C4A 7834   5.526   0.751   7.992 -0.0453 -0.3120 -0.0310
  490loPI   C5A 7835   5.942   0.783   7.716  0.5383 -0.0697 -0.2416
  490loPI   C6A 7836   5.989   0.769   7.364 -0.1391  0.0552  0.1553
  490loPI   C1B 7837   5.910   1.401   8.916  0.1194  0.0555 -0.1626
  490loPI   C2B 7838   5.578   1.264   8.658  0.2006  0.3015 -0.3822
  490loPI   C3B 7839   5.457   1.360   8.196  0.1242 -0.2203  0.0468
  490loPI   C4B 7840   5.433   1.396   7.781  0.3387 -0.0795 -0.2457
  491loPI    C1 7841   4.470   4.320   9.960  0.0060  0.0458 -0.1465
  491loPI    C2 7842   4.106   4.396  10.108  0.0948  0.1972 -0.0026
  491loPI    C3 7843   4.276   4.040  10.170 -0.0599  0.0990 -0.1360
  491loPI   PO4 7844   4.507   4.384   9.627  0.1513  0.1442 -0.0070
  491loPI   GL1 7845   4.473   4.276   9.173 -0.1728 -0.0109  0.2103
  491loPI   GL2 7846   4.603   4.511   9.113  0.2925 -0.2629  0.2274
  491loPI   C1A 7847   4.322   4.121   8.743  0.0036 -0.0101  0.0654
  491loPI   C2A 7848   4.353   4.216   8.301 -0.4094 -0.1707  0.0929
  491loPI   C3A 7849   4.350   4.314   7.938  0.1455 -0.0694 -0.1692
  491loPI   C4A 7850   4.203   4.173   7.510  0.0647  0.3494 -0.0766
  491loPI   C5A 7851   4.606   4.042   7.361 -0.2273 -0.2503  0.2101
  491loPI   C6A 7852   4.928   3.796   7.143 -0.3335 -0.4340 -0.0021
  491loPI   C1B 7853   4.558   4.560   8.664  0.2109 -0.1073  0.1218
  491loPI   C2B 7854   4.756   4.599   8.292 -0.2337  0.0929 -0.2592
  491loPI   C3B 7855   5.026   4.846   8.004  0.0906 -0.2165  0.0324
  491loPI   C4B 7856   5.089   5.133   7.651  0.1206 -0.0860  0.1837
  492loPI    C1 7857   7.331   2.513   9.938 -0.0337  0.0207 -0.1351
  492loPI    C2 7858   7.484   2.290  10.233  0.1230  0.2398 -0.0474
  492loPI    C3 7859   7.098   2.395  10.241  0.0009 -0.1782 -0.1850
  492loPI   PO4 7860   7.417   2.725   9.863  0.1749 -0.2801 -0.0880
  492loPI   GL1 7861   7.669   2.810   9.573 -0.1229 -0.0220  0.0732
  492loPI   GL2 7862   8.015   2.916   9.632  0.2098 -0.1067 -0.0426
  492loPI   C1A 7863   7.492   2.922   9.168 -0.0376 -0.1978 -0.1004
  492loPI   C2A 7864   7.539   3.016   8.739  0.2448  0.1632 -0.1847
  492loPI   C3A 7865   7.378   3.037   8.379  0.0383 -0.1853  0.1709
  492loPI   C4A 7866   7.468   2.723   8.077  0.1069 -0.2035  0.0118
  492loPI   C5A 7867   7.504   2.477   7.829  0.0663  0.2826 -0.2202
  492loPI   C6A 7868   7.664   2.099   7.646 -0.0996 -0.0941  0.3363
  492loPI   C1B 7869   7.986   3.021   9.256 -0.0739  0.0680 -0.3309
  492loPI   C2B 7870   7.964   2.840   8.909 -0.2608  0.2984 -0.2234
  492loPI   C3B 7871   8.230   2.823   8.637 -0.4711  0.0736  0.1758
  492loPI   C4B 7872   8.531   2.668   8.298  0.3737  0.1961  0.1088
  493loPI    C1 7873  11.621  16.380   9.872 -0.0487 -0.2215  0.0142
  493loPI    C2 7874  12.008  16.336   9.963 -0.0115  0.1523  0.0510
  493loPI    C3 7875  11.727  16.262  10.239  0.0463  0.1340  0.1051
  493loPI   PO4 7876  11.517  16.668   9.811 -0.1408  0.1411  0.0629
  493loPI   GL1 7877  11.283  16.813   9.539 -0.0091  0.0568  0.1038
  493loPI   GL2 7878  11.198  16.497   9.461 -0.1019  0.0962  0.0355
  493loPI   C1A 7879  11.387  16.879   9.114  0.0952  0.0697  0.0371
  493loPI   C2A 7880  11.398  16.908   8.701  0.2017  0.0910 -0.0260
  493loPI   C3A 7881  11.284  17.084   8.200 -0.1917 -0.4031 -0.1512
  493loPI   C4A 7882  11.456  17.225   7.807 -0.2532  0.2573 -0.1238
  493loPI   C5A 7883  11.425  17.464   7.446  0.1659  0.0695  0.2925
  493loPI   C6A 7884  11.366  17.698   7.114  0.1123 -0.2105  0.1371
  493loPI   C1B 7885  11.117  16.207   9.183  0.0186 -0.0773  0.3373
  493loPI   C2B 7886  11.123  16.206   8.766  0.0560 -0.1735 -0.0467
  493loPI   C3B 7887  10.894  16.132   8.477  0.0249  0.1022  0.0774
  493loPI   C4B 7888  10.839  15.982   8.009  0.0901  0.2420 -0.2416
  494loPI    C1 7889  12.880  18.989  10.240 -0.1254  0.1882 -0.1631
  494loPI    C2 7890  12.614  19.062  10.529  0.0877 -0.2163  0.1472
  494loPI    C3 7891  13.004  19.048  10.616  0.1795 -0.0609 -0.2204
  494loPI   PO4 7892  12.800  18.780  10.125  0.0556  0.0667  0.0327
  494loPI   GL1 7893  12.681  18.693   9.758  0.1197 -0.3112 -0.0698
  494loPI   GL2 7894  12.956  18.568   9.654  0.0942 -0.1463 -0.1311
  494loPI   C1A 7895  12.532  18.992   9.392 -0.1138  0.2539 -0.0134
  494loPI   C2A 7896  12.405  19.029   8.986 -0.0523 -0.0147  0.1091
  494loPI   C3A 7897  12.253  19.236   8.560 -0.3741  0.1043 -0.2973
  494loPI   C4A 7898  12.321  19.082   8.183 -0.0885  0.3078 -0.0686
  494loPI   C5A 7899  12.517  18.915   7.852  0.0590 -0.2889 -0.1775
  494loPI   C6A 7900  12.731  18.993   7.581  0.0232 -0.0221  0.2943
  494loPI   C1B 7901  13.090  19.007   9.542  0.0723 -0.2681 -0.3617
  494loPI   C2B 7902  13.257  19.308   9.446 -0.1205  0.0736  0.0850
  494loPI   C3B 7903  13.219  19.712   9.225  0.1992 -0.0140 -0.0476
  494loPI   C4B 7904  13.347  19.857   8.891  0.1589  0.1367  0.2339
  495loPI    C1 7905   1.938  14.405  10.612  0.2112 -0.1432 -0.1453
  495loPI    C2 7906   1.581  14.442  10.788  0.3000 -0.1732  0.0436
  495loPI    C3 7907   1.784  14.768  10.680  0.1799 -0.1574 -0.1397
  495loPI   PO4 7908   1.972  14.192  10.330  0.0444 -0.0681  0.2490
  495loPI   GL1 7909   1.787  14.126   9.926 -0.0911 -0.0880  0.2347
  495loPI   GL2 7910   1.786  14.421   9.753  0.1671  0.0167  0.1694
  495loPI   C1A 7911   2.058  14.060   9.624 -0.2042 -0.4500  0.0996
  495loPI   C2A 7912   2.233  14.037   9.258 -0.0324 -0.2395 -0.0788
  495loPI   C3A 7913   2.589  14.032   9.013  0.2407 -0.0690 -0.2768
  495loPI   C4A 7914   2.561  14.174   8.644 -0.4144 -0.1364  0.2709
  495loPI   C5A 7915   2.372  14.013   8.203 -0.1025 -0.1231 -0.0758
  495loPI   C6A 7916   2.654  13.660   7.992  0.0873  0.2338  0.2033
  495loPI   C1B 7917   1.891  14.415   9.218  0.2364 -0.1088  0.3149
  495loPI   C2B 7918   1.693  14.580   8.907  0.0124  0.2393 -0.3816
  495loPI   C3B 7919   1.372  14.252   8.639 -0.0668  0.3759 -0.2607
  495loPI   C4B 7920   1.362  13.772   8.359  0.2871 -0.0789  0.1538
  496loPI    C1 7921   8.099   5.812   9.998  0.0760 -0.1185  0.0113
  496loPI    C2 7922   8.329   5.556   9.793  0.1103  0.0258 -0.1319
  496loPI    C3 7923   8.455   5.701  10.144  0.0279 -0.2635  0.0206
  496loPI   PO4 7924   7.857   5.878   9.787  0.1897 -0.1578  0.1894
  496loPI   GL1 7925   7.611   5.879   9.369  0.1197 -0.2699 -0.0615
  496loPI   GL2 7926   7.774   6.208   9.191  0.0718 -0.1502 -0.4159
  496loPI   C1A 7927   7.858   5.670   9.054  0.1524  0.0195 -0.0779
  496loPI   C2A 7928   7.905   5.760   8.616 -0.2497 -0.2350  0.0441
  496loPI   C3A 7929   7.766   5.527   8.238  0.0522 -0.1961  0.1013
  496loPI   C4A 7930   7.639   5.225   7.885 -0.1049 -0.4352  0.0903
  496loPI   C5A 7931   7.442   5.069   7.618 -0.0005 -0.0719 -0.0647
  496loPI   C6A 7932   7.261   4.771   7.431 -0.1000  0.0646  0.0946
  496loPI   C1B 7933   7.839   6.279   8.664  0.3585 -0.1417  0.1993
  496loPI   C2B 7934   7.741   6.223   8.224 -0.0554 -0.2922 -0.4412
  496loPI   C3B 7935   7.783   5.936   7.981 -0.1393 -0.0057 -0.0376
  496loPI   C4B 7936   7.986   5.628   7.751  0.2279  0.2714 -0.0450
  497loPI    C1 7937  16.454  15.626  10.276  0.0179  0.0952 -0.1590
  497loPI    C2 7938  16.116  15.440  10.381  0.1046  0.0461  0.0363
  497loPI    C3 7939  16.470  15.287  10.487  0.1896  0.0857 -0.1860
  497loPI   PO4 7940  16.433  15.693  10.013  0.0968 -0.1890  0.0370
  497loPI   GL1 7941  16.390  15.846   9.518 -0.1221 -0.0674  0.1559
  497loPI   GL2 7942  16.192  16.141   9.579  0.2434 -0.1939  0.2103
  497loPI   C1A 7943  16.883  15.689   9.256 -0.3645  0.4092  0.0300
  497loPI   C2A 7944  17.131  15.579   8.971 -0.2526 -0.2580 -0.2954
  497loPI   C3A 7945  17.435  15.406   8.639  0.2578  0.0760  0.3165
  497loPI   C4A 7946  17.688  15.398   8.268 -0.3764 -0.0437  0.0531
  497loPI   C5A 7947  17.946  15.693   8.050 -0.0309 -0.0916 -0.1705
  497loPI   C6A 7948  18.065  16.091   7.798  0.1417 -0.0014 -0.1520
  497loPI   C1B 7949  16.133  16.113   9.146 -0.1341 -0.0328 -0.3777
  497loPI   C2B 7950  16.222  16.041   8.697  0.2624 -0.0796  0.1416
  497loPI   C3B 7951  16.082  15.893   8.298  0.0396 -0.0692 -0.3067
  497loPI   C4B 7952  15.855  15.823   7.926  0.3367  0.2401  0.1116
  498loPI    C1 7953  10.294   0.083  10.172 -0.2240  0.1070 -0.2574
  498loPI    C2 7954  10.399   0.326  10.472  0.0240 -0.1690 -0.1165
  498loPI    C3 7955  10.015   0.224  10.423 -0.0218 -0.1034  0.0925
  498loPI   PO4 7956  10.466   0.204  10.002  0.0475  0.0101  0.0090
  498loPI   GL1 7957  10.264   0.023   9.662 -0.1508 -0.0905 -0.2683
  498loPI   GL2 7958  10.383  -0.279   9.738 -0.1779  0.0448  0.2093
  498loPI   C1A 7959  10.297   0.077   9.280  0.0460 -0.1458 -0.0847
  498loPI   C2A 7960  10.230  -0.135   8.924 -0.0784 -0.2594  0.1491
  498loPI   C3A 7961  10.310  -0.133   8.443  0.1522  0.1966  0.1730
  498loPI   C4A 7962  10.155  -0.233   8.055  0.2421 -0.0016  0.1015
  498loPI   C5A 7963  10.119  -0.380   7.577  0.0440 -0.0157 -0.2028
  498loPI   C6A 7964   9.942  -0.626   7.294 -0.0233  0.1129 -0.1278
  498loPI   C1B 7965  10.604  -0.427   9.312  0.0498 -0.4879 -0.1368
  498loPI   C2B 7966  10.576  -0.511   8.833  0.2614 -0.2052 -0.2387
  498loPI   C3B 7967  10.424  -0.616   8.357 -0.0523 -0.2515  0.2941
  498loPI   C4B 7968  10.317  -0.724   7.923 -0.0086 -0.2612  0.0751
  499loPI    C1 7969   6.619  18.303   9.871  0.2799 -0.0973  0.3904
  499loPI    C2 7970   6.575  18.697   9.928  0.0832 -0.0481 -0.0532
  499loPI    C3 7971   6.365  18.438  10.149  0.3194  0.0869  0.3389
  499loPI   PO4 7972   6.614  18.269   9.636 -0.1264 -0.1826  0.0826
  499loPI   GL1 7973   6.989  18.322   9.399  0.1554 -0.0258  0.1070
  499loPI   GL2 7974   7.041  17.880   9.333 -0.4056  0.0578 -0.1894
  499loPI   C1A 7975   7.016  18.348   8.952 -0.1496  0.0479  0.1186
  499loPI   C2A 7976   6.828  18.508   8.526 -0.0220  0.0954 -0.0801
  499loPI   C3A 7977   6.754  18.465   8.089  0.1254  0.0088 -0.2243
  499loPI   C4A 7978   6.543  18.573   7.706  0.0372 -0.2243 -0.0878
  499loPI   C5A 7979   6.424  18.839   7.334 -0.1979 -0.0830  0.3917
  499loPI   C6A 7980   6.208  18.757   6.968  0.0944 -0.0442 -0.0300
  499loPI   C1B 7981   7.054  17.733   8.880 -0.1030  0.3984  0.1710
  499loPI   C2B 7982   6.796  17.653   8.480 -0.2248 -0.0642 -0.0535
  499loPI   C3B 7983   6.622  17.685   8.022 -0.3844  0.3036  0.0499
  499loPI   C4B 7984   6.727  18.101   7.719 -0.2088 -0.0407  0.0778
  500loPI    C1 7985  16.127   9.814  10.062 -0.2060 -0.3582  0.0864
  500loPI    C2 7986  16.312   9.832  10.416 -0.1139  0.1394  0.0194
  500loPI    C3 7987  15.915   9.879  10.395 -0.1266  0.0528  0.0612
  500loPI   PO4 7988  16.215   9.938   9.902 -0.1438  0.1537 -0.1435
  500loPI   GL1 7989  16.398   9.910   9.552 -0.0847 -0.1840  0.0627
  500loPI   GL2 7990  16.191   9.743   9.427  0.0006  0.4612  0.0636
  500loPI   C1A 7991  16.344  10.188   9.098 -0.4360  0.3431 -0.2039
  500loPI   C2A 7992  16.436  10.245   8.704  0.1421  0.2394  0.4030
  500loPI   C3A 7993  16.455  10.384   8.400 -0.0017  0.0981 -0.0539
  500loPI   C4A 7994  16.627  10.379   7.969 -0.2169 -0.1379  0.2567
  500loPI   C5A 7995  16.861  10.436   7.731  0.0406  0.3147 -0.1726
  500loPI   C6A 7996  17.057  10.207   7.450  0.1717 -0.1612 -0.0244
  500loPI   C1B 7997  15.840   9.569   9.274  0.3481 -0.2490 -0.1438
  500loPI   C2B 7998  15.863   9.316   8.848  0.3221 -0.0276 -0.1327
  500loPI   C3B 7999  16.024   9.460   8.424 -0.2779  0.1322  0.0850
  500loPI   C4B 8000  16.157   9.446   7.944 -0.0920 -0.0346 -0.2185
  501loPI    C1 8001   7.314   9.323  10.005 -0.0250 -0.0260 -0.1882
  501loPI    C2 8002   7.077   9.622  10.127  0.0434  0.0115 -0.1457
  501loPI    C3 8003   7.072   9.271  10.319  0.0123  0.0074 -0.1537
  501loPI   PO4 8004   7.282   9.252   9.740  0.1401  0.1003  0.1946
  501loPI   GL1 8005   7.272   9.213   9.321 -0.2607  0.3090  0.0166
  501loPI   GL2 8006   7.578   9.240   9.277  0.0444  0.1835  0.0328
  501loPI   C1A 8007   7.170   9.027   8.791  0.0081 -0.3008  0.1242
  501loPI   C2A 8008   7.218   9.047   8.366  0.3134  0.2693 -0.3535
  501loPI   C3A 8009   7.176   8.923   7.948 -0.0074 -0.1374 -0.2193
  501loPI   C4A 8010   7.242   8.895   7.560  0.1926  0.1756 -0.0601
  501loPI   C5A 8011   7.380   8.863   7.198 -0.4076 -0.0882  0.2356
  501loPI   C6A 8012   7.309   8.524   6.982  0.0896  0.0525 -0.2456
  501loPI   C1B 8013   7.555   9.336   8.817  0.3678 -0.1833  0.0746
  501loPI   C2B 8014   7.471   9.497   8.413 -0.4266 -0.1134 -0.0308
  501loPI   C3B 8015   7.331   9.416   7.988 -0.2420  0.2506  0.1970
  501loPI   C4B 8016   7.034   9.309   7.691  0.4633 -0.3132 -0.0595
  502loPI    C1 8017   3.420   4.857   9.829  0.0431 -0.0662  0.0712
  502loPI    C2 8018   3.433   4.580  10.117 -0.0163 -0.0491  0.0905
  502loPI    C3 8019   3.742   4.828  10.064  0.1505 -0.2924 -0.1001
  502loPI   PO4 8020   3.350   4.749   9.606  0.0480  0.0004 -0.2686
  502loPI   GL1 8021   3.531   4.727   9.184  0.2335  0.0323 -0.0275
  502loPI   GL2 8022   3.279   4.940   9.025 -0.0546 -0.0483  0.3235
  502loPI   C1A 8023   3.530   4.552   8.772 -0.0872  0.0985 -0.1242
  502loPI   C2A 8024   3.450   4.413   8.471 -0.0337 -0.1334 -0.1163
  502loPI   C3A 8025   3.333   4.507   8.029  0.2923  0.0533 -0.1345
  502loPI   C4A 8026   3.028   4.582   7.674  0.0724  0.3279  0.0455
  502loPI   C5A 8027   2.851   4.227   7.499  0.4507 -0.1221 -0.4232
  502loPI   C6A 8028   2.936   4.015   7.081 -0.0284 -0.1778 -0.2355
  502loPI   C1B 8029   3.126   4.886   8.597  0.1402  0.3396 -0.2646
  502loPI   C2B 8030   3.065   4.887   8.170 -0.0347 -0.0047 -0.2065
  502loPI   C3B 8031   3.237   5.038   7.860 -0.2151  0.1607 -0.1789
  502loPI   C4B 8032   3.330   5.281   7.509  0.4194  0.2031  0.3152
  503loPI    C1 8033  15.068  18.428   9.944  0.1807 -0.0566 -0.0348
  503loPI    C2 8034  15.071  18.601  10.305 -0.1603  0.0910 -0.0985
  503loPI    C3 8035  14.905  18.240  10.258 -0.2380  0.1310 -0.1327
  503loPI   PO4 8036  14.832  18.569   9.732  0.0481  0.5604  0.0814
  503loPI   GL1 8037  14.418  18.595   9.582  0.1910  0.1791 -0.0019
  503loPI   GL2 8038  14.262  18.862   9.449 -0.0787  0.0794  0.1490
  503loPI   C1A 8039  14.564  18.398   9.164  0.0016  0.1690  0.0453
  503loPI   C2A 8040  14.749  18.251   8.841 -0.0522  0.3599  0.0508
  503loPI   C3A 8041  15.077  18.434   8.669  0.1807  0.1196  0.1405
  503loPI   C4A 8042  15.321  18.509   8.395  0.1287 -0.0888  0.0130
  503loPI   C5A 8043  15.367  18.431   7.955 -0.0051 -0.0696 -0.1257
  503loPI   C6A 8044  15.341  18.156   7.628  0.0504 -0.2998 -0.1855
  503loPI   C1B 8045  14.281  18.808   9.021 -0.1219  0.0476 -0.0543
  503loPI   C2B 8046  14.237  18.596   8.772  0.0979  0.0287 -0.0409
  503loPI   C3B 8047  14.175  18.659   8.309  0.1256  0.1850  0.1760
  503loPI   C4B 8048  14.267  18.288   8.086 -0.0259 -0.1432  0.2384
  504loPI    C1 8049  11.201  17.579  10.119 -0.0387  0.1873 -0.0778
  504loPI    C2 8050  10.928  17.744  10.361  0.0478  0.0460  0.1184
  504loPI    C3 8051  11.268  17.597  10.513  0.1156 -0.0195 -0.0931
  504loPI   PO4 8052  11.163  17.500   9.984  0.0752  0.1892  0.1896
  504loPI   GL1 8053  11.036  17.589   9.615 -0.0272  0.0622 -0.2182
  504loPI   GL2 8054  10.726  17.658   9.474  0.0172 -0.1621 -0.0403
  504loPI   C1A 8055  11.112  17.707   9.155 -0.0540  0.4101 -0.0656
  504loPI   C2A 8056  11.017  17.721   8.831  0.1388  0.0506 -0.2004
  504loPI   C3A 8057  11.069  17.667   8.403  0.3000 -0.0405 -0.1901
  504loPI   C4A 8058  11.045  17.740   7.980  0.1895 -0.0683 -0.1702
  504loPI   C5A 8059  10.823  17.864   7.536  0.1382  0.0187 -0.2146
  504loPI   C6A 8060  11.128  18.127   7.236  0.1068 -0.1080  0.1258
  504loPI   C1B 8061  10.614  17.618   9.064 -0.3692 -0.0023 -0.1412
  504loPI   C2B 8062  10.498  17.475   8.636 -0.3113  0.0029 -0.0786
  504loPI   C3B 8063  10.612  17.681   8.309 -0.1159 -0.0900  0.0388
  504loPI   C4B 8064  10.695  18.050   8.059 -0.2211 -0.0500 -0.3495
  505loPI    C1 8065   9.752   1.834   9.695  0.1219  0.2361 -0.1065
  505loPI    C2 8066   9.788   1.791  10.091 -0.0306 -0.0804 -0.1237
  505loPI    C3 8067  10.013   2.058   9.897 -0.2146  0.3398  0.2250
  505loPI   PO4 8068   9.828   1.644   9.565  0.1532 -0.2074 -0.1658
  505loPI   GL1 8069   9.611   1.268   9.393  0.0015 -0.0946 -0.0605
  505loPI   GL2 8070   9.439   1.566   9.242 -0.1927  0.1498 -0.0571
  505loPI   C1A 8071   9.800   0.991   9.060  0.3401  0.0242  0.2110
  505loPI   C2A 8072  10.039   0.754   8.791  0.3883 -0.1360  0.0332
  505loPI   C3A 8073   9.834   0.727   8.278  0.3406 -0.0068  0.0413
  505loPI   C4A 8074   9.915   0.843   7.790 -0.0139  0.0074 -0.0160
  505loPI   C5A 8075   9.772   0.827   7.386 -0.0989  0.3731  0.1938
  505loPI   C6A 8076   9.913   1.062   7.147 -0.0333  0.3304  0.1582
  505loPI   C1B 8077   9.699   1.436   8.921  0.2585  0.2010  0.0135
  505loPI   C2B 8078   9.490   1.381   8.590 -0.1540  0.1473  0.1185
  505loPI   C3B 8079   9.376   1.471   8.109  0.2257 -0.0865 -0.1057
  505loPI   C4B 8080   9.186   1.487   7.700  0.0832  0.2445  0.1579
  506loPI    C1 8081  17.876  11.871   9.937  0.0710 -0.0449  0.0574
  506loPI    C2 8082  18.180  11.875  10.197 -0.0409  0.2851  0.1886
  506loPI    C3 8083  17.827  11.719  10.303 -0.0451  0.2918  0.1853
  506loPI   PO4 8084  17.883  12.104   9.853 -0.2166 -0.0467 -0.2609
  506loPI   GL1 8085  17.843  12.345   9.402  0.0811 -0.0414  0.1026
  506loPI   GL2 8086  17.876  12.731   9.458 -0.1156 -0.0198 -0.0101
  506loPI   C1A 8087  17.926  12.435   8.961 -0.2249  0.2301  0.2020
  506loPI   C2A 8088  17.955  12.343   8.557 -0.1959 -0.0213  0.0434
  506loPI   C3A 8089  17.658  12.376   8.188 -0.0007 -0.0491 -0.0118
  506loPI   C4A 8090  17.546  12.228   7.760  0.0595 -0.1916  0.0946
  506loPI   C5A 8091  17.779  11.903   7.474  0.0788  0.0484  0.0129
  506loPI   C6A 8092  17.859  11.505   7.380  0.2747  0.1037 -0.3180
  506loPI   C1B 8093  17.924  12.964   9.005 -0.0944 -0.0370  0.4868
  506loPI   C2B 8094  17.985  12.851   8.582  0.0295  0.2734  0.1296
  506loPI   C3B 8095  18.090  12.772   8.129  0.1582  0.1663 -0.0188
  506loPI   C4B 8096  18.269  12.708   7.736  0.0540 -0.0282  0.0957
  507loPI    C1 8097  10.789   4.276   9.806  0.0516  0.0482  0.2528
  507loPI    C2 8098  10.726   4.514  10.121 -0.1743  0.2554  0.0547
  507loPI    C3 8099  10.626   4.128  10.140 -0.1057  0.2465  0.2657
  507loPI   PO4 8100  10.638   4.333   9.619 -0.0080  0.1566  0.0207
  507loPI   GL1 8101  10.340   4.625   9.258 -0.1405 -0.1885  0.1665
  507loPI   GL2 8102  10.182   4.461   9.384 -0.1480  0.2325 -0.0966
  507loPI   C1A 8103  10.461   4.801   8.819 -0.3691 -0.0602 -0.2419
  507loPI   C2A 8104  10.473   4.697   8.397 -0.0528 -0.0336 -0.0600
  507loPI   C3A 8105  10.502   4.608   7.910 -0.1965 -0.3410 -0.1582
  507loPI   C4A 8106  10.724   4.747   7.526 -0.1620 -0.1886 -0.1725
  507loPI   C5A 8107  11.084   4.541   7.297 -0.1453  0.2994  0.0426
  507loPI   C6A 8108  11.347   4.366   7.161  0.1521  0.1547 -0.0583
  507loPI   C1B 8109  10.374   4.199   9.012  0.3906 -0.0069  0.1568
  507loPI   C2B 8110  10.261   4.010   8.715 -0.0133  0.3384 -0.4033
  507loPI   C3B 8111   9.893   3.858   8.493  0.2800  0.1154  0.1378
  507loPI   C4B 8112   9.557   3.688   8.293 -0.2722  0.1580  0.3192
  508loPI    C1 8113   8.780   8.293  10.065  0.1801 -0.1218  0.0577
  508loPI    C2 8114   8.998   8.617  10.151  0.0179 -0.0308  0.1328
  508loPI    C3 8115   8.835   8.401  10.446 -0.2608  0.0879  0.0689
  508loPI   PO4 8116   8.895   8.172   9.933  0.2001  0.0091  0.1184
  508loPI   GL1 8117   8.974   8.134   9.540 -0.3029  0.3416  0.1126
  508loPI   GL2 8118   9.252   8.084   9.363 -0.0827 -0.3885  0.0926
  508loPI   C1A 8119   8.929   7.853   9.090 -0.0358  0.0114 -0.1370
  508loPI   C2A 8120   8.747   7.874   8.713 -0.1119  0.0255 -0.1035
  508loPI   C3A 8121   8.811   7.934   8.246 -0.1003  0.1725  0.1361
  508loPI   C4A 8122   8.925   8.036   7.845  0.0493 -0.0125 -0.1823
  508loPI   C5A 8123   9.322   7.904   7.624 -0.0251 -0.3300 -0.2721
  508loPI   C6A 8124   9.651   7.526   7.638  0.0688 -0.2828 -0.3702
  508loPI   C1B 8125   9.404   8.139   8.951 -0.0345  0.0735  0.0637
  508loPI   C2B 8126   9.520   8.165   8.423 -0.1185 -0.1340  0.3084
  508loPI   C3B 8127   9.489   8.380   8.104 -0.2797 -0.1791 -0.2190
  508loPI   C4B 8128   9.167   8.427   7.655 -0.0385  0.1817 -0.0538
  509loPI    C1 8129  16.265  15.057   9.615  0.1298  0.0707  0.0196
  509loPI    C2 8130  16.060  15.380   9.732 -0.0569  0.0040 -0.1198
  509loPI    C3 8131  16.331  15.217   9.976  0.0181  0.2481 -0.0370
  509loPI   PO4 8132  16.092  14.933   9.450 -0.2742 -0.3340 -0.1046
  509loPI   GL1 8133  15.928  15.103   9.030 -0.3253  0.4791 -0.0745
  509loPI   GL2 8134  15.734  14.852   9.120  0.0185  0.0846 -0.1021
  509loPI   C1A 8135  15.992  14.948   8.526  0.1998 -0.0990  0.2728
  509loPI   C2A 8136  16.174  14.951   8.139 -0.2545 -0.0529 -0.1698
  509loPI   C3A 8137  16.147  14.765   7.764 -0.4485  0.0089 -0.2649
  509loPI   C4A 8138  16.266  14.396   7.606 -0.0596  0.1664 -0.0397
  509loPI   C5A 8139  16.228  14.154   7.220  0.1281  0.0122  0.0562
  509loPI   C6A 8140  16.173  13.970   6.816  0.6045 -0.1569  0.1567
  509loPI   C1B 8141  15.540  14.856   8.694  0.1149 -0.1173 -0.1017
  509loPI   C2B 8142  15.479  14.972   8.341 -0.2888 -0.3755 -0.1233
  509loPI   C3B 8143  15.687  14.876   7.955 -0.0292  0.0223 -0.1523
  509loPI   C4B 8144  15.793  15.012   7.560  0.1368  0.0828  0.0812
  510loPI    C1 8145   6.336  13.372   9.754 -0.1671 -0.1945 -0.0469
  510loPI    C2 8146   6.561  13.273  10.070 -0.1723 -0.0026  0.0188
  510loPI    C3 8147   6.732  13.335   9.714 -0.1320  0.0542  0.0479
  510loPI   PO4 8148   6.111  13.484   9.956  0.1170  0.0563 -0.0486
  510loPI   GL1 8149   5.776  13.228   9.892 -0.1762  0.0265  0.3539
  510loPI   GL2 8150   5.457  13.301   9.889  0.0828  0.0184 -0.0703
  510loPI   C1A 8151   5.548  13.119   9.444  0.0765  0.0826 -0.0080
  510loPI   C2A 8152   5.380  13.122   9.002  0.1708  0.2084 -0.1960
  510loPI   C3A 8153   5.531  13.146   8.563 -0.0631  0.0823 -0.0512
  510loPI   C4A 8154   5.837  13.155   8.263 -0.2544 -0.1460  0.1381
  510loPI   C5A 8155   6.188  13.338   8.305  0.0322 -0.2001 -0.1743
  510loPI   C6A 8156   6.573  13.321   8.242  0.1629 -0.1608 -0.0349
  510loPI   C1B 8157   5.137  13.137   9.704  0.2211  0.0698  0.0783
  510loPI   C2B 8158   4.700  13.139   9.454 -0.0128 -0.1679 -0.0031
  510loPI   C3B 8159   4.413  13.202   9.034  0.0056 -0.1030 -0.0259
  510loPI   C4B 8160   4.252  13.495   8.785  0.1055 -0.0727 -0.0670
  511loPI    C1 8161  13.848  14.457   9.636  0.0551 -0.0257  0.0835
  511loPI    C2 8162  13.585  14.618   9.892  0.0721  0.0524  0.0526
  511loPI    C3 8163  13.920  14.816   9.798  0.1107 -0.0177  0.0416
  511loPI   PO4 8164  13.741  14.458   9.408  0.2179  0.0491 -0.2017
  511loPI   GL1 8165  13.915  14.673   9.149  0.1814  0.2321  0.1876
  511loPI   GL2 8166  14.273  14.666   9.056  0.2170  0.1640  0.3561
  511loPI   C1A 8167  13.715  14.737   8.728 -0.0947  0.1501 -0.0401
  511loPI   C2A 8168  13.794  14.858   8.415  0.1044  0.0008  0.1862
  511loPI   C3A 8169  13.676  15.132   8.232 -0.1826  0.1862  0.2045
  511loPI   C4A 8170  13.731  15.556   7.856  0.2978 -0.1551  0.1120
  511loPI   C5A 8171  13.914  15.882   7.623 -0.0212 -0.5830 -0.2272
  511loPI   C6A 8172  13.989  16.169   7.302 -0.2709  0.1136 -0.2182
  511loPI   C1B 8173  14.216  14.672   8.646 -0.0668 -0.3277 -0.2312
  511loPI   C2B 8174  14.272  14.855   8.249 -0.2822 -0.2651  0.0264
  511loPI   C3B 8175  13.999  14.905   7.877  0.0425 -0.0584 -0.3174
  511loPI   C4B 8176  13.636  15.130   7.634 -0.0077 -0.4258 -0.2310
  512loPI    C1 8177   7.163  15.428  10.315  0.0765  0.0035 -0.1565
  512loPI    C2 8178   7.219  15.133  10.580 -0.0413 -0.1000 -0.2453
  512loPI    C3 8179   7.480  15.435  10.558 -0.0800 -0.0417  0.0524
  512loPI   PO4 8180   7.087  15.436  10.097 -0.2002 -0.2417  0.1323
  512loPI   GL1 8181   6.972  15.267   9.691 -0.4802 -0.2925 -0.1774
  512loPI   GL2 8182   6.665  15.376   9.438 -0.0340  0.2772 -0.2014
  512loPI   C1A 8183   7.154  15.514   9.342 -0.5403 -0.2215  0.0427
  512loPI   C2A 8184   7.094  15.537   8.915 -0.2120 -0.0534 -0.0031
  512loPI   C3A 8185   7.338  15.635   8.603 -0.1652 -0.0349  0.1445
  512loPI   C4A 8186   7.567  15.950   8.296 -0.0576  0.3425  0.1081
  512loPI   C5A 8187   7.411  16.011   7.865 -0.0063 -0.2955  0.0540
  512loPI   C6A 8188   7.417  16.265   7.544  0.0016  0.2850  0.0204
  512loPI   C1B 8189   6.615  15.301   9.084 -0.1505  0.2073 -0.0734
  512loPI   C2B 8190   6.474  15.370   8.647  0.1236 -0.0418  0.0937
  512loPI   C3B 8191   6.435  15.427   8.240 -0.1663  0.0599  0.4053
  512loPI   C4B 8192   6.564  15.289   7.823 -0.0397  0.3596  0.2918
  513loPI    C1 8193   5.051   1.396   9.914 -0.0801 -0.1056  0.1959
  513loPI    C2 8194   5.301   1.084   9.905  0.1216  0.0560  0.1022
  513loPI    C3 8195   4.917   1.030  10.002  0.2006 -0.1887  0.2899
  513loPI   PO4 8196   5.242   1.558   9.772  0.4293  0.2020  0.1986
  513loPI   GL1 8197   5.054   1.645   9.424  0.1783 -0.3613 -0.1231
  513loPI   GL2 8198   4.743   1.732   9.395  0.0836  0.1259 -0.0494
  513loPI   C1A 8199   5.084   1.821   9.050  0.1122  0.1014  0.0828
  513loPI   C2A 8200   4.775   1.820   8.720 -0.2454  0.0957 -0.0103
  513loPI   C3A 8201   4.686   1.695   8.345 -0.1250 -0.2403 -0.1336
  513loPI   C4A 8202   4.633   1.695   7.979 -0.0061 -0.0966  0.1207
  513loPI   C5A 8203   4.746   1.822   7.533  0.1457 -0.2229 -0.1184
  513loPI   C6A 8204   4.947   2.164   7.490 -0.2691 -0.1823  0.1587
  513loPI   C1B 8205   4.683   1.493   9.085 -0.3025  0.1431  0.1244
  513loPI   C2B 8206   4.472   1.402   8.721  0.1487  0.0138 -0.1183
  513loPI   C3B 8207   4.524   1.156   8.341  0.1808 -0.0145 -0.0940
  513loPI   C4B 8208   4.207   0.931   8.076  0.0315  0.1630  0.2402
  514loPI    C1 8209   6.198  17.975   9.935  0.2493  0.2054  0.2021
  514loPI    C2 8210   5.827  17.828   9.909  0.2386  0.2580  0.0482
  514loPI    C3 8211   5.971  17.944  10.264  0.1282  0.1859  0.1174
  514loPI   PO4 8212   6.225  17.969   9.677  0.2710 -0.2607  0.1927
  514loPI   GL1 8213   6.290  18.197   9.220  0.0115 -0.1094 -0.1062
  514loPI   GL2 8214   6.580  18.264   9.151 -0.0831  0.1954  0.1625
  514loPI   C1A 8215   6.203  18.289   8.794  0.1457 -0.1069  0.3072
  514loPI   C2A 8216   6.038  18.231   8.319  0.2159  0.2388  0.0695
  514loPI   C3A 8217   5.783  18.191   7.924  0.0420 -0.0783  0.0069
  514loPI   C4A 8218   5.351  18.187   7.680 -0.2271  0.0271  0.0755
  514loPI   C5A 8219   5.092  17.892   7.502  0.1256 -0.0576 -0.0129
  514loPI   C6A 8220   4.888  17.714   7.233 -0.1220  0.1061 -0.1289
  514loPI   C1B 8221   6.632  17.920   8.860  0.0897  0.0306 -0.1301
  514loPI   C2B 8222   6.246  17.806   8.619  0.1825  0.2820  0.3662
  514loPI   C3B 8223   6.124  17.754   8.189 -0.1488 -0.2700 -0.1211
  514loPI   C4B 8224   6.273  17.977   7.839 -0.2380  0.2182  0.2106
  515loPI    C1 8225   4.460  11.357  10.154  0.2404 -0.0044 -0.1238
  515loPI    C2 8226   4.618  11.397  10.519 -0.0466 -0.2435  0.0319
  515loPI    C3 8227   4.781  11.142  10.258  0.0329 -0.2287  0.0665
  515loPI   PO4 8228   4.451  11.608  10.063  0.0329 -0.0431  0.0138
  515loPI   GL1 8229   4.257  11.723   9.764 -0.0615  0.1139  0.0746
  515loPI   GL2 8230   4.399  11.770   9.455  0.2701 -0.0639  0.1064
  515loPI   C1A 8231   3.864  11.864   9.407 -0.1048  0.0339  0.1506
  515loPI   C2A 8232   3.763  11.943   8.966  0.2415  0.2972  0.0431
  515loPI   C3A 8233   3.767  11.970   8.479  0.0999 -0.0458  0.4779
  515loPI   C4A 8234   3.587  11.913   8.125 -0.2734  0.3136 -0.0031
  515loPI   C5A 8235   3.789  11.546   7.886  0.0182 -0.2682 -0.3976
  515loPI   C6A 8236   3.567  11.245   7.626  0.0893 -0.1697  0.0841
  515loPI   C1B 8237   4.355  11.602   9.107  0.1157  0.1398  0.2942
  515loPI   C2B 8238   4.253  11.423   8.720 -0.0219 -0.1851 -0.1932
  515loPI   C3B 8239   4.221  11.372   8.170 -0.1926 -0.0562 -0.1515
  515loPI   C4B 8240   4.193  11.315   7.712  0.0903 -0.0104  0.8426
  516loPI    C1 8241  17.497  10.375  10.291  0.0299  0.0083 -0.1399
  516loPI    C2 8242  17.727  10.059  10.204  0.1108 -0.0187  0.1590
  516loPI    C3 8243  17.811  10.286  10.522 -0.1794  0.0711  0.1752
  516loPI   PO4 8244  17.513  10.458  10.014 -0.1195 -0.0174  0.0090
  516loPI   GL1 8245  17.718  10.419   9.739  0.1063 -0.1204  0.2489
  516loPI   GL2 8246  17.923  10.691   9.638 -0.2148  0.1325 -0.0613
  516loPI   C1A 8247  17.721  10.457   9.249  0.3699  0.2900  0.1164
  516loPI   C2A 8248  17.906  10.400   8.916  0.0331  0.0862  0.0209
  516loPI   C3A 8249  17.888  10.160   8.474  0.2118 -0.0185  0.0035
  516loPI   C4A 8250  17.934  10.023   8.016  0.2239  0.2689 -0.0590
  516loPI   C5A 8251  17.735   9.848   7.640  0.0361 -0.0557  0.3563
  516loPI   C6A 8252  17.830   9.461   7.402  0.2527 -0.1384  0.0934
  516loPI   C1B 8253  18.233  10.654   9.336  0.1808  0.0603  0.1023
  516loPI   C2B 8254  18.386  10.503   8.956  0.2148  0.0240 -0.1729
  516loPI   C3B 8255  18.479  10.393   8.549  0.0952 -0.0937  0.0723
  516loPI   C4B 8256  18.414  10.168   8.216 -0.1475  0.0762 -0.3129
  517loPI    C1 8257   2.401  12.393  10.134  0.2879 -0.3750 -0.1194
  517loPI    C2 8258   2.017  12.288  10.097  0.1997 -0.0663 -0.1096
  517loPI    C3 8259   2.253  12.095  10.356 -0.0085 -0.1057  0.0534
  517loPI   PO4 8260   2.400  12.656  10.148  0.2345  0.2390  0.1897
  517loPI   GL1 8261   2.171  12.967   9.891 -0.1745 -0.2125  0.1419
  517loPI   GL2 8262   2.016  12.709   9.779  0.0497 -0.1327  0.1760
  517loPI   C1A 8263   2.300  13.072   9.456 -0.1238 -0.4789 -0.0399
  517loPI   C2A 8264   2.325  12.837   9.149  0.0006 -0.0214  0.0199
  517loPI   C3A 8265   2.147  13.075   8.715  0.0762  0.1174  0.2857
  517loPI   C4A 8266   2.078  12.956   8.344  0.0131  0.1543 -0.0852
  517loPI   C5A 8267   2.122  12.700   7.997 -0.2814 -0.0157 -0.0468
  517loPI   C6A 8268   2.354  12.439   7.766 -0.3179  0.0199 -0.0928
  517loPI   C1B 8269   1.903  12.606   9.340 -0.2834  0.1080 -0.1742
  517loPI   C2B 8270   1.871  12.712   8.920  0.1766  0.5209  0.4799
  517loPI   C3B 8271   1.950  12.539   8.501 -0.1000 -0.1178  0.0547
  517loPI   C4B 8272   2.099  12.230   8.190  0.2279 -0.0559 -0.0759
  518loPI    C1 8273  18.117   9.550  10.316  0.1378  0.0062 -0.0940
  518loPI    C2 8274  17.949   9.815  10.564 -0.2727 -0.2630 -0.0748
  518loPI    C3 8275  17.928   9.424  10.645  0.1963 -0.3166 -0.1808
  518loPI   PO4 8276  18.048   9.575  10.092 -0.1200 -0.1858 -0.1983
  518loPI   GL1 8277  17.803   9.537   9.719 -0.3609 -0.1228 -0.1224
  518loPI   GL2 8278  17.646   9.828   9.714 -0.1272 -0.2121 -0.0072
  518loPI   C1A 8279  17.776   9.552   9.296 -0.2453 -0.0647  0.2032
  518loPI   C2A 8280  17.701   9.638   8.809 -0.0537  0.0317  0.0025
  518loPI   C3A 8281  17.577   9.669   8.403 -0.0440  0.3165 -0.2154
  518loPI   C4A 8282  17.462   9.617   7.997  0.3292 -0.2921  0.3173
  518loPI   C5A 8283  17.144   9.429   7.740 -0.0394  0.0095 -0.0984
  518loPI   C6A 8284  16.750   9.177   7.709 -0.4206  0.0145  0.3016
  518loPI   C1B 8285  17.573  10.007   9.227  0.0226 -0.1868 -0.0332
  518loPI   C2B 8286  17.509  10.123   8.747  0.1838 -0.0720 -0.1118
  518loPI   C3B 8287  17.400  10.164   8.291 -0.0670 -0.0261 -0.4165
  518loPI   C4B 8288  17.370  10.105   7.865 -0.2741 -0.1093  0.1406
  519loPI    C1 8289   9.300  10.131  10.024 -0.0662 -0.2592  0.1887
  519loPI    C2 8290   9.178   9.757  10.098 -0.0961 -0.3681 -0.3695
  519loPI    C3 8291   8.914  10.057  10.099 -0.0982 -0.3687 -0.0718
  519loPI   PO4 8292   9.438  10.134   9.730  0.1920 -0.2228 -0.2079
  519loPI   GL1 8293   9.354   9.952   9.310 -0.0936  0.0562  0.1703
  519loPI   GL2 8294   9.644   9.711   9.259 -0.1405 -0.3687 -0.3153
  519loPI   C1A 8295   9.432  10.182   8.915 -0.0227 -0.1266 -0.0588
  519loPI   C2A 8296   9.513  10.095   8.477 -0.0308  0.2211 -0.4137
  519loPI   C3A 8297   9.693  10.319   8.211  0.0207 -0.2947  0.1149
  519loPI   C4A 8298   9.961  10.658   8.120  0.3564 -0.0243  0.1427
  519loPI   C5A 8299   9.990  11.149   8.045 -0.3274 -0.2519  0.1117
  519loPI   C6A 8300  10.219  11.387   7.874 -0.2154  0.2229 -0.3321
  519loPI   C1B 8301   9.859   9.733   8.810  0.0659  0.0239  0.1140
  519loPI   C2B 8302   9.765   9.704   8.328 -0.0934 -0.0696 -0.0689
  519loPI   C3B 8303   9.641   9.329   8.157 -0.3010 -0.1660 -0.1509
  519loPI   C4B 8304   9.639   9.257   7.696  0.0254 -0.1741  0.0947
  520loPI    C1 8305   5.692  16.703   9.983 -0.1500 -0.3255 -0.4042
  520loPI    C2 8306   5.793  16.537  10.333 -0.0217 -0.1668 -0.3647
  520loPI    C3 8307   5.408  16.596  10.244 -0.0426  0.1985 -0.0559
  520loPI   PO4 8308   5.839  16.651   9.744 -0.1810  0.0830  0.3724
  520loPI   GL1 8309   5.688  16.543   9.363  0.1974  0.0549  0.0160
  520loPI   GL2 8310   6.000  16.665   9.236 -0.3785 -0.2679 -0.2356
  520loPI   C1A 8311   5.450  16.552   9.035 -0.0542 -0.1310  0.0586
  520loPI   C2A 8312   5.232  16.357   8.723  0.1291 -0.1803  0.1296
  520loPI   C3A 8313   5.203  16.263   8.334 -0.4014  0.0611  0.2126
  520loPI   C4A 8314   5.002  16.255   7.967 -0.3135  0.0387  0.2822
  520loPI   C5A 8315   5.053  16.056   7.500  0.0481 -0.1004  0.5795
  520loPI   C6A 8316   5.113  15.736   7.282 -0.0941  0.1791 -0.0579
  520loPI   C1B 8317   5.927  16.556   8.825  0.0367 -0.0710  0.1618
  520loPI   C2B 8318   5.618  16.566   8.491 -0.0842 -0.0480 -0.1027
  520loPI   C3B 8319   5.728  16.335   8.151  0.0072 -0.1127 -0.0488
  520loPI   C4B 8320   6.010  15.995   8.050 -0.1299  0.1849 -0.1587
  521loPI    C1 8321   4.642   2.524   9.933  0.0924  0.1312  0.0416
  521loPI    C2 8322   4.699   2.731  10.270  0.1413 -0.0793  0.1643
  521loPI    C3 8323   4.733   2.332  10.272 -0.0750 -0.1012 -0.0421
  521loPI   PO4 8324   4.905   2.573   9.717  0.2267  0.1808 -0.1902
  521loPI   GL1 8325   4.840   2.646   9.318  0.3387 -0.0088  0.0352
  521loPI   GL2 8326   5.235   2.579   9.183 -0.0748  0.1214 -0.0360
  521loPI   C1A 8327   4.771   2.708   8.937 -0.0401  0.3186  0.3282
  521loPI   C2A 8328   4.571   2.733   8.494 -0.2837  0.1398  0.0202
  521loPI   C3A 8329   4.219   2.592   8.322 -0.0092 -0.1076  0.1298
  521loPI   C4A 8330   4.112   2.705   7.918 -0.0008  0.0470  0.3726
  521loPI   C5A 8331   4.008   2.642   7.487  0.0433  0.2921 -0.4938
  521loPI   C6A 8332   4.106   2.626   7.138  0.1926 -0.3460  0.1716
  521loPI   C1B 8333   5.246   2.639   8.735  0.0649  0.2423 -0.1543
  521loPI   C2B 8334   5.027   2.537   8.378  0.1796  0.0069 -0.1764
  521loPI   C3B 8335   4.608   2.630   7.990  0.0400 -0.1207  0.1176
  521loPI   C4B 8336   4.541   2.520   7.589  0.1414  0.1222 -0.0811
  522loPI    C1 8337  10.971   8.966   9.955 -0.1292 -0.0330 -0.0629
  522loPI    C2 8338  11.051   8.866  10.334  0.3091 -0.0607 -0.1575
  522loPI    C3 8339  10.847   8.614  10.099  0.0398 -0.0454  0.0544
  522loPI   PO4 8340  11.227   9.033   9.838 -0.1593  0.1022 -0.3123
  522loPI   GL1 8341  11.471   9.188   9.520 -0.1185  0.0429  0.1477
  522loPI   GL2 8342  11.235   9.307   9.406 -0.0482  0.1344 -0.1626
  522loPI   C1A 8343  11.703   8.994   9.223  0.0991  0.2432  0.1457
  522loPI   C2A 8344  11.876   9.162   8.877  0.0148 -0.1113  0.1188
  522loPI   C3A 8345  11.765   9.061   8.462  0.0728  0.0444 -0.0049
  522loPI   C4A 8346  11.774   8.907   8.112  0.2533  0.2027  0.0327
  522loPI   C5A 8347  11.757   8.769   7.692 -0.2042 -0.2440  0.1686
  522loPI   C6A 8348  11.637   8.512   7.338  0.0462 -0.1702  0.0516
  522loPI   C1B 8349  11.045   9.142   9.071  0.1321  0.1116 -0.3389
  522loPI   C2B 8350  11.204   9.152   8.659  0.1777 -0.2798  0.0452
  522loPI   C3B 8351  11.401   9.238   8.226  0.0860 -0.2602 -0.2727
  522loPI   C4B 8352  11.562   9.393   7.967 -0.0721  0.0121  0.2462
  523loPI    C1 8353   5.998   9.341   9.652 -0.1409 -0.1986 -0.0640
  523loPI    C2 8354   5.999   9.366  10.052 -0.0957  0.0325 -0.0771
  523loPI    C3 8355   5.729   9.137   9.866 -0.2136  0.0431  0.0795
  523loPI   PO4 8356   6.325   9.497   9.639 -0.2931 -0.0154 -0.2010
  523loPI   GL1 8357   6.624   9.644   9.351 -0.2579  0.0104  0.2144
  523loPI   GL2 8358   6.842   9.391   9.176  0.1245 -0.0497 -0.0237
  523loPI   C1A 8359   6.672   9.761   8.893 -0.0013  0.2295 -0.0862
  523loPI   C2A 8360   6.722   9.834   8.500  0.2717  0.0241 -0.2030
  523loPI   C3A 8361   6.375   9.905   8.151  0.0184  0.1494  0.2016
  523loPI   C4A 8362   6.308  10.140   7.682 -0.0800 -0.4120 -0.0536
  523loPI   C5A 8363   6.128  10.337   7.389  0.2298  0.0676  0.1475
  523loPI   C6A 8364   6.128  10.770   7.155 -0.4026  0.1231 -0.0443
  523loPI   C1B 8365   6.996   9.442   8.713 -0.0508  0.0455  0.2717
  523loPI   C2B 8366   6.957   9.420   8.292  0.0295  0.2456  0.1734
  523loPI   C3B 8367   6.732   9.563   8.006  0.2820 -0.0427  0.3254
  523loPI   C4B 8368   6.630   9.794   7.737  0.0441 -0.3623  0.0480
  524loPI    C1 8369  10.758   1.744   9.829 -0.1235 -0.1178  0.0308
  524loPI    C2 8370  11.097   1.565   9.945  0.0490  0.1436 -0.0609
  524loPI    C3 8371  10.908   1.817  10.193 -0.2910 -0.2929  0.1365
  524loPI   PO4 8372  10.667   1.515   9.713  0.0403  0.2352  0.0519
  524loPI   GL1 8373  10.539   1.526   9.323  0.0498  0.1011 -0.4204
  524loPI   GL2 8374  10.777   1.487   9.220  0.1752  0.0809 -0.0409
  524loPI   C1A 8375  10.245   1.326   8.898 -0.0138  0.1425 -0.2164
  524loPI   C2A 8376  10.096   1.169   8.434 -0.0538 -0.1123 -0.0708
  524loPI   C3A 8377   9.781   1.252   8.091 -0.1536 -0.2721 -0.3651
  524loPI   C4A 8378   9.812   1.345   7.678 -0.1620  0.2012  0.2141
  524loPI   C5A 8379  10.071   1.535   7.316  0.0335 -0.2685 -0.0243
  524loPI   C6A 8380  10.385   1.552   6.991  0.1349 -0.0146 -0.1702
  524loPI   C1B 8381  10.807   1.500   8.772  0.2135 -0.4386 -0.1234
  524loPI   C2B 8382  10.407   1.521   8.459  0.1608 -0.0392  0.0369
  524loPI   C3B 8383  10.217   1.470   7.944  0.2610  0.0465 -0.0898
  524loPI   C4B 8384  10.276   1.161   7.535  0.1081  0.2816  0.2717
  525loPI    C1 8385  17.314  14.048  10.116  0.0259  0.1102 -0.2234
  525loPI    C2 8386  17.448  14.177  10.470  0.0773 -0.0676 -0.1769
  525loPI    C3 8387  17.058  14.107  10.417  0.0970 -0.2538 -0.0854
  525loPI   PO4 8388  17.419  14.193   9.960 -0.1493 -0.0502  0.2309
  525loPI   GL1 8389  17.450  14.235   9.440  0.3568  0.1866 -0.1175
  525loPI   GL2 8390  17.152  14.165   9.382 -0.0530 -0.1594 -0.1151
  525loPI   C1A 8391  17.509  14.554   9.107  0.1627  0.0358 -0.0434
  525loPI   C2A 8392  17.772  14.670   8.724 -0.0287 -0.3034 -0.1465
  525loPI   C3A 8393  17.767  14.960   8.370 -0.2071 -0.0505 -0.0648
  525loPI   C4A 8394  17.954  14.883   7.913  0.0869 -0.1236  0.0803
  525loPI   C5A 8395  17.971  14.934   7.459 -0.0272 -0.0308 -0.1058
  525loPI   C6A 8396  17.883  14.950   6.995 -0.0120 -0.0290  0.0736
  525loPI   C1B 8397  17.143  14.212   8.896  0.0739 -0.0564  0.1686
  525loPI   C2B 8398  17.069  14.236   8.375 -0.1556 -0.0171  0.0378
  525loPI   C3B 8399  17.136  14.331   7.926  0.3002  0.0867  0.1716
  525loPI   C4B 8400  16.737  14.458   7.751 -0.2500  0.2993  0.1211
  526loPI    C1 8401  13.015  16.345   9.652  0.1063 -0.2934 -0.2137
  526loPI    C2 8402  13.212  16.154   9.943 -0.1353 -0.1554  0.0459
  526loPI    C3 8403  12.821  16.230   9.983 -0.1582 -0.0803 -0.2908
  526loPI   PO4 8404  13.145  16.352   9.301 -0.3899 -0.0866  0.3616
  526loPI   GL1 8405  13.211  16.600   8.917  0.0637 -0.0727  0.1481
  526loPI   GL2 8406  13.476  16.414   8.877  0.0339 -0.1817  0.2101
  526loPI   C1A 8407  13.111  16.286   8.554  0.0643  0.4205 -0.2300
  526loPI   C2A 8408  12.911  16.122   8.230 -0.3189 -0.0301  0.0993
  526loPI   C3A 8409  12.657  16.058   7.829  0.1397 -0.2055 -0.0561
  526loPI   C4A 8410  12.300  16.097   7.910 -0.0707  0.0318  0.2856
  526loPI   C5A 8411  12.041  15.923   7.866 -0.0632  0.0066  0.0394
  526loPI   C6A 8412  11.749  15.778   7.898 -0.0434 -0.0294  0.0623
  526loPI   C1B 8413  13.487  16.577   8.475  0.1694 -0.2568 -0.1569
  526loPI   C2B 8414  13.601  16.323   8.067  0.0553 -0.0021 -0.0585
  526loPI   C3B 8415  13.889  16.314   7.786  0.1191 -0.0781  0.5094
  526loPI   C4B 8416  13.994  16.650   7.685 -0.2153  0.4141  0.2342
  527loPI    C1 8417   3.970   9.695   9.888  0.2057 -0.1013 -0.1735
  527loPI    C2 8418   3.852   9.389  10.118 -0.0664  0.0898 -0.0535
  527loPI    C3 8419   4.168   9.610  10.225  0.0041 -0.0206 -0.0328
  527loPI   PO4 8420   4.061   9.551   9.649 -0.2868  0.1851  0.2178
  527loPI   GL1 8421   4.257   9.745   9.356 -0.0826  0.2936  0.3021
  527loPI   GL2 8422   4.598   9.632   9.400 -0.0014  0.2070 -0.0494
  527loPI   C1A 8423   4.200   9.723   8.872  0.1274 -0.0443 -0.1286
  527loPI   C2A 8424   4.071   9.679   8.380 -0.1538  0.2415 -0.1176
  527loPI   C3A 8425   4.165   9.530   8.003  0.3079  0.0938  0.1162
  527loPI   C4A 8426   4.358   9.380   7.673  0.0974 -0.1842  0.1997
  527loPI   C5A 8427   4.616   9.056   7.401 -0.0757 -0.2199 -0.1022
  527loPI   C6A 8428   4.981   9.206   7.078 -0.0299  0.0406  0.0409
  527loPI   C1B 8429   4.577   9.452   9.020  0.1129  0.1100  0.0493
  527loPI   C2B 8430   4.933   9.142   9.101 -0.2406 -0.0205 -0.0668
  527loPI   C3B 8431   5.078   8.781   8.876  0.2757  0.2558 -0.1004
  527loPI   C4B 8432   5.170   8.633   8.445 -0.1020 -0.2112  0.0977
  528loPI    C1 8433  16.105   1.357   9.882 -0.0327 -0.0817  0.2516
  528loPI    C2 8434  16.132   1.098   9.578 -0.0368 -0.0531  0.2268
  528loPI    C3 8435  15.904   1.011   9.895  0.1813 -0.2044  0.3451
  528loPI   PO4 8436  16.168   1.553   9.783 -0.1871 -0.4754 -0.1944
  528loPI   GL1 8437  16.380   1.508   9.503  0.1916  0.1772  0.2126
  528loPI   GL2 8438  16.693   1.529   9.637  0.1937 -0.1449  0.0410
  528loPI   C1A 8439  16.252   1.458   9.086 -0.0651  0.0945 -0.0805
  528loPI   C2A 8440  16.096   1.314   8.734  0.0722  0.0907  0.0068
  528loPI   C3A 8441  16.083   1.199   8.281 -0.2036  0.3804  0.1617
  528loPI   C4A 8442  15.830   1.113   7.954 -0.0301 -0.0336 -0.1881
  528loPI   C5A 8443  15.832   0.768   7.584 -0.1614  0.0038 -0.0291
  528loPI   C6A 8444  15.900   0.684   7.202  0.0622 -0.0191  0.1429
  528loPI   C1B 8445  16.769   1.547   9.169 -0.0966 -0.0604  0.1273
  528loPI   C2B 8446  16.718   1.404   8.749  0.2945 -0.0962  0.0686
  528loPI   C3B 8447  16.819   1.701   8.446  0.3755 -0.0800  0.1121
  528loPI   C4B 8448  16.719   1.988   8.068 -0.0278 -0.2747  0.1788
  529loPI    C1 8449  17.698   0.056  10.396 -0.3038  0.1214 -0.1636
  529loPI    C2 8450  17.723   0.400  10.597 -0.0636  0.0256 -0.0247
  529loPI    C3 8451  17.591   0.070  10.781 -0.1362  0.0058 -0.1115
  529loPI   PO4 8452  17.922   0.139  10.201  0.0549 -0.2984 -0.2677
  529loPI   GL1 8453  17.778   0.379   9.770  0.1652 -0.4281 -0.0979
  529loPI   GL2 8454  18.074   0.231   9.700 -0.0519 -0.2321  0.0540
  529loPI   C1A 8455  17.633   0.443   9.413  0.1337 -0.2827 -0.0134
  529loPI   C2A 8456  17.571   0.455   8.977  0.2252 -0.0367  0.1727
  529loPI   C3A 8457  17.357   0.470   8.602  0.0894  0.1986  0.0551
  529loPI   C4A 8458  17.475   0.551   8.233  0.2446  0.1753  0.0166
  529loPI   C5A 8459  17.416   0.546   7.826 -0.0802  0.2139 -0.1959
  529loPI   C6A 8460  17.017   0.646   7.608 -0.2281 -0.1605  0.1161
  529loPI   C1B 8461  18.144   0.482   9.374 -0.0413  0.0515 -0.0831
  529loPI   C2B 8462  18.024   0.619   8.899 -0.3916  0.0442  0.0213
  529loPI   C3B 8463  17.868   0.712   8.530  0.1773 -0.0496  0.0987
  529loPI   C4B 8464  17.896   0.850   8.004  0.2279  0.1730 -0.2651
  530loPI    C1 8465  15.776  13.672  10.044 -0.0383  0.2685  0.1808
  530loPI    C2 8466  15.401  13.810  10.068 -0.3087 -0.3495 -0.2398
  530loPI    C3 8467  15.577  13.652  10.390 -0.4232 -0.0982 -0.0514
  530loPI   PO4 8468  15.930  13.820   9.801  0.5929  0.0156 -0.1122
  530loPI   GL1 8469  16.052  13.723   9.442  0.0397 -0.1838 -0.2424
  530loPI   GL2 8470  15.927  13.898   9.283  0.2032  0.2425  0.2659
  530loPI   C1A 8471  16.339  13.861   9.115 -0.0836 -0.3105  0.0765
  530loPI   C2A 8472  16.367  13.816   8.733 -0.0740  0.1132 -0.2728
  530loPI   C3A 8473  16.131  14.093   8.617 -0.0029 -0.3249  0.2479
  530loPI   C4A 8474  16.103  14.294   8.150 -0.0313  0.1688 -0.0558
  530loPI   C5A 8475  15.818  14.358   7.803  0.3259 -0.3258  0.0632
  530loPI   C6A 8476  15.606  14.555   7.486  0.1098 -0.2217  0.0867
  530loPI   C1B 8477  15.739  13.878   8.861  0.1501 -0.1446 -0.0017
  530loPI   C2B 8478  15.721  13.897   8.410 -0.0386 -0.1207 -0.1761
  530loPI   C3B 8479  15.885  13.919   7.994  0.3324  0.2782  0.3957
  530loPI   C4B 8480  16.122  13.915   7.647  0.0649 -0.1456 -0.0769
  531loPI    C1 8481   0.343  13.343  10.424 -0.0024 -0.0671 -0.0598
  531loPI    C2 8482   0.544  13.018  10.541 -0.0023 -0.1622 -0.3172
  531loPI    C3 8483   0.150  13.043  10.604  0.0563 -0.0513  0.0305
  531loPI   PO4 8484   0.464  13.369  10.127  0.1404 -0.2697 -0.0654
  531loPI   GL1 8485   0.384  13.388   9.710  0.0076 -0.0160  0.1163
  531loPI   GL2 8486   0.749  13.388   9.711  0.0282 -0.1743  0.0911
  531loPI   C1A 8487   0.483  13.756   9.411  0.1434  0.0616 -0.0075
  531loPI   C2A 8488   0.525  13.856   8.980 -0.0471 -0.0490  0.2167
  531loPI   C3A 8489   0.580  13.615   8.631 -0.1167 -0.2165 -0.2607
  531loPI   C4A 8490   0.869  13.551   8.314 -0.1505 -0.2590  0.1580
  531loPI   C5A 8491   1.053  13.231   8.074  0.2043  0.2422 -0.0390
  531loPI   C6A 8492   1.369  12.924   7.842 -0.0578 -0.1425 -0.1951
  531loPI   C1B 8493   0.983  13.078   9.493  0.0397  0.1059  0.0770
  531loPI   C2B 8494   1.179  13.140   9.126 -0.0314 -0.0896 -0.0954
  531loPI   C3B 8495   1.496  13.451   9.008  0.0394 -0.3216  0.1251
  531loPI   C4B 8496   1.699  13.534   8.720  0.2412  0.1922 -0.1583
  532loPI    C1 8497  10.446   6.797   9.920  0.0822 -0.0052  0.0336
  532loPI    C2 8498  10.599   6.478  10.105  0.1399  0.0440  0.0711
  532loPI    C3 8499  10.810   6.817  10.084  0.0996  0.0641 -0.0128
  532loPI   PO4 8500  10.318   6.686   9.714 -0.0271  0.2779 -0.2625
  532loPI   GL1 8501  10.305   6.478   9.318  0.0518  0.2771 -0.0650
  532loPI   GL2 8502  10.552   6.298   9.169  0.1723 -0.2127  0.5804
  532loPI   C1A 8503  10.198   6.497   8.797  0.0181 -0.1953 -0.0931
  532loPI   C2A 8504  10.100   6.501   8.306 -0.1699  0.1600  0.0498
  532loPI   C3A 8505  10.150   6.625   7.835 -0.2819  0.1839  0.2068
  532loPI   C4A 8506  10.019   6.785   7.515  0.0867 -0.1217 -0.1170
  532loPI   C5A 8507  10.288   6.841   7.303  0.0213 -0.0205  0.1868
  532loPI   C6A 8508  10.771   6.798   7.305  0.0186  0.1269 -0.0362
  532loPI   C1B 8509  10.589   6.209   8.706  0.0742 -0.2861 -0.2472
  532loPI   C2B 8510  10.527   5.904   8.350  0.1343  0.0036  0.0453
  532loPI   C3B 8511  10.516   5.705   7.957  0.0408  0.3183  0.0551
  532loPI   C4B 8512  10.411   5.671   7.610 -0.1245  0.0141  0.2098
  533loPI    C1 8513   8.203   4.092  10.182  0.3744 -0.2918 -0.1731
  533loPI    C2 8514   8.396   4.218  10.508 -0.0907  0.0217 -0.0082
  533loPI    C3 8515   8.260   3.843  10.489 -0.0524 -0.0010  0.1530
  533loPI   PO4 8516   8.361   4.146  10.015 -0.2265  0.0299  0.1499
  533loPI   GL1 8517   8.434   4.122   9.529  0.0911  0.2367 -0.0959
  533loPI   GL2 8518   8.307   4.344   9.387  0.4033 -0.2112  0.1167
  533loPI   C1A 8519   8.590   4.092   9.079 -0.1438 -0.1318  0.3392
  533loPI   C2A 8520   8.498   3.943   8.599 -0.2401  0.2415 -0.0530
  533loPI   C3A 8521   8.536   3.704   8.164  0.0445 -0.0449 -0.2510
  533loPI   C4A 8522   8.770   3.511   7.927  0.1330  0.2875 -0.2013
  533loPI   C5A 8523   8.854   3.175   7.641  0.0274  0.1930  0.1987
  533loPI   C6A 8524   9.191   2.953   7.428 -0.0006 -0.2180  0.0403
  533loPI   C1B 8525   8.202   4.402   8.958  0.0502 -0.1151 -0.3967
  533loPI   C2B 8526   8.101   4.200   8.517 -0.1384 -0.2348 -0.1333
  533loPI   C3B 8527   8.084   4.129   8.101  0.1952 -0.1221 -0.3400
  533loPI   C4B 8528   8.003   3.785   7.718  0.2184  0.0037  0.1685
  534loPI    C1 8529  17.810  11.268   9.986 -0.0500  0.1859 -0.2035
  534loPI    C2 8530  17.488  11.503   9.957  0.1786  0.5838  0.3213
  534loPI    C3 8531  17.525  11.251  10.266 -0.0185 -0.0948 -0.1853
  534loPI   PO4 8532  17.853  11.254   9.667  0.0595  0.0639  0.3542
  534loPI   GL1 8533  17.649  11.665   9.524 -0.1166  0.0709  0.1606
  534loPI   GL2 8534  17.880  11.821   9.460 -0.0880 -0.1416 -0.1355
  534loPI   C1A 8535  17.658  11.600   9.063 -0.1114  0.1938  0.0948
  534loPI   C2A 8536  17.566  11.405   8.622  0.1561  0.0320  0.0668
  534loPI   C3A 8537  17.538  11.489   8.269  0.1411 -0.1450 -0.0068
  534loPI   C4A 8538  17.179  11.310   8.045  0.3333  0.0858  0.0509
  534loPI   C5A 8539  16.984  11.291   7.697 -0.1776 -0.1035 -0.0904
  534loPI   C6A 8540  16.683  11.355   7.309 -0.0888 -0.1163 -0.0091
  534loPI   C1B 8541  18.047  11.919   9.078 -0.1170  0.1511  0.0478
  534loPI   C2B 8542  18.314  11.987   8.706 -0.0407  0.0375 -0.2368
  534loPI   C3B 8543  18.330  12.071   8.303  0.0229 -0.0182 -0.0884
  534loPI   C4B 8544  18.112  12.290   7.872  0.2457  0.0188 -0.0794
  535loPI    C1 8545   8.502   0.582   9.884 -0.0567 -0.1298 -0.1721
  535loPI    C2 8546   8.695   0.508  10.226  0.1062  0.1165 -0.2079
  535loPI    C3 8547   8.366   0.736  10.227 -0.0039 -0.0404 -0.1909
  535loPI   PO4 8548   8.770   0.666   9.721  0.1415 -0.4247 -0.1572
  535loPI   GL1 8549   8.675   0.952   9.317 -0.2004 -0.2742 -0.3232
  535loPI   GL2 8550   8.805   1.027   8.992  0.0452  0.3805 -0.0130
  535loPI   C1A 8551   8.603   0.582   8.984 -0.4157 -0.1232  0.2286
  535loPI   C2A 8552   8.355   0.501   8.551  0.0261  0.3643  0.0618
  535loPI   C3A 8553   8.214   0.062   8.340  0.1821  0.1885  0.1977
  535loPI   C4A 8554   8.212  -0.099   7.877 -0.0787 -0.4547  0.0523
  535loPI   C5A 8555   7.895  -0.453   7.741  0.1484  0.4308  0.0763
  535loPI   C6A 8556   8.052  -0.819   7.486 -0.0956 -0.1416  0.2271
  535loPI   C1B 8557   8.662   1.009   8.602  0.0435  0.0713  0.1051
  535loPI   C2B 8558   8.785   0.776   8.246  0.0723 -0.0349 -0.0219
  535loPI   C3B 8559   9.043   0.570   7.983 -0.1215  0.0134  0.0120
  535loPI   C4B 8560   9.096   0.549   7.619 -0.2768 -0.3227  0.3346
  536loPI    C1 8561   3.117   3.864   9.440 -0.2099 -0.1266 -0.0402
  536loPI    C2 8562   3.091   3.633   9.766 -0.1583 -0.0882 -0.0087
  536loPI    C3 8563   3.197   3.473   9.414 -0.0158 -0.0930  0.0355
  536loPI   PO4 8564   2.834   3.999   9.509 -0.1291 -0.1925  0.1549
  536loPI   GL1 8565   2.604   4.285   9.247  0.1464 -0.1056 -0.1868
  536loPI   GL2 8566   2.745   4.060   8.983 -0.0269 -0.1258 -0.0308
  536loPI   C1A 8567   2.338   4.428   8.859 -0.0048  0.0614  0.0449
  536loPI   C2A 8568   2.437   4.358   8.388  0.0056 -0.1965 -0.1148
  536loPI   C3A 8569   2.428   4.432   7.895 -0.1534  0.1967  0.0637
  536loPI   C4A 8570   2.364   4.258   7.497  0.0907  0.0126  0.0606
  536loPI   C5A 8571   2.361   3.979   7.176 -0.0481  0.2401 -0.0174
  536loPI   C6A 8572   2.156   3.568   7.040 -0.2581  0.3263 -0.1112
  536loPI   C1B 8573   2.864   3.838   8.569 -0.1642  0.0440 -0.0718
  536loPI   C2B 8574   3.117   3.716   8.325  0.1736  0.1061  0.0708
  536loPI   C3B 8575   3.196   3.648   7.891 -0.0383 -0.1156 -0.0766
  536loPI   C4B 8576   3.148   3.723   7.518 -0.0386  0.6834  0.0189
  537loPI    C1 8577   8.025   7.896   9.561 -0.1442 -0.0781 -0.2742
  537loPI    C2 8578   7.745   7.953   9.841  0.2142  0.1671  0.0450
  537loPI    C3 8579   7.821   7.584   9.705 -0.4682  0.1288 -0.2749
  537loPI   PO4 8580   7.981   8.100   9.382  0.0479  0.1093 -0.0190
  537loPI   GL1 8581   8.176   8.267   9.120 -0.0274  0.3576 -0.4016
  537loPI   GL2 8582   8.310   8.036   8.962  0.2768 -0.1314 -0.0408
  537loPI   C1A 8583   8.129   8.555   8.933 -0.5424 -0.1437 -0.0359
  537loPI   C2A 8584   8.039   8.608   8.505  0.0263 -0.3883  0.2371
  537loPI   C3A 8585   7.963   8.540   8.079  0.0414  0.1192 -0.0300
  537loPI   C4A 8586   8.095   8.393   7.630 -0.3104  0.2047 -0.1745
  537loPI   C5A 8587   8.301   8.304   7.239  0.0843 -0.1477 -0.1176
  537loPI   C6A 8588   8.455   8.044   7.035  0.1282 -0.1389  0.1664
  537loPI   C1B 8589   8.229   8.076   8.541  0.0119 -0.1263 -0.1493
  537loPI   C2B 8590   8.283   8.070   8.111  0.0663 -0.0409 -0.1159
  537loPI   C3B 8591   8.479   7.937   7.781  0.1288  0.2687  0.0643
  537loPI   C4B 8592   8.540   7.794   7.448 -0.1398  0.0765  0.0264
  538loPI    C1 8593  18.948   7.456  10.027  0.2458  0.2515  0.0912
  538loPI    C2 8594  19.208   7.543  10.318  0.2059  0.0330  0.1940
  538loPI    C3 8595  19.005   7.199  10.328 -0.0654  0.1875  0.0981
  538loPI   PO4 8596  18.812   7.731   9.972 -0.1542  0.0644 -0.2917
  538loPI   GL1 8597  18.616   7.882   9.544 -0.3021 -0.3344 -0.0733
  538loPI   GL2 8598  18.946   7.938   9.552 -0.0260  0.0093  0.0999
  538loPI   C1A 8599  18.533   7.625   9.191  0.4523  0.2248 -0.1732
  538loPI   C2A 8600  18.484   7.476   8.787  0.1127  0.1121 -0.2303
  538loPI   C3A 8601  18.456   7.533   8.383  0.0710  0.3039  0.0720
  538loPI   C4A 8602  18.779   7.776   8.060  0.2522  0.0088 -0.0293
  538loPI   C5A 8603  18.906   8.142   7.869  0.1545  0.0274 -0.0390
  538loPI   C6A 8604  18.986   8.509   7.663 -0.0834  0.0535 -0.0363
  538loPI   C1B 8605  18.898   8.078   9.054 -0.0335 -0.1665 -0.4036
  538loPI   C2B 8606  18.858   8.482   8.796  0.0614  0.0304  0.1334
  538loPI   C3B 8607  18.683   8.519   8.372 -0.3102 -0.0230  0.3148
  538loPI   C4B 8608  18.625   8.607   7.958  0.0829 -0.0803 -0.3912
  539loPI    C1 8609   3.949   1.198  10.414 -0.0994 -0.0274  0.0199
  539loPI    C2 8610   3.658   1.159  10.143 -0.1717  0.1320  0.0738
  539loPI    C3 8611   3.634   0.964  10.491 -0.1491  0.0410  0.0247
  539loPI   PO4 8612   4.133   1.128  10.192  0.2260 -0.1644 -0.4484
  539loPI   GL1 8613   4.113   1.143   9.650 -0.0966 -0.2035  0.3158
  539loPI   GL2 8614   4.163   1.378   9.590 -0.1301 -0.3074 -0.1428
  539loPI   C1A 8615   4.198   1.006   9.225  0.0801 -0.1994  0.1308
  539loPI   C2A 8616   4.142   1.014   8.754 -0.1639 -0.1973  0.4777
  539loPI   C3A 8617   3.796   0.978   8.377 -0.0230  0.1785 -0.0381
  539loPI   C4A 8618   3.730   0.979   7.978  0.2242 -0.0272  0.2562
  539loPI   C5A 8619   3.510   0.924   7.554 -0.1951 -0.1303  0.1905
  539loPI   C6A 8620   3.249   1.132   7.197 -0.0034  0.0001  0.1062
  539loPI   C1B 8621   4.111   1.560   9.099  0.3026 -0.1816  0.0557
  539loPI   C2B 8622   4.183   1.785   8.644  0.1277 -0.1756 -0.0637
  539loPI   C3B 8623   4.221   1.910   8.288 -0.1568  0.2682 -0.3117
  539loPI   C4B 8624   4.355   2.171   7.936 -0.1156 -0.2899  0.2220
  540loPI    C1 8625   3.596   5.520   9.445 -0.3154 -0.0772  0.0718
  540loPI    C2 8626   3.676   5.245   9.724  0.1738 -0.2359 -0.2118
  540loPI    C3 8627   3.473   5.143   9.395  0.0438 -0.1705 -0.1524
  540loPI   PO4 8628   3.815   5.680   9.363  0.3468  0.0522 -0.2500
  540loPI   GL1 8629   3.918   6.001   9.090  0.1622  0.2415 -0.0046
  540loPI   GL2 8630   3.698   6.301   9.119  0.1239  0.0789 -0.2478
  540loPI   C1A 8631   3.735   5.979   8.670 -0.0454  0.0292  0.0487
  540loPI   C2A 8632   3.866   5.881   8.219  0.0755 -0.1411  0.0979
  540loPI   C3A 8633   3.703   5.855   7.926  0.0294 -0.1323 -0.0228
  540loPI   C4A 8634   3.680   6.099   7.582 -0.0045  0.2280 -0.0776
  540loPI   C5A 8635   3.681   6.305   7.117 -0.2543 -0.0765 -0.1167
  540loPI   C6A 8636   3.524   6.395   6.870  0.0988  0.0711  0.0389
  540loPI   C1B 8637   3.474   6.376   8.729  0.0847  0.1690  0.1093
  540loPI   C2B 8638   3.662   6.545   8.346  0.2672  0.3348 -0.0952
  540loPI   C3B 8639   3.875   6.342   7.972 -0.0566  0.0150  0.0932
  540loPI   C4B 8640   3.669   6.611   7.519 -0.1274  0.2049 -0.1334
  541POPI    C1 8641   4.209  17.228   9.672 -0.2831 -0.2170  0.2437
  541POPI    C2 8642   4.041  17.591   9.665  0.0614 -0.0568 -0.1701
  541POPI    C3 8643   4.276  17.486   9.971  0.0733  0.1217 -0.1166
  541POPI   PO4 8644   4.303  17.220   9.445  0.1665 -0.2941  0.2536
  541POPI   GL1 8645   4.295  17.131   9.052  0.2739 -0.1413  0.1622
  541POPI   GL2 8646   4.012  16.888   9.211 -0.0926 -0.2283  0.4594
  541POPI   C1A 8647   4.712  16.855   9.006 -0.3583  0.0326  0.2110
  541POPI   D2A 8648   4.761  16.429   8.978  0.2653 -0.1083  0.3392
  541POPI   C3A 8649   4.691  16.462   8.562  0.0197  0.2602 -0.0002
  541POPI   C4A 8650   4.614  16.549   8.149  0.0636  0.0541  0.0263
  541POPI   C1B 8651   3.856  16.967   8.863 -0.0716  0.2299  0.2159
  541POPI   C2B 8652   3.828  16.689   8.475  0.3968 -0.1898  0.0856
  541POPI   C3B 8653   4.064  16.622   8.127  0.0407  0.1638  0.1521
  541POPI   C4B 8654   4.298  16.545   7.751 -0.3542  0.1338  0.0689
  542POPI    C1 8655   3.047   9.131  10.063 -0.0454 -0.1289  0.0618
  542POPI    C2 8656   3.212   9.419  10.286 -0.0517  0.0039 -0.1033
  542POPI    C3 8657   3.063   9.092  10.461  0.1008  0.0265  0.0725
  542POPI   PO4 8658   3.243   9.161   9.858  0.0578 -0.1930 -0.3530
  542POPI   GL1 8659   3.260   9.317   9.390  0.1209  0.2115 -0.1326
  542POPI   GL2 8660   3.615   9.520   9.281  0.1095  0.2452  0.0759
  542POPI   C1A 8661   3.247   9.290   8.976 -0.3576 -0.0750  0.1299
  542POPI   D2A 8662   3.242   9.305   8.548 -0.0224  0.2196 -0.0088
  542POPI   C3A 8663   2.934   9.293   8.251 -0.2323 -0.2444  0.1941
  542POPI   C4A 8664   2.886   9.158   7.749 -0.1786  0.1144  0.3095
  542POPI   C1B 8665   3.630   9.540   8.802 -0.1930 -0.1894 -0.1626
  542POPI   C2B 8666   3.645   9.482   8.312  0.0008 -0.2294 -0.1581
  542POPI   C3B 8667   3.687   9.613   7.879  0.1926  0.0489  0.2399
  542POPI   C4B 8668   3.607   9.932   7.557  0.3277 -0.2406  0.2899
  543POPI    C1 8669  15.311  17.948  10.189 -0.0983  0.1695 -0.0267
  543POPI    C2 8670  15.471  18.303  10.279  0.3386 -0.0739  0.1867
  543POPI    C3 8671  15.375  18.047  10.571 -0.1634 -0.0573  0.0445
  543POPI   PO4 8672  15.145  17.951   9.957 -0.0027 -0.1865  0.0522
  543POPI   GL1 8673  14.962  17.901   9.554 -0.1756 -0.3172 -0.1870
  543POPI   GL2 8674  14.989  18.205   9.443  0.3403 -0.1362 -0.0191
  543POPI   C1A 8675  15.176  17.741   9.173 -0.0510  0.2860  0.4535
  543POPI   D2A 8676  15.342  17.799   8.793  0.0319  0.1279  0.1588
  543POPI   C3A 8677  15.182  18.015   8.451  0.0370 -0.1548  0.2892
  543POPI   C4A 8678  15.134  18.016   8.131  0.0073 -0.2444 -0.1467
  543POPI   C1B 8679  15.051  18.544   9.164 -0.0653  0.1268  0.3787
  543POPI   C2B 8680  14.770  18.768   8.845  0.1462  0.0349  0.1461
  543POPI   C3B 8681  14.631  18.780   8.346  0.0237 -0.2456 -0.0641
  543POPI   C4B 8682  14.490  18.810   7.953  0.1362  0.3919  0.0828
  544POPI    C1 8683  18.551   0.402  10.568 -0.4854  0.0484 -0.1829
  544POPI    C2 8684  18.758   0.627  10.826  0.0135 -0.1235 -0.4209
  544POPI    C3 8685  18.366   0.571  10.880  0.0872 -0.0832  0.2459
  544POPI   PO4 8686  18.599   0.520  10.377  0.3270  0.1899 -0.0829
  544POPI   GL1 8687  18.463   0.441  10.061  0.2879 -0.1758  0.0633
  544POPI   GL2 8688  18.632   0.110  10.091  0.0112 -0.1855 -0.2707
  544POPI   C1A 8689  18.576   0.409   9.680 -0.0575  0.0948 -0.0462
  544POPI   D2A 8690  18.513   0.039   9.383 -0.1948  0.1088  0.0870
  544POPI   C3A 8691  18.417  -0.041   8.927 -0.0075  0.0693 -0.3696
  544POPI   C4A 8692  18.342  -0.004   8.474  0.2251 -0.0112  0.1294
  544POPI   C1B 8693  18.431  -0.168   9.904 -0.1799  0.0961 -0.3232
  544POPI   C2B 8694  18.254  -0.311   9.628 -0.1305  0.4707 -0.0293
  544POPI   C3B 8695  18.246  -0.390   9.189  0.4994  0.1097 -0.1748
  544POPI   C4B 8696  18.387  -0.517   8.764  0.2771 -0.0629  0.3251
  545POPI    C1 8697   1.407   8.807  10.148  0.0689  0.1939 -0.0876
  545POPI    C2 8698   1.560   8.983  10.473  0.1141  0.1551 -0.0879
  545POPI    C3 8699   1.526   8.584  10.458 -0.0561  0.1676 -0.0579
  545POPI   PO4 8700   1.513   8.896   9.943 -0.0601 -0.0869 -0.0492
  545POPI   GL1 8701   1.763   8.829   9.569 -0.0904  0.0290 -0.2332
  545POPI   GL2 8702   2.075   8.867   9.688  0.1385 -0.0678 -0.2113
  545POPI   C1A 8703   1.805   9.089   9.191 -0.1664 -0.0175 -0.1005
  545POPI   D2A 8704   1.850   9.359   8.709 -0.0637  0.0628 -0.0238
  545POPI   C3A 8705   1.567   9.619   8.699 -0.0207  0.2587  0.3589
  545POPI   C4A 8706   1.161   9.641   8.647 -0.3064  0.1311 -0.0450
  545POPI   C1B 8707   2.310   8.936   9.287 -0.4280  0.1690 -0.3309
  545POPI   C2B 8708   2.251   8.991   8.903  0.4340  0.1541  0.1004
  545POPI   C3B 8709   2.067   9.021   8.410  0.1044  0.1483  0.1953
  545POPI   C4B 8710   1.959   9.178   8.109 -0.3477 -0.1830 -0.0858
  546POPI    C1 8711  17.851   3.528  10.498 -0.0509  0.1727 -0.0391
  546POPI    C2 8712  17.836   3.733  10.841  0.0949 -0.0964  0.1310
  546POPI    C3 8713  17.630   3.392  10.802 -0.0583  0.0214 -0.1113
  546POPI   PO4 8714  17.811   3.607  10.253 -0.3312 -0.3394 -0.3119
  546POPI   GL1 8715  17.978   3.716   9.812  0.0332 -0.2699  0.6641
  546POPI   GL2 8716  17.814   4.015   9.681  0.0636 -0.1574 -0.0856
  546POPI   C1A 8717  17.874   3.311   9.731 -0.2251 -0.0628 -0.0267
  546POPI   D2A 8718  17.778   3.091   9.331 -0.0592 -0.1032  0.0069
  546POPI   C3A 8719  17.976   2.909   9.010  0.3400 -0.1403 -0.0990
  546POPI   C4A 8720  17.985   2.470   8.969 -0.0317  0.2632 -0.3617
  546POPI   C1B 8721  17.857   3.848   9.286 -0.0404 -0.2107 -0.1082
  546POPI   C2B 8722  17.815   3.811   8.771 -0.0918  0.2844 -0.1689
  546POPI   C3B 8723  17.704   3.586   8.365 -0.0099 -0.1206  0.0659
  546POPI   C4B 8724  17.968   3.332   8.059  0.3704 -0.0806  0.1790
  547POPI    C1 8725   2.078   8.010   9.917  0.0307  0.3141 -0.0483
  547POPI    C2 8726   2.430   7.957  10.099 -0.0148 -0.0009 -0.0463
  547POPI    C3 8727   2.165   8.217  10.248  0.1764  0.1653  0.0078
  547POPI   PO4 8728   1.903   7.840   9.888  0.1668  0.0848  0.1474
  547POPI   GL1 8729   1.492   7.853   9.645  0.0913 -0.3266  0.2073
  547POPI   GL2 8730   1.663   7.566   9.575  0.2210 -0.3422  0.1757
  547POPI   C1A 8731   1.347   7.969   9.290 -0.0679  0.2881  0.0626
  547POPI   D2A 8732   1.136   7.845   8.939 -0.3352 -0.3649 -0.1956
  547POPI   C3A 8733   1.179   8.231   8.716 -0.1386 -0.0080  0.0636
  547POPI   C4A 8734   1.260   8.385   8.287  0.0139 -0.1872 -0.0085
  547POPI   C1B 8735   1.454   7.484   9.140 -0.0433 -0.1234  0.0599
  547POPI   C2B 8736   1.498   7.412   8.783 -0.0337  0.0684  0.0569
  547POPI   C3B 8737   1.532   7.534   8.308  0.2903 -0.1602 -0.0622
  547POPI   C4B 8738   1.485   7.533   7.905  0.0540 -0.3033  0.2892
  548POPI    C1 8739  15.053  17.039  10.178  0.1323 -0.2427 -0.0083
  548POPI    C2 8740  14.955  16.652  10.163 -0.2294 -0.1541 -0.0225
  548POPI    C3 8741  14.673  16.931  10.114  0.0558  0.1124 -0.1769
  548POPI   PO4 8742  15.248  17.055   9.913 -0.0077 -0.3802 -0.2004
  548POPI   GL1 8743  15.566  16.979   9.754 -0.0948  0.0087 -0.0656
  548POPI   GL2 8744  15.897  16.729   9.612 -0.0006 -0.0901 -0.2986
  548POPI   C1A 8745  15.610  16.818   9.256 -0.1080  0.0409  0.0378
  548POPI   D2A 8746  15.801  16.472   9.039 -0.0990 -0.0380 -0.0200
  548POPI   C3A 8747  16.131  16.561   8.806 -0.0248 -0.0706  0.0141
  548POPI   C4A 8748  16.323  16.879   8.554  0.2636 -0.0472  0.0072
  548POPI   C1B 8749  16.160  16.860   9.281  0.0053  0.0947 -0.2940
  548POPI   C2B 8750  16.259  17.153   9.018 -0.2749 -0.2121 -0.3264
  548POPI   C3B 8751  16.376  17.442   8.730  0.1862 -0.0942 -0.1744
  548POPI   C4B 8752  16.459  17.346   8.348 -0.0399 -0.0245 -0.0414
  549POPI    C1 8753   5.449  12.632  10.512  0.2087  0.0385 -0.0913
  549POPI    C2 8754   5.811  12.714  10.663  0.1416  0.1070  0.0336
  549POPI    C3 8755   5.584  12.429  10.829  0.0654  0.1862  0.0666
  549POPI   PO4 8756   5.485  12.566  10.237 -0.0117  0.0046  0.1326
  549POPI   GL1 8757   5.344  12.688   9.837 -0.2569  0.2483 -0.0513
  549POPI   GL2 8758   5.758  12.760   9.813  0.1875 -0.0332  0.1876
  549POPI   C1A 8759   5.080  12.629   9.493 -0.0153 -0.2188 -0.2300
  549POPI   D2A 8760   5.136  12.748   9.132  0.0785  0.1131  0.4939
  549POPI   C3A 8761   4.921  13.066   8.949  0.3439  0.0616 -0.1511
  549POPI   C4A 8762   4.672  13.029   8.624  0.1573  0.1696 -0.4557
  549POPI   C1B 8763   6.054  13.035   9.519  0.0098  0.0417  0.0262
  549POPI   C2B 8764   6.296  13.020   9.221  0.0353 -0.0142 -0.1684
  549POPI   C3B 8765   6.237  13.265   8.783  0.2786  0.0241  0.0903
  549POPI   C4B 8766   6.383  13.677   8.582  0.2121  0.0551  0.1588
  550POPI    C1 8767   1.489  16.465  10.567 -0.1673 -0.2598  0.3342
  550POPI    C2 8768   1.785  16.197  10.542  0.0904  0.0430  0.0490
  550POPI    C3 8769   1.835  16.530  10.757  0.0204  0.1728 -0.1325
  550POPI   PO4 8770   1.291  16.349  10.322 -0.1570  0.0588 -0.4179
  550POPI   GL1 8771   1.283  16.462   9.848 -0.3889  0.0787 -0.2489
  550POPI   GL2 8772   1.388  16.238   9.630 -0.1274  0.1587  0.0470
  550POPI   C1A 8773   0.938  16.751   9.737 -0.1326 -0.1293 -0.0847
  550POPI   D2A 8774   1.111  17.029   9.473  0.2449 -0.0641  0.2163
  550POPI   C3A 8775   1.228  17.168   9.106  0.2531 -0.0348 -0.1466
  550POPI   C4A 8776   1.244  17.266   8.711 -0.2550  0.3357 -0.1428
  550POPI   C1B 8777   1.078  16.552   9.295  0.0259 -0.0458  0.0607
  550POPI   C2B 8778   1.067  16.758   8.880  0.0933  0.0323 -0.0518
  550POPI   C3B 8779   1.179  16.771   8.512 -0.1130  0.0118  0.0484
  550POPI   C4B 8780   1.087  17.052   8.218  0.0979 -0.0785  0.1155
  551POPI    C1 8781  17.756   5.726  10.500 -0.0611 -0.0645  0.0685
  551POPI    C2 8782  17.871   5.613  10.866 -0.0694  0.0100  0.0944
  551POPI    C3 8783  17.604   5.395  10.663 -0.1751  0.0477  0.1922
  551POPI   PO4 8784  17.995   5.708  10.312  0.3240 -0.0642 -0.0080
  551POPI   GL1 8785  17.817   5.860  10.000 -0.2044  0.0729  0.3256
  551POPI   GL2 8786  18.049   5.836   9.801  0.1782  0.1365  0.3239
  551POPI   C1A 8787  17.936   6.281   9.706  0.0854 -0.3441  0.0952
  551POPI   D2A 8788  18.142   6.637   9.461  0.4416 -0.0788  0.2112
  551POPI   C3A 8789  18.478   6.671   9.053  0.2558 -0.0121  0.2220
  551POPI   C4A 8790  18.506   6.336   8.809 -0.2800  0.0334 -0.0039
  551POPI   C1B 8791  17.711   5.793   9.496 -0.2304 -0.0706  0.1277
  551POPI   C2B 8792  17.758   5.882   9.075 -0.3334  0.0292 -0.1135
  551POPI   C3B 8793  17.693   5.767   8.582  0.0414 -0.1994 -0.0561
  551POPI   C4B 8794  17.789   5.906   8.182  0.0457  0.3184 -0.1854
  552POPI    C1 8795   2.384   8.688  10.096 -0.0294  0.0565 -0.1244
  552POPI    C2 8796   2.603   8.565  10.407 -0.0614 -0.0142 -0.1294
  552POPI    C3 8797   2.607   8.950  10.299  0.0607 -0.0149 -0.1302
  552POPI   PO4 8798   2.435   8.520   9.906 -0.4496  0.0837  0.2134
  552POPI   GL1 8799   2.678   8.314   9.575  0.2814 -0.2731  0.1965
  552POPI   GL2 8800   2.337   8.293   9.499 -0.2507 -0.0584  0.0151
  552POPI   C1A 8801   2.658   8.595   9.135 -0.0113  0.0114  0.0312
  552POPI   D2A 8802   2.533   8.575   8.728 -0.2125 -0.1735 -0.0697
  552POPI   C3A 8803   2.694   8.060   8.693  0.2741  0.0956 -0.0355
  552POPI   C4A 8804   2.358   7.731   8.799  0.2904 -0.0585 -0.0720
  552POPI   C1B 8805   2.293   8.166   9.054  0.3797 -0.4672  0.3450
  552POPI   C2B 8806   2.191   8.179   8.685 -0.1981 -0.1734  0.3088
  552POPI   C3B 8807   2.288   8.046   8.363  0.0895  0.0530 -0.0168
  552POPI   C4B 8808   2.571   7.734   8.327 -0.0806 -0.1391 -0.0338
  553POPI    C1 8809   8.013   0.867   9.873  0.0288 -0.3137  0.1801
  553POPI    C2 8810   7.801   0.837   9.536  0.1841 -0.0068  0.0510
  553POPI    C3 8811   7.768   0.556   9.819 -0.1366 -0.1365 -0.1102
  553POPI   PO4 8812   8.231   0.976   9.751  0.1842 -0.0162 -0.1708
  553POPI   GL1 8813   8.217   1.157   9.428  0.0606 -0.1147 -0.0586
  553POPI   GL2 8814   8.389   1.355   9.365 -0.0162 -0.0995 -0.0038
  553POPI   C1A 8815   7.805   1.107   9.092 -0.0445  0.0802 -0.3187
  553POPI   D2A 8816   7.577   1.267   8.866 -0.1792  0.1071 -0.1184
  553POPI   C3A 8817   7.744   1.288   8.459 -0.3148  0.0031 -0.7214
  553POPI   C4A 8818   7.970   1.393   8.109 -0.2460  0.1177 -0.1065
  553POPI   C1B 8819   8.243   1.344   8.954  0.4087  0.1540 -0.0591
  553POPI   C2B 8820   8.278   1.248   8.483 -0.2591  0.2764 -0.0295
  553POPI   C3B 8821   8.277   0.903   8.234  0.0625 -0.0170 -0.1433
  553POPI   C4B 8822   8.175   0.515   8.023 -0.0175  0.0820  0.1123
  554POPI    C1 8823   1.892   4.076  10.003 -0.0161 -0.2032 -0.2871
  554POPI    C2 8824   2.207   3.847  10.093 -0.0137 -0.1071 -0.0441
  554POPI    C3 8825   1.840   3.738  10.210 -0.0173 -0.0084  0.0383
  554POPI   PO4 8826   1.979   4.199   9.740  0.5334 -0.1698 -0.0375
  554POPI   GL1 8827   2.069   4.259   9.295 -0.0392  0.1028  0.0557
  554POPI   GL2 8828   2.205   3.969   9.085  0.0486  0.0974  0.0768
  554POPI   C1A 8829   2.146   4.727   9.198 -0.0271  0.0260 -0.0753
  554POPI   D2A 8830   2.130   5.126   9.015  0.2833  0.1055  0.2200
  554POPI   C3A 8831   2.220   4.984   8.588  0.1718 -0.0260 -0.1433
  554POPI   C4A 8832   2.010   4.721   8.421  0.1163 -0.2684  0.3582
  554POPI   C1B 8833   2.270   3.922   8.733 -0.2122  0.0277  0.0903
  554POPI   C2B 8834   2.241   3.839   8.321 -0.0480 -0.3072 -0.2567
  554POPI   C3B 8835   2.219   3.835   7.919  0.2413 -0.2841  0.1490
  554POPI   C4B 8836   2.265   3.589   7.577  0.3187  0.2142 -0.1579
  555POPI    C1 8837  11.793   9.293  10.082 -0.2307  0.1515  0.1623
  555POPI    C2 8838  12.001   9.004  10.265 -0.0926  0.2766  0.2041
  555POPI    C3 8839  11.624   8.936  10.149 -0.0080  0.0267  0.0686
  555POPI   PO4 8840  11.989   9.398   9.922 -0.1397  0.0352 -0.0558
  555POPI   GL1 8841  11.856   9.537   9.632  0.3044 -0.0879 -0.1413
  555POPI   GL2 8842  12.194   9.620   9.512 -0.0877 -0.1161  0.2196
  555POPI   C1A 8843  11.719   9.472   9.277 -0.3392 -0.2787 -0.1068
  555POPI   D2A 8844  11.532   9.477   9.037 -0.1615 -0.0190  0.1648
  555POPI   C3A 8845  11.571   9.534   8.633 -0.3736  0.4216 -0.1596
  555POPI   C4A 8846  11.868   9.591   8.421 -0.2951 -0.0597  0.1761
  555POPI   C1B 8847  12.140   9.580   9.055  0.0826 -0.1139 -0.2426
  555POPI   C2B 8848  11.945   9.813   8.841 -0.0006  0.0869 -0.0954
  555POPI   C3B 8849  12.006  10.085   8.449 -0.3956 -0.2515 -0.2369
  555POPI   C4B 8850  11.906  10.269   7.978  0.0749 -0.0157  0.2052
  556POPI    C1 8851   6.475   7.845   9.315  0.0904  0.1853 -0.2886
  556POPI    C2 8852   6.636   8.038   9.626  0.0947 -0.2094 -0.0390
  556POPI    C3 8853   6.830   7.730   9.460  0.0376 -0.0754 -0.3611
  556POPI   PO4 8854   6.188   7.714   9.394 -0.3329 -0.2339  0.1649
  556POPI   GL1 8855   5.750   7.678   9.059  0.3157 -0.5444 -0.0357
  556POPI   GL2 8856   5.964   7.923   8.934 -0.2640  0.1021  0.0230
  556POPI   C1A 8857   5.717   7.373   8.687 -0.0508 -0.0547 -0.0471
  556POPI   D2A 8858   6.022   7.049   8.545 -0.2772 -0.4430  0.1581
  556POPI   C3A 8859   6.289   7.181   8.246  0.2306  0.1341  0.3143
  556POPI   C4A 8860   6.559   7.554   8.144  0.2083 -0.2154  0.2435
  556POPI   C1B 8861   5.818   7.890   8.516 -0.0900 -0.1159  0.0290
  556POPI   C2B 8862   5.945   7.947   8.126 -0.1560  0.0132  0.0598
  556POPI   C3B 8863   5.736   7.904   7.725  0.1367  0.1759 -0.0700
  556POPI   C4B 8864   5.752   7.726   7.342 -0.1310 -0.1472 -0.2539
  557POPI    C1 8865   7.238  16.671  10.024  0.0202 -0.0414  0.1182
  557POPI    C2 8866   7.636  16.698  10.046  0.0249 -0.1350  0.1492
  557POPI    C3 8867   7.437  16.459  10.297 -0.0507 -0.0905  0.1320
  557POPI   PO4 8868   7.134  16.548   9.840  0.0620 -0.0995 -0.3125
  557POPI   GL1 8869   6.998  16.299   9.506 -0.1187 -0.1677 -0.0770
  557POPI   GL2 8870   6.778  16.261   9.541  0.0114  0.1013 -0.2790
  557POPI   C1A 8871   7.045  16.113   9.145  0.0274 -0.0125 -0.3004
  557POPI   D2A 8872   7.152  16.085   8.665  0.1976  0.2125  0.0766
  557POPI   C3A 8873   7.047  16.055   8.210  0.0564 -0.0917  0.0268
  557POPI   C4A 8874   6.794  16.321   7.834 -0.0657  0.1116 -0.1380
  557POPI   C1B 8875   6.572  16.384   9.229  0.0460  0.0393 -0.0246
  557POPI   C2B 8876   6.728  16.316   8.803 -0.1817  0.2461 -0.3142
  557POPI   C3B 8877   6.666  16.556   8.404 -0.0448 -0.1037 -0.1070
  557POPI   C4B 8878   6.562  16.836   8.023  0.0158 -0.1364  0.1315
  558POPI    C1 8879   7.184   0.339  10.150  0.0536 -0.1345 -0.1143
  558POPI    C2 8880   7.531   0.510  10.251 -0.0817  0.1276 -0.0866
  558POPI    C3 8881   7.216   0.537  10.496 -0.1091 -0.1536 -0.0876
  558POPI   PO4 8882   7.226   0.347   9.776 -0.1206  0.2111 -0.2324
  558POPI   GL1 8883   7.333   0.086   9.396 -0.1074  0.2451  0.1815
  558POPI   GL2 8884   7.507   0.388   9.397  0.1899 -0.1611 -0.2189
  558POPI   C1A 8885   7.227   0.194   9.051 -0.2086  0.1032  0.0723
  558POPI   D2A 8886   7.152   0.510   8.644  0.0685  0.1637 -0.0285
  558POPI   C3A 8887   7.242   0.563   8.153  0.1153  0.4907  0.0780
  558POPI   C4A 8888   7.538   0.645   7.842  0.4957 -0.2646  0.0979
  558POPI   C1B 8889   7.765   0.035   9.137  0.1959  0.2225  0.3322
  558POPI   C2B 8890   7.888  -0.338   8.899  0.2876 -0.0298 -0.2822
  558POPI   C3B 8891   7.694  -0.818   8.894  0.0277  0.2118 -0.2320
  558POPI   C4B 8892   7.443  -0.873   8.673 -0.1230  0.1388  0.0137
  559POPI    C1 8893  12.794  15.509   9.459 -0.2285  0.0000  0.1662
  559POPI    C2 8894  12.603  15.511   9.811 -0.0488  0.0705  0.2645
  559POPI    C3 8895  12.908  15.762   9.747 -0.1922  0.1806 -0.0044
  559POPI   PO4 8896  12.608  15.490   9.244 -0.0738 -0.2777  0.0410
  559POPI   GL1 8897  12.505  15.570   8.762 -0.2112  0.1307 -0.1557
  559POPI   GL2 8898  12.233  15.798   9.023 -0.2657 -0.0119 -0.0564
  559POPI   C1A 8899  12.475  15.922   8.373  0.0944 -0.1470  0.1626
  559POPI   D2A 8900  12.505  16.349   8.331  0.1035  0.2998 -0.0832
  559POPI   C3A 8901  12.708  16.521   7.932  0.3203  0.1796 -0.0305
  559POPI   C4A 8902  12.874  16.844   7.684 -0.2041  0.1086  0.0246
  559POPI   C1B 8903  12.021  15.752   8.716  0.2005 -0.0808  0.1040
  559POPI   C2B 8904  12.047  15.642   8.272 -0.2905  0.1422 -0.2507
  559POPI   C3B 8905  12.343  15.566   7.888  0.0505 -0.1946  0.1685
  559POPI   C4B 8906  12.788  15.491   7.804  0.2421 -0.1086 -0.0289
  560POPI    C1 8907  10.616  14.510   9.857 -0.0604  0.0576  0.0629
  560POPI    C2 8908  10.656  14.846   9.643  0.0047  0.0167  0.0106
  560POPI    C3 8909  10.757  14.842  10.030 -0.0785  0.0808  0.0334
  560POPI   PO4 8910  10.661  14.300   9.746 -0.1900  0.1636 -0.0216
  560POPI   GL1 8911  10.435  14.095   9.341 -0.0166  0.0085 -0.0029
  560POPI   GL2 8912  10.646  14.440   9.300 -0.1222 -0.0423 -0.1115
  560POPI   C1A 8913  10.147  13.969   8.984  0.1203  0.1943  0.0600
  560POPI   D2A 8914  10.187  13.786   8.577  0.3932 -0.1005 -0.0908
  560POPI   C3A 8915  10.487  13.540   8.474 -0.1666 -0.3305  0.1200
  560POPI   C4A 8916  10.694  13.140   8.405 -0.2797  0.0166  0.1935
  560POPI   C1B 8917  10.521  14.712   8.944  0.0910 -0.1485 -0.1504
  560POPI   C2B 8918  10.296  14.685   8.520 -0.0304 -0.2776  0.0867
  560POPI   C3B 8919  10.309  14.590   8.134 -0.1077 -0.1493  0.0696
  560POPI   C4B 8920  10.359  14.338   7.828  0.0229 -0.2076 -0.3392
  561POPI    C1 8921  18.388   1.467  10.242  0.1000  0.1937  0.0728
  561POPI    C2 8922  18.755   1.368  10.367  0.0031 -0.1201  0.1161
  561POPI    C3 8923  18.508   1.568  10.610  0.0728 -0.0890  0.1616
  561POPI   PO4 8924  18.437   1.569  10.034 -0.2021  0.2012  0.1844
  561POPI   GL1 8925  18.808   1.501   9.785 -0.0094  0.2702  0.0415
  561POPI   GL2 8926  18.505   1.208   9.639  0.0174  0.3479 -0.0327
  561POPI   C1A 8927  18.490   1.701   9.362  0.1194  0.1850 -0.7177
  561POPI   D2A 8928  18.389   1.893   9.068  0.3137  0.1256 -0.3316
  561POPI   C3A 8929  18.235   1.816   8.850 -0.0197  0.0203  0.1837
  561POPI   C4A 8930  18.279   1.576   8.578 -0.0524 -0.1223  0.2666
  561POPI   C1B 8931  18.733   1.239   9.280  0.3339 -0.0585 -0.1432
  561POPI   C2B 8932  18.579   1.072   8.905 -0.1947  0.0504  0.2914
  561POPI   C3B 8933  18.481   0.758   8.563 -0.1891 -0.0172 -0.0271
  561POPI   C4B 8934  18.270   0.507   8.280 -0.2858 -0.1140  0.1187
  562POPI    C1 8935  16.551   2.932  10.478  0.0280 -0.4074  0.1110
  562POPI    C2 8936  16.844   2.873  10.744  0.2170 -0.1977 -0.0478
  562POPI    C3 8937  16.476   2.968  10.870  0.3010 -0.1153  0.1402
  562POPI   PO4 8938  16.677   3.023  10.277  0.0824 -0.3540 -0.4711
  562POPI   GL1 8939  16.828   2.927   9.846  0.0978  0.2238 -0.0828
  562POPI   GL2 8940  16.653   3.270   9.815  0.3303 -0.1956  0.1906
  562POPI   C1A 8941  17.094   2.845   9.535 -0.1494  0.2994 -0.5307
  562POPI   D2A 8942  17.132   2.893   9.215  0.1802  0.0782 -0.0280
  562POPI   C3A 8943  17.457   2.976   8.929  0.0979 -0.1035  0.2459
  562POPI   C4A 8944  17.665   2.721   8.639  0.0767 -0.0145  0.1184
  562POPI   C1B 8945  16.662   3.056   9.385  0.0153 -0.0081 -0.0743
  562POPI   C2B 8946  16.736   2.920   8.944  0.0719  0.2189 -0.0097
  562POPI   C3B 8947  16.716   2.749   8.466  0.0652  0.1178  0.2770
  562POPI   C4B 8948  16.541   2.521   8.116 -0.3006 -0.0046 -0.1348
  563POPI    C1 8949  15.352  11.279   9.871  0.0576 -0.1077  0.0491
  563POPI    C2 8950  15.353  11.072  10.213 -0.0664  0.0633  0.1539
  563POPI    C3 8951  15.523  11.434  10.197  0.1195 -0.0305 -0.0198
  563POPI   PO4 8952  15.381  11.112   9.724  0.0569 -0.0160 -0.0422
  563POPI   GL1 8953  15.373  10.771   9.482 -0.0026 -0.1890 -0.1198
  563POPI   GL2 8954  15.545  10.507   9.512  0.0763  0.1032  0.1457
  563POPI   C1A 8955  15.635  10.826   9.081  0.0281  0.3539 -0.0735
  563POPI   D2A 8956  15.914  10.944   8.826  0.1203 -0.1698  0.0594
  563POPI   C3A 8957  15.742  10.995   8.221 -0.1825  0.0128 -0.2285
  563POPI   C4A 8958  15.671  10.605   7.985  0.2079  0.0118  0.2232
  563POPI   C1B 8959  15.392  10.349   8.981  0.0637 -0.0824  0.0592
  563POPI   C2B 8960  15.141  10.280   8.674  0.1280 -0.2258 -0.1086
  563POPI   C3B 8961  15.098  10.215   8.163 -0.0134  0.1344  0.0653
  563POPI   C4B 8962  15.188  10.627   7.856 -0.1132  0.1667  0.3038
  564POPI    C1 8963  17.409   4.299  10.342  0.3130  0.1385  0.0752
  564POPI    C2 8964  17.779   4.188  10.238  0.3698  0.1186  0.2942
  564POPI    C3 8965  17.569   3.968  10.498  0.0643 -0.0677 -0.0990
  564POPI   PO4 8966  17.343   4.488  10.098  0.0691 -0.0885  0.1682
  564POPI   GL1 8967  17.084   4.462   9.732  0.1793  0.0705 -0.0754
  564POPI   GL2 8968  17.313   4.632   9.627  0.0350  0.0595  0.0036
  564POPI   C1A 8969  16.832   4.682   9.518 -0.0264  0.0757 -0.0437
  564POPI   D2A 8970  16.935   4.934   9.089 -0.1275  0.2165 -0.1130
  564POPI   C3A 8971  17.104   4.992   8.677 -0.1275 -0.1811  0.1318
  564POPI   C4A 8972  17.331   5.065   8.304  0.2505  0.1539  0.0124
  564POPI   C1B 8973  17.502   4.804   9.250  0.0143 -0.1792  0.2869
  564POPI   C2B 8974  17.592   4.858   8.751 -0.1377  0.0243 -0.1531
  564POPI   C3B 8975  17.845   5.154   8.442 -0.2916  0.1111  0.0876
  564POPI   C4B 8976  17.788   5.446   8.034  0.1272  0.1131  0.2191
  565POPI    C1 8977  12.071  15.572   9.962 -0.1553  0.0657 -0.1090
  565POPI    C2 8978  11.758  15.673  10.190 -0.1206 -0.0481 -0.0096
  565POPI    C3 8979  11.854  15.895   9.871 -0.1476  0.1333  0.1068
  565POPI   PO4 8980  11.936  15.328   9.845  0.2430 -0.3536 -0.0450
  565POPI   GL1 8981  11.702  15.191   9.448  0.0975  0.0216  0.2172
  565POPI   GL2 8982  11.834  15.183   9.188  0.0858 -0.1375  0.0919
  565POPI   C1A 8983  11.288  15.219   9.296  0.2123  0.0698 -0.0149
  565POPI   D2A 8984  10.962  15.366   9.271  0.2757  0.2167  0.0184
  565POPI   C3A 8985  11.111  15.411   8.792  0.0445  0.0085  0.1455
  565POPI   C4A 8986  10.989  15.358   8.335  0.2555 -0.1726 -0.0667
  565POPI   C1B 8987  11.935  15.122   8.691  0.2683  0.1002 -0.0338
  565POPI   C2B 8988  11.963  15.051   8.328 -0.1604  0.3965  0.2325
  565POPI   C3B 8989  11.946  15.231   7.924 -0.1434 -0.0465  0.1464
  565POPI   C4B 8990  11.479  15.384   7.784 -0.2515 -0.0350 -0.2958
  566POPI    C1 8991  12.106  10.454   9.997 -0.2309  0.1162  0.0561
  566POPI    C2 8992  11.909  10.200  10.236  0.1390 -0.0666  0.1737
  566POPI    C3 8993  12.042  10.549  10.380 -0.1748  0.1002  0.0695
  566POPI   PO4 8994  12.339  10.312   9.895  0.2214  0.1306 -0.1594
  566POPI   GL1 8995  12.415  10.249   9.581  0.3166  0.3075 -0.2007
  566POPI   GL2 8996  12.666  10.224   9.287 -0.0801 -0.1135 -0.0481
  566POPI   C1A 8997  12.124  10.537   9.256 -0.2475 -0.2695  0.0466
  566POPI   D2A 8998  11.960  10.840   9.027 -0.1293 -0.1663 -0.6339
  566POPI   C3A 8999  12.132  11.159   8.797 -0.0433 -0.0171  0.0423
  566POPI   C4A 9000  12.194  11.578   8.669  0.0005 -0.3768  0.1630
  566POPI   C1B 9001  12.711  10.133   8.772  0.1933 -0.1841  0.1911
  566POPI   C2B 9002  12.795  10.068   8.376 -0.2495 -0.3002  0.1678
  566POPI   C3B 9003  12.789   9.783   8.069 -0.0323 -0.1751 -0.1542
  566POPI   C4B 9004  12.490   9.835   7.752 -0.2417  0.0105 -0.0112
  567POPI    C1 9005   4.491  16.477   9.927 -0.0112 -0.2146 -0.0439
  567POPI    C2 9006   4.420  16.139  10.128  0.0120 -0.1158  0.1328
  567POPI    C3 9007   4.183  16.456  10.181 -0.0018 -0.0990 -0.0224
  567POPI   PO4 9008   4.687  16.419   9.767  0.0866  0.0679 -0.0008
  567POPI   GL1 9009   4.846  16.189   9.460 -0.2977  0.0948 -0.1240
  567POPI   GL2 9010   4.409  16.171   9.322 -0.1044  0.1929  0.2612
  567POPI   C1A 9011   4.787  15.709   9.295  0.0619  0.0873  0.1407
  567POPI   D2A 9012   4.840  15.484   8.942 -0.0913 -0.2395 -0.0794
  567POPI   C3A 9013   4.710  15.494   8.588  0.0802 -0.0872 -0.0575
  567POPI   C4A 9014   4.426  15.202   8.281 -0.0796  0.2349  0.0729
  567POPI   C1B 9015   4.477  15.970   8.919  0.2428  0.1996  0.3412
  567POPI   C2B 9016   4.363  15.980   8.474  0.0981  0.1862 -0.3630
  567POPI   C3B 9017   4.538  15.695   8.093  0.0739  0.1910  0.0162
  567POPI   C4B 9018   4.649  15.889   7.707  0.0494  0.0209  0.0665
  568POPI    C1 9019  16.895   1.721  10.147 -0.0114 -0.4382  0.0950
  568POPI    C2 9020  16.506   1.629  10.171 -0.0915 -0.1144  0.0913
  568POPI    C3 9021  16.716   1.698  10.504 -0.1211  0.0416  0.0781
  568POPI   PO4 9022  16.904   1.860  10.029 -0.1311  0.0028  0.1291
  568POPI   GL1 9023  16.979   1.960   9.650 -0.1814  0.0980  0.0639
  568POPI   GL2 9024  16.775   1.952   9.425  0.1855  0.3107  0.1010
  568POPI   C1A 9025  16.992   2.351   9.222  0.1062 -0.1033 -0.1985
  568POPI   D2A 9026  17.043   2.587   8.730 -0.1855 -0.0952  0.0239
  568POPI   C3A 9027  17.140   2.956   8.570 -0.0943  0.4319  0.0572
  568POPI   C4A 9028  17.036   3.057   8.154 -0.1770 -0.1198 -0.1194
  568POPI   C1B 9029  16.480   1.956   9.107  0.1713 -0.0977 -0.0353
  568POPI   C2B 9030  16.330   1.769   8.707 -0.0814  0.0299 -0.1839
  568POPI   C3B 9031  16.293   1.658   8.301  0.1038  0.2332  0.0724
  568POPI   C4B 9032  16.193   1.575   7.894 -0.2558 -0.1333  0.0652
  569POPI    C1 9033   3.008   3.115   9.866 -0.0045 -0.0557 -0.0272
  569POPI    C2 9034   3.385   3.105  10.000 -0.0431  0.0649  0.0920
  569POPI    C3 9035   3.080   3.084  10.258 -0.1189 -0.1503 -0.0131
  569POPI   PO4 9036   2.877   2.953   9.678  0.0264 -0.1768  0.3260
  569POPI   GL1 9037   2.626   3.016   9.322 -0.0502 -0.1627 -0.3331
  569POPI   GL2 9038   2.812   3.214   8.988  0.0332 -0.0276 -0.1220
  569POPI   C1A 9039   2.656   2.736   8.999  0.0919  0.1759 -0.0383
  569POPI   D2A 9040   2.720   2.651   8.593 -0.0781 -0.0498  0.1705
  569POPI   C3A 9041   2.956   2.685   8.255 -0.0125  0.4306  0.1025
  569POPI   C4A 9042   3.086   2.638   7.839  0.2498 -0.0204 -0.1765
  569POPI   C1B 9043   2.920   3.227   8.584 -0.2103  0.0163 -0.0685
  569POPI   C2B 9044   2.842   3.313   8.071 -0.2622  0.1994  0.0002
  569POPI   C3B 9045   2.625   3.273   7.653 -0.0636  0.1245  0.1144
  569POPI   C4B 9046   2.408   3.159   7.297  0.0055 -0.1450 -0.0465
  570POPI    C1 9047  11.116   4.780   9.976 -0.0767  0.1858 -0.1777
  570POPI    C2 9048  10.828   5.042  10.070 -0.1399 -0.0790  0.4182
  570POPI    C3 9049  11.207   5.113  10.177 -0.0809 -0.0235  0.1800
  570POPI   PO4 9050  11.033   4.705   9.707  0.1358 -0.1758 -0.0573
  570POPI   GL1 9051  10.870   4.678   9.338 -0.1747  0.0737  0.1172
  570POPI   GL2 9052  10.815   4.368   9.130  0.1166 -0.3672  0.0176
  570POPI   C1A 9053  10.952   4.888   9.001 -0.0993  0.0226  0.3727
  570POPI   D2A 9054  11.344   5.042   8.762  0.2958 -0.0396  0.1443
  570POPI   C3A 9055  11.236   5.477   8.563 -0.0853  0.0442  0.0068
  570POPI   C4A 9056  11.283   5.845   8.251  0.2301 -0.0207  0.1426
  570POPI   C1B 9057  10.916   4.480   8.652 -0.0051  0.1322  0.2209
  570POPI   C2B 9058  11.247   4.652   8.403  0.1140 -0.1014  0.0176
  570POPI   C3B 9059  11.380   4.559   8.042 -0.0157 -0.0560  0.1578
  570POPI   C4B 9060  11.446   4.429   7.644 -0.3300 -0.1584 -0.1273
  571POPI    C1 9061   5.758  13.443  10.320  0.1046  0.2022 -0.0447
  571POPI    C2 9062   5.455  13.288  10.531  0.0144  0.3839 -0.0389
  571POPI    C3 9063   5.697  13.047  10.321 -0.1222  0.2363 -0.0287
  571POPI   PO4 9064   5.642  13.643  10.173  0.0728 -0.0969 -0.0912
  571POPI   GL1 9065   5.750  13.957   9.705 -0.3836 -0.0599 -0.4333
  571POPI   GL2 9066   5.538  14.201   9.830 -0.1052  0.0035  0.1550
  571POPI   C1A 9067   5.830  14.129   9.344 -0.2178 -0.2104 -0.0401
  571POPI   D2A 9068   5.680  14.225   9.007 -0.2109  0.2475  0.1602
  571POPI   C3A 9069   5.492  13.942   8.738 -0.0164  0.1547 -0.2975
  571POPI   C4A 9070   5.422  13.897   8.272  0.0348 -0.2647  0.1404
  571POPI   C1B 9071   5.437  14.427   9.506 -0.1822 -0.0252  0.0639
  571POPI   C2B 9072   5.256  14.373   9.131  0.2454  0.2630  0.0969
  571POPI   C3B 9073   5.242  14.339   8.745  0.0946  0.2004  0.1610
  571POPI   C4B 9074   5.579  14.424   8.485  0.2616  0.1199 -0.0105
  572POPI    C1 9075   4.148  15.359   9.807 -0.1749 -0.1137  0.0149
  572POPI    C2 9076   4.545  15.318   9.813 -0.1484  0.1014 -0.1637
  572POPI    C3 9077   4.326  15.178  10.116  0.0760  0.1118  0.0064
  572POPI   PO4 9078   4.159  15.673   9.782 -0.0722 -0.3493 -0.1554
  572POPI   GL1 9079   4.113  15.778   9.400  0.2005 -0.0291 -0.1985
  572POPI   GL2 9080   4.336  15.538   9.246  0.1901  0.2028 -0.0066
  572POPI   C1A 9081   3.904  15.743   8.856  0.0873 -0.1137 -0.2705
  572POPI   D2A 9082   3.664  15.927   8.472  0.0405  0.0616 -0.0594
  572POPI   C3A 9083   3.967  16.185   8.355 -0.0086 -0.0451  0.1265
  572POPI   C4A 9084   4.293  16.092   7.981 -0.0578 -0.2818  0.0695
  572POPI   C1B 9085   4.238  15.459   8.712  0.0283  0.3931 -0.0967
  572POPI   C2B 9086   4.018  15.576   8.324  0.3110  0.0235  0.1607
  572POPI   C3B 9087   3.901  15.788   7.978 -0.2577  0.3029 -0.2795
  572POPI   C4B 9088   3.826  16.165   7.808  0.2103  0.1861  0.3296
  573POPI    C1 9089   6.818   5.916   9.705  0.0776 -0.0423 -0.1356
  573POPI    C2 9090   6.581   5.995  10.017  0.2438 -0.2043  0.0340
  573POPI    C3 9091   6.920   6.201   9.966  0.1507 -0.0863 -0.1159
  573POPI   PO4 9092   6.686   5.953   9.530 -0.0248  0.1128 -0.0508
  573POPI   GL1 9093   6.335   5.818   9.290  0.0553  0.3738 -0.0796
  573POPI   GL2 9094   6.535   5.819   9.023  0.1620 -0.2260 -0.1189
  573POPI   C1A 9095   6.148   5.531   8.968  0.2284  0.2404  0.1095
  573POPI   D2A 9096   6.096   5.244   8.753 -0.0883  0.1462 -0.1067
  573POPI   C3A 9097   6.427   5.150   8.434 -0.2093  0.0998 -0.2278
  573POPI   C4A 9098   6.302   5.058   8.010  0.0469 -0.2639 -0.1046
  573POPI   C1B 9099   6.485   5.711   8.581 -0.0816 -0.0332 -0.1027
  573POPI   C2B 9100   6.173   5.600   8.301  0.2489  0.0356 -0.0362
  573POPI   C3B 9101   6.200   5.640   7.787  0.0957 -0.1298 -0.1821
  573POPI   C4B 9102   6.142   5.693   7.284 -0.3623 -0.1309 -0.0067
  574DPPI    C1 9103   0.011  10.070  10.058  0.0565  0.0803 -0.0308
  574DPPI    C2 9104   0.176  10.370  10.264  0.1238  0.0368 -0.0210
  574DPPI    C3 9105  -0.132  10.167  10.419  0.2111 -0.0331  0.0620
  574DPPI   PO4 9106   0.055  10.075   9.786 -0.4159  0.3372  0.0164
  574DPPI   GL1 9107   0.457  10.132   9.618  0.2150  0.1164 -0.0587
  574DPPI   GL2 9108   0.459   9.812   9.617  0.0098  0.1549 -0.0244
  574DPPI   C1A 9109   0.346  10.058   9.162  0.3627  0.0501 -0.0786
  574DPPI   C2A 9110   0.264  10.081   8.748  0.4813 -0.0643  0.1171
  574DPPI   C3A 9111   0.176   9.848   8.240 -0.2546 -0.0194  0.2606
  574DPPI   C4A 9112   0.307   9.955   7.810  0.1544  0.0566  0.0428
  574DPPI   C1B 9113   0.413   9.528   9.309 -0.0398  0.6382  0.0165
  574DPPI   C2B 9114   0.410   9.213   9.032  0.1387  0.3084  0.2771
  574DPPI   C3B 9115   0.267   9.002   8.597 -0.1686  0.0119  0.0332
  574DPPI   C4B 9116   0.538   8.836   8.329  0.0987 -0.4071  0.0503
  575DPPI    C1 9117   3.469  15.002   9.756 -0.0040  0.5061  0.1423
  575DPPI    C2 9118   3.861  14.929   9.723 -0.0636  0.1874  0.1062
  575DPPI    C3 9119   3.714  15.089  10.059  0.0684  0.1007  0.2060
  575DPPI   PO4 9120   3.391  14.787   9.631  0.1165 -0.0091 -0.2675
  575DPPI   GL1 9121   3.550  14.535   9.408 -0.1228  0.1577 -0.0191
  575DPPI   GL2 9122   3.823  14.699   9.284 -0.4063 -0.1321  0.3783
  575DPPI   C1A 9123   3.481  14.342   8.973 -0.0980  0.0739 -0.0700
  575DPPI   C2A 9124   3.433  14.224   8.602 -0.0627  0.5105  0.0790
  575DPPI   C3A 9125   3.509  14.075   8.203 -0.0012 -0.0489 -0.1058
  575DPPI   C4A 9126   3.832  14.118   7.896  0.1044  0.2954  0.2985
  575DPPI   C1B 9127   3.960  14.647   8.831 -0.1017 -0.2782 -0.1145
  575DPPI   C2B 9128   3.940  14.297   8.607 -0.1305 -0.2941  0.2700
  575DPPI   C3B 9129   4.187  14.200   8.243  0.1732 -0.3636  0.4412
  575DPPI   C4B 9130   4.584  14.134   7.910  0.1024 -0.1217  0.0379
  576DPPI    C1 9131   2.197  11.050  10.052  0.0585  0.1318  0.0753
  576DPPI    C2 9132   2.473  10.777  10.148 -0.1307 -0.1236 -0.0942
  576DPPI    C3 9133   2.268  10.964  10.436  0.0007 -0.1591  0.0233
  576DPPI   PO4 9134   2.076  10.892   9.813 -0.0277 -0.1651 -0.1147
  576DPPI   GL1 9135   2.151  10.680   9.361  0.0096  0.0278 -0.0709
  576DPPI   GL2 9136   2.288  10.381   9.189  0.1115  0.2603 -0.0450
  576DPPI   C1A 9137   2.142  10.865   8.940 -0.0860  0.2389  0.0666
  576DPPI   C2A 9138   1.990  10.821   8.548 -0.0696  0.0061 -0.0774
  576DPPI   C3A 9139   1.990  10.695   8.071 -0.0355 -0.1521  0.0937
  576DPPI   C4A 9140   1.930  10.508   7.700 -0.1613 -0.0563  0.2401
  576DPPI   C1B 9141   2.217  10.395   8.781 -0.3387 -0.1212 -0.1683
  576DPPI   C2B 9142   1.939  10.299   8.372 -0.1252  0.1061 -0.2446
  576DPPI   C3B 9143   1.863  10.106   7.975 -0.0266  0.1866 -0.3798
  576DPPI   C4B 9144   2.135   9.791   7.814  0.0954  0.1466  0.1879
  577DPPI    C1 9145   5.071   5.764   9.752 -0.1115 -0.2375  0.0282
  577DPPI    C2 9146   5.214   5.873  10.109 -0.0973 -0.0604 -0.0307
  577DPPI    C3 9147   4.855   6.002   9.989 -0.1113 -0.1369 -0.0715
  577DPPI   PO4 9148   5.347   5.843   9.595  0.1908  0.1262 -0.3799
  577DPPI   GL1 9149   5.395   5.854   9.096 -0.0817 -0.0239  0.2971
  577DPPI   GL2 9150   5.625   5.933   8.957  0.3173 -0.0969 -0.0913
  577DPPI   C1A 9151   5.339   5.588   8.703  0.1256  0.2153  0.2813
  577DPPI   C2A 9152   5.207   5.598   8.307 -0.4724  0.0412 -0.0431
  577DPPI   C3A 9153   5.308   5.500   7.894 -0.1025  0.2744  0.2066
  577DPPI   C4A 9154   5.470   5.434   7.510 -0.1420  0.0829  0.0213
  577DPPI   C1B 9155   5.816   5.706   8.634  0.2261  0.1471  0.3220
  577DPPI   C2B 9156   5.711   5.416   8.230 -0.0786  0.0270 -0.1801
  577DPPI   C3B 9157   5.840   5.333   7.805  0.3237  0.0944  0.0613
  577DPPI   C4B 9158   6.196   5.252   7.460  0.0473 -0.2205  0.2210
  578DPPI    C1 9159   6.188   8.915   9.973  0.1831 -0.0039  0.1332
  578DPPI    C2 9160   6.338   8.567  10.101  0.1310 -0.0482  0.0740
  578DPPI    C3 9161   6.179   8.824  10.363  0.0416 -0.1306  0.1015
  578DPPI   PO4 9162   6.395   9.019   9.822 -0.2769  0.0960  0.1096
  578DPPI   GL1 9163   6.568   9.028   9.356 -0.1539 -0.2243  0.0654
  578DPPI   GL2 9164   6.882   8.838   9.267  0.1212  0.0868 -0.0278
  578DPPI   C1A 9165   6.342   9.314   8.980  0.1159  0.1022  0.2838
  578DPPI   C2A 9166   6.351   9.407   8.526  0.1902  0.0263  0.0077
  578DPPI   C3A 9167   6.161   9.343   8.056  0.1834 -0.2266 -0.1004
  578DPPI   C4A 9168   6.103   9.585   7.658 -0.0814 -0.0785  0.4799
  578DPPI   C1B 9169   6.938   8.605   8.769  0.1326 -0.1654 -0.2275
  578DPPI   C2B 9170   7.000   8.600   8.338 -0.1825 -0.1785 -0.0316
  578DPPI   C3B 9171   7.158   8.370   7.912 -0.1092 -0.0811 -0.2404
  578DPPI   C4B 9172   7.132   8.388   7.463 -0.0530  0.1643 -0.0087
  579DPPI    C1 9173   5.477   9.765  10.059 -0.2246 -0.2800  0.0707
  579DPPI    C2 9174   5.743   9.716  10.354  0.1353 -0.0251 -0.2028
  579DPPI    C3 9175   5.418   9.942  10.413  0.2356  0.0736 -0.0205
  579DPPI   PO4 9176   5.686   9.719   9.855 -0.0116  0.0507 -0.0921
  579DPPI   GL1 9177   5.921   9.801   9.477  0.0890 -0.2054 -0.0806
  579DPPI   GL2 9178   6.108   9.758   9.264  0.3629 -0.0759 -0.0938
  579DPPI   C1A 9179   5.619   9.882   9.155  0.0864 -0.0331 -0.1670
  579DPPI   C2A 9180   5.534   9.737   8.780  0.0620 -0.2150 -0.0992
  579DPPI   C3A 9181   5.446   9.886   8.363 -0.1323  0.2207 -0.1604
  579DPPI   C4A 9182   5.307  10.183   8.023 -0.3510 -0.1506  0.1852
  579DPPI   C1B 9183   6.132   9.847   8.801 -0.0787 -0.1969 -0.0264
  579DPPI   C2B 9184   5.961   9.813   8.455 -0.1846 -0.2190 -0.0604
  579DPPI   C3B 9185   5.897   9.759   8.053 -0.2178 -0.0505  0.1650
  579DPPI   C4B 9186   5.716   9.986   7.722  0.1902  0.1072 -0.0983
  580DPPI    C1 9187   2.888  12.441  10.465  0.0232  0.0185  0.0161
  580DPPI    C2 9188   3.223  12.333  10.656 -0.0135  0.1099  0.1338
  580DPPI    C3 9189   2.942  12.543  10.848 -0.2245 -0.1287  0.0931
  580DPPI   PO4 9190   2.899  12.257  10.235 -0.2595 -0.0021  0.1866
  580DPPI   GL1 9191   2.745  12.386   9.777 -0.0871  0.2572 -0.2845
  580DPPI   GL2 9192   2.972  12.244   9.625 -0.1283 -0.0006 -0.1517
  580DPPI   C1A 9193   2.674  12.410   9.275  0.0173 -0.2940 -0.4016
  580DPPI   C2A 9194   2.605  12.538   8.719 -0.0288  0.2535 -0.2979
  580DPPI   C3A 9195   2.395  12.612   8.366 -0.2652  0.0300  0.1776
  580DPPI   C4A 9196   2.677  12.760   8.105  0.0471  0.0309 -0.2605
  580DPPI   C1B 9197   3.179  12.101   9.219  0.4820  0.0857 -0.3423
  580DPPI   C2B 9198   3.346  12.294   8.902  0.0993  0.2130 -0.2538
  580DPPI   C3B 9199   3.425  12.356   8.419 -0.0959  0.0336 -0.0482
  580DPPI   C4B 9200   3.543  12.413   8.034  0.1734 -0.2161  0.2391
  581DPPI    C1 9201   3.529   3.889   9.735  0.0360  0.0320 -0.0235
  581DPPI    C2 9202   3.705   3.999  10.078 -0.3303  0.2246  0.1085
  581DPPI    C3 9203   3.521   3.644  10.051  0.1852 -0.0391 -0.0740
  581DPPI   PO4 9204   3.652   3.892   9.465  0.0953  0.1693  0.0461
  581DPPI   GL1 9205   3.749   3.544   9.188 -0.2395 -0.1521 -0.1452
  581DPPI   GL2 9206   3.877   3.212   9.083  0.0296 -0.2339 -0.1428
  581DPPI   C1A 9207   4.091   3.716   8.879  0.1208  0.0178 -0.2745
  581DPPI   C2A 9208   4.146   3.606   8.470  0.0774  0.0842 -0.0155
  581DPPI   C3A 9209   4.051   3.335   8.053 -0.2196  0.0884  0.0589
  581DPPI   C4A 9210   3.955   3.100   7.662  0.2462  0.1244  0.0342
  581DPPI   C1B 9211   3.710   3.285   8.648  0.2468  0.2784 -0.0051
  581DPPI   C2B 9212   3.615   3.546   8.329  0.2027  0.1485  0.1839
  581DPPI   C3B 9213   3.597   3.408   7.841 -0.1625  0.1952 -0.2117
  581DPPI   C4B 9214   3.645   3.359   7.399 -0.1590  0.2774  0.0336
  582DPPI    C1 9215   8.364  16.862  10.313 -0.1266 -0.2536  0.1486
  582DPPI    C2 9216   8.604  17.089  10.538 -0.2116  0.0021 -0.0141
  582DPPI    C3 9217   8.233  17.008  10.662 -0.1978 -0.0073  0.0212
  582DPPI   PO4 9218   8.414  16.627  10.281 -0.0268 -0.1085 -0.1653
  582DPPI   GL1 9219   8.198  16.365   9.940  0.3065 -0.0120  0.2750
  582DPPI   GL2 9220   8.221  16.047   9.875 -0.0610  0.2489  0.1071
  582DPPI   C1A 9221   7.928  16.594   9.543  0.0561  0.1646  0.0513
  582DPPI   C2A 9222   8.107  16.813   9.277 -0.3982  0.1337 -0.2981
  582DPPI   C3A 9223   8.392  16.780   8.988 -0.0837  0.1888  0.1393
  582DPPI   C4A 9224   8.502  17.088   8.627  0.0311  0.1880 -0.3579
  582DPPI   C1B 9225   8.433  16.333   9.519  0.0645  0.2420 -0.0204
  582DPPI   C2B 9226   8.620  16.361   9.181  0.1693 -0.0143 -0.0146
  582DPPI   C3B 9227   8.962  16.455   9.075 -0.1971 -0.1979 -0.0252
  582DPPI   C4B 9228   9.292  16.713   9.154 -0.1770  0.1745  0.0011
  583DPPI    C1 9229   5.966   5.625   9.566 -0.0481 -0.0868 -0.0220
  583DPPI    C2 9230   6.300   5.698   9.774 -0.0538 -0.0325 -0.0316
  583DPPI    C3 9231   6.022   5.451   9.922 -0.0534 -0.0019  0.0208
  583DPPI   PO4 9232   5.867   5.918   9.440  0.1883 -0.0529 -0.2423
  583DPPI   GL1 9233   6.110   6.299   9.300 -0.1089 -0.0554  0.2721
  583DPPI   GL2 9234   6.044   6.608   9.263 -0.0248 -0.1490 -0.1898
  583DPPI   C1A 9235   6.094   6.082   8.863  0.2490  0.0483 -0.2392
  583DPPI   C2A 9236   6.091   6.059   8.416  0.2119 -0.0910 -0.1861
  583DPPI   C3A 9237   6.167   6.103   8.025  0.2453  0.0017  0.0206
  583DPPI   C4A 9238   6.326   6.130   7.647  0.1115 -0.1136  0.1857
  583DPPI   C1B 9239   6.110   6.658   8.880  0.0653  0.0431 -0.1194
  583DPPI   C2B 9240   6.060   6.491   8.610  0.5704 -0.3986  0.0571
  583DPPI   C3B 9241   6.026   6.681   8.193 -0.1274  0.3463  0.3927
  583DPPI   C4B 9242   5.999   7.028   7.843 -0.1298  0.0620 -0.1492
  584DPPI    C1 9243  18.625   2.415  10.418  0.2062 -0.0084  0.1692
  584DPPI    C2 9244  18.587   2.776  10.586  0.1407  0.0929 -0.0597
  584DPPI    C3 9245  18.891   2.538  10.691  0.0855  0.1424  0.2202
  584DPPI   PO4 9246  18.612   2.440  10.079  0.0027  0.0619  0.0677
  584DPPI   GL1 9247  18.816   2.409   9.684 -0.0626  0.5065  0.1350
  584DPPI   GL2 9248  18.689   2.728   9.580  0.0643 -0.0012  0.0731
  584DPPI   C1A 9249  18.767   2.162   9.256  0.4321  0.2520  0.1436
  584DPPI   C2A 9250  18.798   1.773   8.861 -0.1512  0.1466  0.0866
  584DPPI   C3A 9251  18.728   1.699   8.443  0.2539  0.0132  0.1668
  584DPPI   C4A 9252  18.705   1.628   8.091  0.1440  0.1411  0.0901
  584DPPI   C1B 9253  18.852   2.622   9.154 -0.0023  0.0370  0.1392
  584DPPI   C2B 9254  18.874   2.578   8.579  0.1301 -0.1740  0.2236
  584DPPI   C3B 9255  19.018   2.575   8.236 -0.0067  0.3086 -0.0098
  584DPPI   C4B 9256  19.294   2.773   7.948 -0.0556  0.2369 -0.1537
  585DPPI    C1 9257  13.360   9.897   9.804  0.0054  0.0405 -0.1831
  585DPPI    C2 9258  13.268  10.025  10.171 -0.1687 -0.7043  0.0500
  585DPPI    C3 9259  13.599   9.809  10.112  0.1041 -0.2033 -0.3265
  585DPPI   PO4 9260  13.126   9.898   9.716  0.3018  0.1091  0.1993
  585DPPI   GL1 9261  13.063   9.826   9.304  0.0786  0.2659 -0.2250
  585DPPI   GL2 9262  13.168  10.145   9.342  0.2503 -0.1099  0.1556
  585DPPI   C1A 9263  13.000   9.687   8.915 -0.1655  0.2515  0.4693
  585DPPI   C2A 9264  12.798   9.467   8.489  0.3920  0.3218 -0.2256
  585DPPI   C3A 9265  12.538   9.287   8.075 -0.2193  0.2172 -0.0493
  585DPPI   C4A 9266  12.484   9.048   7.694 -0.3470  0.2783  0.0409
  585DPPI   C1B 9267  13.513  10.001   9.174 -0.1598  0.0732 -0.0486
  585DPPI   C2B 9268  13.724   9.810   8.868 -0.2063  0.0722 -0.0484
  585DPPI   C3B 9269  13.720   9.860   8.432 -0.0576  0.0634 -0.2270
  585DPPI   C4B 9270  13.743  10.314   8.170 -0.1433  0.0528  0.2679
  586DPPI    C1 9271  18.733  16.403  10.695  0.2460  0.1736  0.2055
  586DPPI    C2 9272  18.686  16.791  10.607  0.1998  0.0755 -0.2218
  586DPPI    C3 9273  18.380  16.581  10.755  0.1693  0.1572 -0.1694
  586DPPI   PO4 9274  18.896  16.287  10.426  0.0374 -0.1218 -0.4053
  586DPPI   GL1 9275  18.882  16.227  10.021 -0.0804  0.0780 -0.2513
  586DPPI   GL2 9276  18.735  16.456   9.737  0.0434 -0.3434 -0.0532
  586DPPI   C1A 9277  18.828  15.913   9.665 -0.0326 -0.2102 -0.0068
  586DPPI   C2A 9278  18.970  16.074   9.404 -0.1046  0.0146  0.0881
  586DPPI   C3A 9279  18.933  16.379   9.049 -0.1437 -0.3355 -0.0310
  586DPPI   C4A 9280  19.112  16.761   8.897 -0.1240  0.0066 -0.0818
  586DPPI   C1B 9281  18.453  16.308   9.288 -0.2350  0.0158  0.3668
  586DPPI   C2B 9282  18.536  16.260   8.812 -0.2659 -0.0112 -0.2379
  586DPPI   C3B 9283  18.774  16.072   8.383  0.1268 -0.5366  0.0582
  586DPPI   C4B 9284  19.147  16.020   8.142 -0.2193  0.1066  0.1584
  587DPPI    C1 9285  11.609   6.867   9.790 -0.1086  0.0403  0.1708
  587DPPI    C2 9286  11.603   6.583  10.071  0.0520  0.0725  0.2077
  587DPPI    C3 9287  11.342   6.885  10.087 -0.0344 -0.0033  0.2405
  587DPPI   PO4 9288  11.666   6.648   9.573  0.0013 -0.1128 -0.0459
  587DPPI   GL1 9289  12.043   6.803   9.264 -0.2682 -0.0607 -0.3166
  587DPPI   GL2 9290  11.834   6.573   9.046 -0.2536 -0.0185 -0.1250
  587DPPI   C1A 9291  12.277   6.787   8.982 -0.3658 -0.2451  0.0804
  587DPPI   C2A 9292  12.519   6.951   8.579  0.4406  0.0553  0.2034
  587DPPI   C3A 9293  12.928   6.914   8.447  0.0741  0.0421 -0.0416
  587DPPI   C4A 9294  13.353   7.190   8.476 -0.0174 -0.0362 -0.1705
  587DPPI   C1B 9295  12.166   6.288   8.883  0.1332 -0.1084  0.0113
  587DPPI   C2B 9296  12.161   6.035   8.518 -0.2724  0.0307 -0.2817
  587DPPI   C3B 9297  12.257   6.224   8.174 -0.1340  0.0590  0.1590
  587DPPI   C4B 9298  12.569   6.389   7.895  0.1752  0.1204 -0.2033
  588DPPI    C1 9299  11.650  13.120   9.719 -0.0128  0.0300 -0.0055
  588DPPI    C2 9300  11.649  13.359  10.040  0.0394  0.2093 -0.1369
  588DPPI    C3 9301  11.754  12.974  10.077  0.2710  0.2854  0.0198
  588DPPI   PO4 9302  11.491  13.130   9.571  0.1740  0.2441  0.1189
  588DPPI   GL1 9303  11.612  13.364   9.186  0.2628 -0.1414 -0.0559
  588DPPI   GL2 9304  11.383  13.193   9.046 -0.0557 -0.0487  0.1783
  588DPPI   C1A 9305  11.747  13.497   8.881  0.1196 -0.1995 -0.2423
  588DPPI   C2A 9306  12.298  13.436   8.699  0.0617 -0.1886 -0.1296
  588DPPI   C3A 9307  12.383  13.316   8.311 -0.0880 -0.1315 -0.1825
  588DPPI   C4A 9308  12.352  13.253   7.908 -0.1754  0.0417 -0.0385
  588DPPI   C1B 9309  11.512  13.131   8.605  0.1417 -0.2418 -0.2701
  588DPPI   C2B 9310  11.243  13.137   8.181  0.1241 -0.2229  0.1613
  588DPPI   C3B 9311  10.878  13.197   7.947  0.0718 -0.0888 -0.0131
  588DPPI   C4B 9312  10.518  13.446   7.990  0.1672 -0.1682 -0.2273
  589DPPI    C1 9313   9.604  13.759  10.626 -0.2265 -0.0390 -0.1825
  589DPPI    C2 9314   9.582  14.056  10.359 -0.3525  0.0235 -0.1033
  589DPPI    C3 9315   9.549  14.135  10.750 -0.3087 -0.0853 -0.0774
  589DPPI   PO4 9316   9.381  13.573  10.425  0.0257 -0.2755  0.0116
  589DPPI   GL1 9317   9.225  13.441  10.056 -0.0278 -0.0616  0.1251
  589DPPI   GL2 9318   9.414  13.664   9.890 -0.2477  0.3175 -0.2479
  589DPPI   C1A 9319   9.379  13.191   9.676 -0.0855  0.1449  0.0271
  589DPPI   C2A 9320   9.300  13.303   9.308  0.2130  0.1505  0.1080
  589DPPI   C3A 9321   9.382  13.274   8.835 -0.2844 -0.1760  0.0721
  589DPPI   C4A 9322   9.419  13.394   8.287  0.0566 -0.0735 -0.2013
  589DPPI   C1B 9323   9.411  13.773   9.472  0.0573  0.0681  0.1196
  589DPPI   C2B 9324   9.499  13.766   9.114 -0.1360  0.0863 -0.0517
  589DPPI   C3B 9325   9.721  13.882   8.741  0.1007  0.1751  0.2187
  589DPPI   C4B 9326   9.672  13.829   8.266  0.0303  0.0770 -0.1439
  590DPPI    C1 9327   6.164   4.731   9.681 -0.1573  0.0597  0.1886
  590DPPI    C2 9328   6.169   4.508  10.013 -0.0275 -0.1270  0.0639
  590DPPI    C3 9329   6.070   4.895  10.033 -0.1238 -0.1620  0.3032
  590DPPI   PO4 9330   6.044   4.589   9.506  0.4171  0.0274 -0.2002
  590DPPI   GL1 9331   5.988   4.366   9.022  0.1060 -0.0875  0.1673
  590DPPI   GL2 9332   6.320   4.336   9.104 -0.0448  0.1389 -0.4117
  590DPPI   C1A 9333   5.857   4.265   8.663  0.0014 -0.0023  0.3501
  590DPPI   C2A 9334   5.888   4.080   8.256 -0.0836  0.2200 -0.1438
  590DPPI   C3A 9335   6.122   4.003   7.884  0.4204 -0.2710  0.0366
  590DPPI   C4A 9336   6.365   3.801   7.477 -0.0594 -0.0963  0.0627
  590DPPI   C1B 9337   6.376   4.168   8.744 -0.0309  0.2184  0.0686
  590DPPI   C2B 9338   6.655   4.108   8.407 -0.1526  0.2236  0.3412
  590DPPI   C3B 9339   6.746   4.263   8.025 -0.1297 -0.2929 -0.0777
  590DPPI   C4B 9340   6.986   4.440   7.715 -0.1399  0.1109 -0.1862
  591DPPI    C1 9341   5.327   8.889  10.017 -0.0285  0.1242 -0.0886
  591DPPI    C2 9342   4.982   9.049  10.140 -0.0476 -0.0386  0.0740
  591DPPI    C3 9343   5.201   8.829  10.391  0.0793 -0.0978 -0.0865
  591DPPI   PO4 9344   5.325   8.866   9.717  0.0894  0.0335 -0.0008
  591DPPI   GL1 9345   5.386   9.226   9.431  0.2163  0.3342  0.2424
  591DPPI   GL2 9346   5.578   9.431   9.434 -0.0421  0.1063  0.2520
  591DPPI   C1A 9347   5.333   9.278   8.928 -0.1869 -0.1137  0.1502
  591DPPI   C2A 9348   5.087   9.138   8.557  0.1366 -0.0511 -0.1858
  591DPPI   C3A 9349   5.144   9.355   8.126  0.0492  0.1590  0.2477
  591DPPI   C4A 9350   5.267   9.715   7.921 -0.3750  0.0436 -0.1204
  591DPPI   C1B 9351   5.844   9.291   9.066 -0.1198 -0.2296 -0.0152
  591DPPI   C2B 9352   5.879   9.345   8.628  0.2593  0.1271  0.0635
  591DPPI   C3B 9353   5.610   9.329   8.318  0.3337  0.0267  0.0483
  591DPPI   C4B 9354   5.657   9.317   7.881 -0.0798  0.0364  0.0221
  592DPPI    C1 9355  12.955   3.105  10.100 -0.0497 -0.0817 -0.0479
  592DPPI    C2 9356  12.666   3.210  10.355  0.0379 -0.0047  0.0203
  592DPPI    C3 9357  13.007   3.054  10.493  0.1675  0.2266 -0.0324
  592DPPI   PO4 9358  12.901   3.140   9.802 -0.1007 -0.0604  0.2208
  592DPPI   GL1 9359  12.959   2.980   9.367  0.1025  0.4201 -0.1494
  592DPPI   GL2 9360  13.159   3.289   9.269 -0.2333  0.1392 -0.1848
  592DPPI   C1A 9361  12.769   2.999   8.925  0.0716 -0.0124  0.1357
  592DPPI   C2A 9362  12.860   3.097   8.538  0.0076  0.1422 -0.1973
  592DPPI   C3A 9363  13.120   2.884   8.233  0.1243 -0.2253 -0.0940
  592DPPI   C4A 9364  13.172   3.019   7.822  0.2519 -0.0264 -0.1958
  592DPPI   C1B 9365  13.356   3.181   8.758 -0.3660 -0.1917  0.0141
  592DPPI   C2B 9366  13.767   3.314   8.593 -0.0898 -0.1220 -0.0361
  592DPPI   C3B 9367  14.035   3.604   8.363 -0.1113 -0.3504 -0.1652
  592DPPI   C4B 9368  14.095   4.078   8.287 -0.0375 -0.1121  0.0650
  593DPPI    C1 9369  13.725  18.480  10.321  0.1993  0.1627 -0.1403
  593DPPI    C2 9370  13.775  18.841  10.487 -0.1316  0.0194  0.2898
  593DPPI    C3 9371  13.781  18.513  10.716 -0.1903 -0.2212 -0.0452
  593DPPI   PO4 9372  13.673  18.529  10.087 -0.1992  0.2228  0.3541
  593DPPI   GL1 9373  13.415  18.635   9.740  0.0052 -0.2540 -0.0244
  593DPPI   GL2 9374  13.609  18.960   9.733 -0.0950  0.3367 -0.3022
  593DPPI   C1A 9375  13.396  18.780   9.281  0.1023  0.0971 -0.0564
  593DPPI   C2A 9376  13.304  19.062   9.006 -0.0392  0.3013 -0.3516
  593DPPI   C3A 9377  13.251  18.991   8.622  0.0500 -0.0565 -0.0064
  593DPPI   C4A 9378  13.115  19.016   8.182  0.1267 -0.0935 -0.3418
  593DPPI   C1B 9379  13.760  19.090   9.331  0.3117  0.0715  0.1031
  593DPPI   C2B 9380  13.776  18.923   8.881  0.1506  0.3345 -0.2471
  593DPPI   C3B 9381  13.835  18.924   8.547  0.1394  0.1757  0.1363
  593DPPI   C4B 9382  14.148  19.125   8.153 -0.1707 -0.3626 -0.1835
  594PYPI    C1 9383   8.607  13.386  10.472  0.1026 -0.0678 -0.0831
  594PYPI    C2 9384   8.868  13.680  10.396 -0.0300  0.1066  0.1247
  594PYPI    C3 9385   8.644  13.692  10.727 -0.1747 -0.1325  0.0381
  594PYPI   PO4 9386   8.361  13.329  10.234  0.0945 -0.0456  0.2827
  594PYPI   GL1 9387   8.214  13.468   9.843  0.0106  0.1036 -0.4080
  594PYPI   GL2 9388   7.947  13.235   9.722  0.3218 -0.0324 -0.0799
  594PYPI   C1A 9389   8.447  13.532   9.481  0.0036 -0.1164 -0.0789
  594PYPI   C2A 9390   8.927  13.626   9.404  0.1730 -0.2002 -0.1793
  594PYPI   D3A 9391   9.040  13.644   8.987 -0.4170 -0.0154  0.1094
  594PYPI   C4A 9392   8.804  13.397   8.642 -0.1067  0.1673 -0.0394
  594PYPI   C1B 9393   8.229  13.122   9.380  0.0524 -0.0672  0.2392
  594PYPI   C2B 9394   8.345  13.303   9.005 -0.1560  0.0976 -0.0792
  594PYPI   C3B 9395   8.296  13.459   8.659  0.2472 -0.0080  0.2226
  594PYPI   C4B 9396   8.282  13.499   8.251 -0.0925  0.1722 -0.2610
  595PYPI    C1 9397  18.749  10.595  10.210 -0.0515  0.0646  0.0756
  595PYPI    C2 9398  18.455  10.494  10.461 -0.0958 -0.0716 -0.0296
  595PYPI    C3 9399  18.813  10.600  10.605 -0.0380 -0.4093  0.0849
  595PYPI   PO4 9400  18.621  10.409   9.984  0.3208  0.2144  0.1177
  595PYPI   GL1 9401  18.602  10.115   9.598 -0.1142 -0.0644 -0.1731
  595PYPI   GL2 9402  18.527   9.766   9.816  0.0535  0.1418  0.0566
  595PYPI   C1A 9403  18.661  10.065   9.170  0.1522 -0.1919  0.0145
  595PYPI   C2A 9404  18.691   9.924   8.677  0.0590  0.2681 -0.2949
  595PYPI   D3A 9405  18.708   9.752   8.287 -0.1501 -0.0635 -0.0126
  595PYPI   C4A 9406  18.795   9.893   7.896  0.1520  0.2581 -0.1317
  595PYPI   C1B 9407  18.485   9.641   9.431  0.0125 -0.0469  0.2769
  595PYPI   C2B 9408  18.575   9.606   9.031  0.0611 -0.0983 -0.2704
  595PYPI   C3B 9409  18.511   9.399   8.656  0.3276 -0.2535  0.1832
  595PYPI   C4B 9410  18.466   9.311   8.188 -0.0634  0.1164  0.1980
  596PYPI    C1 9411  12.886  13.802   9.694  0.3429  0.2585 -0.0354
  596PYPI    C2 9412  13.244  13.688   9.832  0.1510 -0.0764  0.2009
  596PYPI    C3 9413  12.915  13.624  10.051 -0.0646  0.1628 -0.0451
  596PYPI   PO4 9414  12.942  13.921   9.461  0.0993  0.1704 -0.1087
  596PYPI   GL1 9415  12.814  14.260   9.059  0.0955 -0.0215  0.1274
  596PYPI   GL2 9416  12.435  14.483   8.948 -0.1097 -0.0219  0.1020
  596PYPI   C1A 9417  12.519  14.021   8.734 -0.1087 -0.1387 -0.1560
  596PYPI   C2A 9418  12.275  13.826   8.396  0.2081 -0.1310 -0.0764
  596PYPI   D3A 9419  11.907  13.532   8.358  0.1678 -0.1588 -0.2547
  596PYPI   C4A 9420  11.849  13.282   8.036  0.1250  0.0171  0.2385
  596PYPI   C1B 9421  12.243  14.363   8.586  0.0733 -0.1475 -0.0643
  596PYPI   C2B 9422  12.129  14.250   8.142 -0.0413  0.0212 -0.0190
  596PYPI   C3B 9423  12.005  14.208   7.703  0.1021 -0.2326 -0.2154
  596PYPI   C4B 9424  11.758  14.417   7.423  0.0931 -0.0314  0.2385
  597PYPI    C1 9425   7.367  11.667   9.898  0.1682 -0.1599 -0.0137
  597PYPI    C2 9426   7.065  11.901   9.780  0.2530 -0.1432 -0.2012
  597PYPI    C3 9427   7.287  12.005  10.096  0.0903 -0.1340 -0.0889
  597PYPI   PO4 9428   7.535  11.618   9.680  0.0616 -0.1233 -0.0067
  597PYPI   GL1 9429   7.460  11.862   9.422  0.2154 -0.1195  0.2065
  597PYPI   GL2 9430   7.743  12.121   9.388 -0.1516  0.0226 -0.2257
  597PYPI   C1A 9431   7.151  12.109   9.189 -0.0257 -0.1740  0.2506
  597PYPI   C2A 9432   7.118  12.451   8.842 -0.3190 -0.0553 -0.0685
  597PYPI   D3A 9433   6.997  12.754   8.563  0.3693  0.1902 -0.0178
  597PYPI   C4A 9434   6.723  13.017   8.613 -0.1647  0.1452  0.0102
  597PYPI   C1B 9435   7.648  12.015   8.981  0.1725 -0.0152 -0.0980
  597PYPI   C2B 9436   7.489  12.040   8.621 -0.1419 -0.2006  0.4821
  597PYPI   C3B 9437   7.313  12.312   8.431 -0.2182 -0.2393  0.3460
  597PYPI   C4B 9438   6.878  12.434   8.231 -0.2135  0.3218 -0.0973
  598PYPI    C1 9439  13.423  13.213   9.574  0.1974  0.1359  0.1513
  598PYPI    C2 9440  13.334  12.944   9.856  0.0782 -0.0563 -0.0659
  598PYPI    C3 9441  13.059  13.209   9.739  0.0448 -0.1396 -0.1782
  598PYPI   PO4 9442  13.529  13.045   9.419  0.0745  0.2116  0.1439
  598PYPI   GL1 9443  13.755  12.929   9.096 -0.2771 -0.2278 -0.1588
  598PYPI   GL2 9444  13.701  13.298   9.034 -0.1637  0.1250  0.0172
  598PYPI   C1A 9445  13.624  12.755   8.764 -0.1263  0.0844 -0.2141
  598PYPI   C2A 9446  13.551  12.743   8.331 -0.2501  0.1531  0.0438
  598PYPI   D3A 9447  13.512  12.495   8.004 -0.0295 -0.3550 -0.3140
  598PYPI   C4A 9448  13.880  12.244   7.859 -0.0771  0.1357  0.1689
  598PYPI   C1B 9449  13.598  13.249   8.640 -0.1119 -0.0040 -0.1866
  598PYPI   C2B 9450  13.298  13.099   8.493  0.0470  0.1125 -0.1590
  598PYPI   C3B 9451  13.256  13.078   8.090 -0.1369  0.1570 -0.0009
  598PYPI   C4B 9452  13.299  13.231   7.751 -0.0348  0.1695 -0.1259
  599PYPI    C1 9453  11.059  10.763   9.999  0.2864 -0.2864 -0.0653
  599PYPI    C2 9454  10.875  10.411  10.043  0.0716 -0.1476  0.1798
  599PYPI    C3 9455  10.736  10.734  10.234  0.1453  0.1156 -0.1997
  599PYPI   PO4 9456  11.180  10.680   9.742  0.1712  0.0692 -0.0152
  599PYPI   GL1 9457  11.062  10.826   9.431 -0.2808  0.0835  0.0207
  599PYPI   GL2 9458  11.169  10.737   9.131  0.0216  0.1975  0.0400
  599PYPI   C1A 9459  10.728  11.122   9.444 -0.2480  0.1641 -0.3132
  599PYPI   C2A 9460  10.602  11.200   9.121  0.0828 -0.1251  0.2042
  599PYPI   D3A 9461  10.547  11.246   8.681 -0.2973  0.2601  0.1725
  599PYPI   C4A 9462  10.383  11.504   8.426 -0.1675 -0.0978  0.0572
  599PYPI   C1B 9463  11.320  10.563   8.612  0.1385  0.2060  0.1559
  599PYPI   C2B 9464  11.286  10.419   8.176 -0.1693  0.2144  0.3212
  599PYPI   C3B 9465  11.455  10.413   7.767  0.3309  0.0473  0.0115
  599PYPI   C4B 9466  11.627  10.336   7.280  0.3372 -0.0176  0.2409
  600PYPI    C1 9467  11.111  18.442  10.078 -0.0211 -0.0030  0.0151
  600PYPI    C2 9468  11.026  18.068   9.964 -0.0089 -0.0259  0.0807
  600PYPI    C3 9469  11.261  18.132  10.281  0.3250  0.0360 -0.1740
  600PYPI   PO4 9470  10.910  18.570  10.104 -0.1537  0.0884 -0.0039
  600PYPI   GL1 9471  10.811  18.922   9.874 -0.1262 -0.0059 -0.2452
  600PYPI   GL2 9472  10.929  18.658   9.644 -0.1293 -0.3276 -0.4157
  600PYPI   C1A 9473  10.758  19.024   9.472  0.2209  0.2396  0.0670
  600PYPI   C2A 9474  10.766  19.007   9.049 -0.0346  0.0296  0.2274
  600PYPI   D3A 9475  10.809  19.109   8.594  0.1331 -0.2272 -0.2358
  600PYPI   C4A 9476  10.704  19.176   8.159 -0.0160  0.0179 -0.3035
  600PYPI   C1B 9477  11.157  18.664   9.283  0.2793 -0.1308  0.0569
  600PYPI   C2B 9478  11.098  18.614   8.821  0.0236 -0.1876  0.0887
  600PYPI   C3B 9479  10.819  18.655   8.432 -0.4782 -0.1443  0.1521
  600PYPI   C4B 9480  10.730  18.652   8.009 -0.1544 -0.1214 -0.0695
  601PYPI    C1 9481  11.008   0.369   9.960 -0.1129 -0.0421 -0.0233
  601PYPI    C2 9482  11.096   0.684  10.191 -0.2328 -0.0467  0.0291
  601PYPI    C3 9483  10.888   0.377  10.341 -0.0263 -0.1989  0.0082
  601PYPI   PO4 9484  11.003   0.526   9.757  0.1384 -0.1760  0.1834
  601PYPI   GL1 9485  11.080   0.828   9.335  0.0276 -0.2430 -0.0883
  601PYPI   GL2 9486  10.973   0.564   9.258 -0.0098  0.1265 -0.0779
  601PYPI   C1A 9487  11.049   0.937   8.897 -0.1369 -0.0085 -0.0409
  601PYPI   C2A 9488  11.362   1.187   8.768 -0.1165  0.2436  0.0411
  601PYPI   D3A 9489  11.232   1.441   8.455 -0.1542  0.2432  0.2093
  601PYPI   C4A 9490  11.347   1.343   7.987 -0.2935  0.1060  0.1203
  601PYPI   C1B 9491  10.816   0.529   8.888  0.2077  0.2312  0.1245
  601PYPI   C2B 9492  10.980   0.518   8.491  0.1226  0.1503 -0.2218
  601PYPI   C3B 9493  10.849   0.621   8.089 -0.0122  0.2206 -0.0028
  601PYPI   C4B 9494  10.789   0.931   7.739  0.0700  0.0373  0.1639
  602PYPI    C1 9495  16.358   0.779  10.140 -0.0532 -0.0323 -0.0979
  602PYPI    C2 9496  16.069   0.965  10.345  0.0046 -0.0210 -0.0266
  602PYPI    C3 9497  16.107   0.567  10.368  0.0718 -0.0097  0.0618
  602PYPI   PO4 9498  16.454   1.072  10.038  0.1609 -0.1709  0.3065
  602PYPI   GL1 9499  16.578   1.047   9.619 -0.1454  0.1792 -0.1528
  602PYPI   GL2 9500  16.785   1.092   9.267 -0.0179  0.0271  0.2243
  602PYPI   C1A 9501  16.288   0.744   9.172  0.0301 -0.0131  0.0362
  602PYPI   C2A 9502  16.148   0.786   8.800 -0.2974 -0.0156  0.3866
  602PYPI   D3A 9503  15.947   0.682   8.470  0.3623 -0.0124 -0.0951
  602PYPI   C4A 9504  16.144   0.643   8.082 -0.1164 -0.0818 -0.1839
  602PYPI   C1B 9505  16.707   0.812   8.920 -0.0975  0.2005 -0.0188
  602PYPI   C2B 9506  16.587   0.901   8.598 -0.1453  0.2320  0.1033
  602PYPI   C3B 9507  16.695   1.077   8.270  0.1783  0.1991 -0.1525
  602PYPI   C4B 9508  16.683   1.337   7.987 -0.4161  0.1793 -0.0651
  603PYPI    C1 9509  15.514  15.446   9.968  0.1273  0.3786  0.3472
  603PYPI    C2 9510  15.147  15.589   9.903 -0.0181 -0.1193  0.0132
  603PYPI    C3 9511  15.244  15.443  10.262 -0.1287  0.0550  0.1157
  603PYPI   PO4 9512  15.673  15.658   9.823 -0.1169  0.2545  0.0740
  603PYPI   GL1 9513  15.672  15.761   9.430 -0.1582  0.0983  0.0774
  603PYPI   GL2 9514  15.962  15.711   9.306  0.1230  0.3950 -0.1323
  603PYPI   C1A 9515  15.675  15.934   8.942 -0.0480 -0.0070  0.3317
  603PYPI   C2A 9516  15.727  16.202   8.635  0.0808  0.2497  0.0154
  603PYPI   D3A 9517  16.086  16.419   8.339  0.0453  0.1973 -0.1346
  603PYPI   C4A 9518  16.238  16.611   7.967  0.0785 -0.4012 -0.0873
  603PYPI   C1B 9519  16.030  15.600   8.839  0.3772  0.2157 -0.3502
  603PYPI   C2B 9520  16.134  15.453   8.546 -0.2576  0.0627  0.3595
  603PYPI   C3B 9521  15.911  15.379   8.140 -0.3539 -0.0007  0.0171
  603PYPI   C4B 9522  16.062  15.347   7.760  0.1498  0.2372  0.3073
  604PYPI    C1 9523   7.360   6.144   9.784  0.1217 -0.0420  0.1328
  604PYPI    C2 9524   7.311   6.510   9.938  0.2018  0.0413 -0.0365
  604PYPI    C3 9525   7.647   6.419   9.740  0.1894 -0.1296  0.0185
  604PYPI   PO4 9526   7.249   6.120   9.574 -0.0411  0.1358 -0.0938
  604PYPI   GL1 9527   7.169   6.164   9.123 -0.1184 -0.1874  0.1320
  604PYPI   GL2 9528   6.957   6.038   8.993 -0.1713 -0.0903 -0.0887
  604PYPI   C1A 9529   7.470   5.917   8.815 -0.1607 -0.2638  0.0612
  604PYPI   C2A 9530   7.443   5.839   8.371  0.2845 -0.0546 -0.4766
  604PYPI   D3A 9531   7.297   5.796   7.986  0.1269 -0.0256  0.1401
  604PYPI   C4A 9532   7.163   5.408   7.813 -0.3861 -0.1378 -0.1792
  604PYPI   C1B 9533   6.988   5.930   8.623 -0.0648 -0.1044 -0.1689
  604PYPI   C2B 9534   6.891   5.646   8.303  0.0215  0.0526 -0.2226
  604PYPI   C3B 9535   6.674   5.375   8.068  0.3422 -0.0733 -0.1867
  604PYPI   C4B 9536   6.707   5.214   7.633  0.1877 -0.0872  0.2338
  605PYPI    C1 9537   6.382   2.310   9.873 -0.0676 -0.1652 -0.0044
  605PYPI    C2 9538   6.596   2.469  10.172  0.0713 -0.1336 -0.1195
  605PYPI    C3 9539   6.458   2.703   9.878 -0.1215 -0.1541 -0.0471
  605PYPI   PO4 9540   6.545   2.079   9.828  0.2164  0.1951  0.0952
  605PYPI   GL1 9541   6.650   1.837   9.566  0.0211 -0.0994  0.0884
  605PYPI   GL2 9542   6.859   2.040   9.390  0.1840  0.2992  0.0554
  605PYPI   C1A 9543   6.384   1.443   9.121 -0.4020 -0.4379 -0.1430
  605PYPI   C2A 9544   6.639   1.282   8.744 -0.0910  0.0084 -0.1500
  605PYPI   D3A 9545   6.603   1.339   8.276  0.2553 -0.0074 -0.3093
  605PYPI   C4A 9546   6.905   1.431   8.078  0.2918 -0.0248  0.0760
  605PYPI   C1B 9547   6.741   1.835   8.953  0.1132 -0.1671  0.0586
  605PYPI   C2B 9548   6.844   1.827   8.510 -0.3337  0.0137  0.0442
  605PYPI   C3B 9549   6.677   2.006   8.082  0.1076 -0.0665  0.2720
  605PYPI   C4B 9550   6.797   2.107   7.642  0.1049  0.1143  0.0686
  606PYPI    C1 9551   1.786   2.220   9.789 -0.0474 -0.0149 -0.2649
  606PYPI    C2 9552   1.976   2.089  10.115 -0.4476  0.2972  0.1058
  606PYPI    C3 9553   2.185   2.191   9.790 -0.0191  0.2360  0.3533
  606PYPI   PO4 9554   1.602   2.501   9.878 -0.2592  0.2141 -0.1398
  606PYPI   GL1 9555   1.516   2.645   9.450 -0.2336  0.3114 -0.0562
  606PYPI   GL2 9556   1.282   2.448   9.378  0.1890 -0.0616 -0.2319
  606PYPI   C1A 9557   1.355   2.809   8.988 -0.0110 -0.0449 -0.1100
  606PYPI   C2A 9558   1.421   3.020   8.680 -0.0330  0.2458  0.1210
  606PYPI   D3A 9559   1.397   3.407   8.577  0.2456  0.2348 -0.0448
  606PYPI   C4A 9560   1.676   3.741   8.389 -0.0667 -0.0783  0.2079
  606PYPI   C1B 9561   1.165   2.327   8.996 -0.0230 -0.0440  0.0215
  606PYPI   C2B 9562   1.047   2.445   8.578 -0.3258 -0.1906  0.0021
  606PYPI   C3B 9563   1.281   2.612   8.236  0.0754  0.0283 -0.0174
  606PYPI   C4B 9564   1.451   2.639   7.838 -0.1021  0.0706 -0.2067
  607ERGO   ROH 9565   8.494   8.902   9.176 -0.0497  0.4499  0.1757
  607ERGO    R1 9566   8.373   9.037   8.958  0.0616  0.3582  0.0557
  607ERGO    R2 9567   8.519   9.141   8.748  0.1663  0.2174  0.0574
  607ERGO    R3 9568   8.349   8.990   8.598  0.1944  0.1694  0.0701
  607ERGO    R4 9569   8.435   9.205   8.419  0.1678  0.1589  0.0451
  607ERGO    R5 9570   8.229   9.149   8.465  0.1736  0.1330  0.0444
  607ERGO    C1 9571   8.226   9.101   8.087  0.1949  0.0800  0.0499
  607ERGO    C2 9572   8.283   8.880   7.845  0.2284  0.0827  0.0147
  608ERGO   ROH 9573  17.734  13.206   9.385  0.1153 -0.3144 -0.0691
  608ERGO    R1 9574  17.604  13.314   9.158  0.1655 -0.0309  0.0324
  608ERGO    R2 9575  17.742  13.424   8.946  0.2232  0.0039  0.0852
  608ERGO    R3 9576  17.596  13.247   8.800  0.0365  0.2366 -0.0172
  608ERGO    R4 9577  17.743  13.403   8.601  0.2437  0.1592  0.0754
  608ERGO    R5 9578  17.528  13.370   8.607  0.2038  0.4041  0.0293
  608ERGO    C1 9579  17.607  13.224   8.263  0.0804  0.4681 -0.0263
  608ERGO    C2 9580  17.780  13.136   7.917  0.0303 -0.1386  0.0168
  609ERGO   ROH 9581   6.338   4.850   8.970  0.1865  0.4269 -0.3666
  609ERGO    R1 9582   6.336   4.654   8.766  0.2593  0.1929 -0.1496
  609ERGO    R2 9583   6.131   4.633   8.581  0.1556 -0.2283 -0.0088
  609ERGO    R3 9584   6.334   4.651   8.402  0.0291 -0.2075 -0.1496
  609ERGO    R4 9585   6.113   4.530   8.252 -0.0784 -0.1485 -0.0217
  609ERGO    R5 9586   6.316   4.451   8.271 -0.0774 -0.1697 -0.1841
  609ERGO    C1 9587   6.294   4.487   7.892 -0.3334 -0.0827 -0.1613
  609ERGO    C2 9588   6.467   4.335   7.671  0.0721  0.0626  0.1571
  610ERGO   ROH 9589  15.102   5.257   9.216 -0.0257  0.1439  0.0940
  610ERGO    R1 9590  15.032   5.222   8.944  0.0708  0.0479  0.0806
  610ERGO    R2 9591  14.816   5.351   8.828  0.0038 -0.1301  0.0031
  610ERGO    R3 9592  15.003   5.434   8.649 -0.0099 -0.0193  0.0397
  610ERGO    R4 9593  14.791   5.316   8.485  0.0220 -0.0047 -0.0112
  610ERGO    R5 9594  15.003   5.265   8.479  0.0334  0.0455 -0.0250
  610ERGO    C1 9595  14.951   5.375   8.117  0.0196  0.1723  0.0150
  610ERGO    C2 9596  14.981   5.418   7.691  0.0780  0.1587 -0.0417
  611ERGO   ROH 9597   4.186  12.210   9.358 -0.3242 -0.0703 -0.0724
  611ERGO    R1 9598   4.289  12.245   9.096  0.0082 -0.1605  0.0415
  611ERGO    R2 9599   4.413  12.041   8.957 -0.2439 -0.3513  0.0874
  611ERGO    R3 9600   4.228  12.103   8.767  0.0548  0.0883 -0.0768
  611ERGO    R4 9601   4.404  11.906   8.639 -0.1844 -0.1918  0.0171
  611ERGO    R5 9602   4.352  12.103   8.562  0.2657 -0.0510  0.0464
  611ERGO    C1 9603   4.225  11.885   8.276  0.1306  0.3137 -0.1780
  611ERGO    C2 9604   4.256  11.792   7.859  0.1518  0.2713  0.2097
  612ERGO   ROH 9605   9.177   2.503   9.367  0.6660 -0.1038  0.0490
  612ERGO    R1 9606   9.041   2.528   9.120  0.2364 -0.3455  0.2518
  612ERGO    R2 9607   9.137   2.683   8.911 -0.4401 -0.0280  0.1554
  612ERGO    R3 9608   9.110   2.452   8.771 -0.0793 -0.0526  0.1174
  612ERGO    R4 9609   9.105   2.660   8.568 -0.3038 -0.0200  0.1411
  612ERGO    R5 9610   8.957   2.504   8.596 -0.1042 -0.2339  0.0772
  612ERGO    C1 9611   9.061   2.430   8.236  0.1141 -0.0385  0.0972
  612ERGO    C2 9612   9.255   2.356   7.942 -0.1623 -0.2697 -0.0610
  613ERGO   ROH 9613   6.231  12.039   9.142 -0.2029 -0.2591 -0.1235
  613ERGO    R1 9614   6.472  12.098   9.006 -0.2599 -0.0538 -0.1385
  613ERGO    R2 9615   6.655  11.902   8.936 -0.0800  0.1075 -0.1119
  613ERGO    R3 9616   6.624  12.008   8.688 -0.1811  0.0402 -0.1294
  613ERGO    R4 9617   6.859  11.838   8.664  0.0677  0.3512 -0.0618
  613ERGO    R5 9618   6.846  12.048   8.610 -0.2105  0.3363 -0.0871
  613ERGO    C1 9619   6.949  11.901   8.274  0.0589  0.4298 -0.0492
  613ERGO    C2 9620   6.969  11.618   7.938  0.0249  0.3551 -0.2625
  614ERGO   ROH 9621  12.151   8.672   9.164  0.2052 -0.0641  0.0380
  614ERGO    R1 9622  12.010   8.660   8.919  0.1067 -0.0378  0.0912
  614ERGO    R2 9623  12.125   8.733   8.678  0.0391 -0.0760  0.0435
  614ERGO    R3 9624  12.046   8.484   8.602 -0.0563 -0.0645  0.0853
  614ERGO    R4 9625  12.088   8.629   8.351 -0.1345 -0.0759  0.0627
  614ERGO    R5 9626  11.908   8.522   8.410 -0.1374 -0.0345  0.1472
  614ERGO    C1 9627  11.992   8.335   8.089 -0.3251 -0.0651  0.1131
  614ERGO    C2 9628  12.083   8.282   7.801  0.0170 -0.0560 -0.2956
  615ERGO   ROH 9629  12.436   0.427   9.396  0.0648  0.3315  0.1503
  615ERGO    R1 9630  12.613   0.516   9.195  0.1221  0.1484  0.1185
  615ERGO    R2 9631  12.824   0.362   9.103 -0.0619 -0.0775  0.0680
  615ERGO    R3 9632  12.710   0.409   8.861 -0.0621  0.0580  0.0935
  615ERGO    R4 9633  12.997   0.447   8.816 -0.0226 -0.2931  0.0258
  615ERGO    R5 9634  12.838   0.588   8.768  0.1372 -0.0984  0.0605
  615ERGO    C1 9635  12.990   0.540   8.422 -0.0000 -0.2915  0.0249
  615ERGO    C2 9636  13.180   0.581   8.154  0.0105 -0.0907 -0.1894
  616ERGO   ROH 9637   3.717  10.434   9.375  0.1683  0.0863  0.1045
  616ERGO    R1 9638   3.639  10.514   9.116  0.2539  0.1021  0.0830
  616ERGO    R2 9639   3.791  10.461   8.891  0.1900 -0.1399  0.0922
  616ERGO    R3 9640   3.560  10.351   8.800  0.0566  0.0978  0.1343
  616ERGO    R4 9641   3.689  10.460   8.561  0.2101 -0.1935  0.0861
  616ERGO    R5 9642   3.486  10.500   8.629  0.2544  0.0968  0.0485
  616ERGO    C1 9643   3.413  10.355   8.283  0.0965 -0.0015  0.1220
  616ERGO    C2 9644   3.368  10.247   7.879 -0.0303 -0.1964 -0.5830
  617ERGO   ROH 9645   8.762   7.285   9.171 -0.2374 -0.3051  0.0481
  617ERGO    R1 9646   8.705   7.419   8.928 -0.2539 -0.2501  0.0832
  617ERGO    R2 9647   8.882   7.425   8.716 -0.2368 -0.1363  0.1032
  617ERGO    R3 9648   8.669   7.329   8.578 -0.1959 -0.1562  0.0521
  617ERGO    R4 9649   8.824   7.481   8.380 -0.2243 -0.0398  0.1160
  617ERGO    R5 9650   8.612   7.506   8.426 -0.2375 -0.1208  0.1068
  617ERGO    C1 9651   8.589   7.423   8.055 -0.1788 -0.0024  0.0754
  617ERGO    C2 9652   8.448   7.339   7.787  0.1786  0.4522  0.1541
  618ERGO   ROH 9653  10.255   5.924   8.904 -0.1059 -0.3516  0.1829
  618ERGO    R1 9654  10.288   5.658   8.811 -0.2917 -0.3128 -0.0031
  618ERGO    R2 9655  10.157   5.561   8.588 -0.1279  0.0262 -0.2610
  618ERGO    R3 9656  10.408   5.497   8.508 -0.0919 -0.1819  0.0061
  618ERGO    R4 9657  10.233   5.379   8.305  0.0377  0.2033 -0.3323
  618ERGO    R5 9658  10.388   5.276   8.419 -0.2253 -0.0766 -0.2244
  618ERGO    C1 9659  10.514   5.212   8.065  0.1678  0.1110 -0.1229
  618ERGO    C2 9660  10.704   5.205   7.781  0.0938 -0.0175  0.1632
  619ERGO   ROH 9661   6.601   6.351   9.202 -0.2475  0.0236 -0.1131
  619ERGO    R1 9662   6.529   6.388   8.931 -0.0895  0.0636 -0.1523
  619ERGO    R2 9663   6.715   6.438   8.732  0.0330  0.0742 -0.0464
  619ERGO    R3 9664   6.598   6.223   8.614  0.0819  0.0955 -0.1302
  619ERGO    R4 9665   6.753   6.349   8.400  0.0380  0.2102 -0.0811
  619ERGO    R5 9666   6.542   6.299   8.394  0.0566  0.1634 -0.0947
  619ERGO    C1 9667   6.665   6.096   8.096  0.0867  0.3094 -0.1801
  619ERGO    C2 9668   6.715   5.880   7.863 -0.1867 -0.3412 -0.0181
  620ERGO   ROH 9669   5.319  11.053   9.680 -0.0703 -0.0539 -0.0019
  620ERGO    R1 9670   5.404  11.216   9.465 -0.0210 -0.1519 -0.0565
  620ERGO    R2 9671   5.421  11.123   9.206 -0.2118 -0.1984 -0.0497
  620ERGO    R3 9672   5.261  11.336   9.153 -0.0503 -0.0644 -0.0110
  620ERGO    R4 9673   5.400  11.282   8.899 -0.3348 -0.3441 -0.1189
  620ERGO    R5 9674   5.392  11.473   9.005 -0.0443 -0.2735 -0.2085
  620ERGO    C1 9675   5.237  11.574   8.671 -0.2547 -0.3031 -0.1228
  620ERGO    C2 9676   5.186  11.746   8.434 -0.1096 -0.0537 -0.1246
  621ERGO   ROH 9677  18.623   5.011   9.757 -0.0056 -0.0170  0.1053
  621ERGO    R1 9678  18.513   5.163   9.545  0.1474  0.0319  0.0611
  621ERGO    R2 9679  18.650   5.209   9.309  0.1635 -0.2473  0.0142
  621ERGO    R3 9680  18.426   5.105   9.196  0.0041 -0.0100  0.1030
  621ERGO    R4 9681  18.578   5.217   8.971  0.0081 -0.1185  0.0493
  621ERGO    R5 9682  18.370   5.260   9.022  0.0710  0.0769  0.1569
  621ERGO    C1 9683  18.324   5.124   8.669 -0.2321  0.1793  0.1530
  621ERGO    C2 9684  18.337   4.979   8.353 -0.1255  0.1104  0.1481
  622ERGO   ROH 9685  10.764  16.689   9.270  0.1718  0.0629  0.0693
  622ERGO    R1 9686  10.882  16.625   9.021  0.0080  0.0295 -0.0022
  622ERGO    R2 9687  10.737  16.527   8.808 -0.1528  0.0984  0.0690
  622ERGO    R3 9688  10.850  16.736   8.676 -0.1430  0.0637  0.0237
  622ERGO    R4 9689  10.731  16.571   8.465  0.0266 -0.0722  0.0427
  622ERGO    R5 9690  10.937  16.639   8.476 -0.0033 -0.0077  0.1215
  622ERGO    C1 9691  10.833  16.793   8.142  0.1404 -0.2040 -0.0152
  622ERGO    C2 9692  10.855  16.890   7.800 -0.1216 -0.0414  0.0941
  623ERGO   ROH 9693  17.844   4.538   9.714  0.0070  0.1246  0.0880
  623ERGO    R1 9694  17.814   4.532   9.433  0.0927  0.1106  0.0790
  623ERGO    R2 9695  17.921   4.330   9.277 -0.0402 -0.0138  0.1442
  623ERGO    R3 9696  17.665   4.307   9.188 -0.0358  0.2096  0.0656
  623ERGO    R4 9697  17.830   4.279   8.947  0.0402 -0.3650  0.1723
  623ERGO    R5 9698  17.665   4.419   8.976  0.2142 -0.0917 -0.1011
  623ERGO    C1 9699  17.537   4.227   8.672  0.0912 -0.3599  0.1150
  623ERGO    C2 9700  17.468   4.021   8.409 -0.1053 -0.0813  0.2689
  624ERGO   ROH 9701  15.916   5.611   9.888  0.1261 -0.2413  0.0399
  624ERGO    R1 9702  15.908   5.726   9.630  0.2108 -0.0920  0.1019
  624ERGO    R2 9703  16.125   5.723   9.459  0.2071 -0.1715  0.0940
  624ERGO    R3 9704  15.948   5.610   9.287  0.1093  0.0619  0.0377
  624ERGO    R4 9705  16.179   5.681   9.120  0.2607 -0.2509  0.1125
  624ERGO    R5 9706  15.971   5.737   9.085  0.3465  0.0277  0.0423
  624ERGO    C1 9707  16.043   5.550   8.761  0.2002 -0.0780  0.0705
  624ERGO    C2 9708  16.259   5.483   8.607  0.0709  0.0919  0.0911
  625ERGO   ROH 9709  10.448  15.842   9.581  0.2535 -0.2912 -0.0778
  625ERGO    R1 9710  10.470  15.702   9.336  0.2173 -0.2047 -0.1303
  625ERGO    R2 9711  10.251  15.600   9.202  0.2022 -0.1742 -0.1212
  625ERGO    R3 9712  10.351  15.745   8.995  0.1492 -0.0981 -0.0950
  625ERGO    R4 9713  10.141  15.578   8.876  0.1244 -0.0745 -0.1027
  625ERGO    R5 9714  10.349  15.593   8.810  0.1137 -0.0418 -0.1457
  625ERGO    C1 9715  10.170  15.701   8.490  0.0293  0.0551 -0.0673
  625ERGO    C2 9716  10.062  15.624   8.125 -0.0778 -0.0606 -0.0069
  626ERGO   ROH 9717  13.914  11.552   9.406 -0.0584 -0.1021  0.0856
  626ERGO    R1 9718  13.819  11.421   9.174 -0.1686 -0.0025  0.0742
  626ERGO    R2 9719  13.733  11.559   8.950  0.1084  0.0895  0.0231
  626ERGO    R3 9720  13.915  11.401   8.824 -0.0726 -0.1979  0.1096
  626ERGO    R4 9721  13.759  11.523   8.608  0.2563  0.1070  0.0315
  626ERGO    R5 9722  13.796  11.310   8.637 -0.1176  0.0330  0.0207
  626ERGO    C1 9723  13.945  11.354   8.289  0.1726 -0.1526  0.1176
  626ERGO    C2 9724  13.786  11.278   7.929  0.3479 -0.1617  0.2542
  627ERGO   ROH 9725   4.263  10.697   9.370 -0.0700  0.0363 -0.0240
  627ERGO    R1 9726   4.064  10.746   9.174 -0.0361  0.0099 -0.0662
  627ERGO    R2 9727   4.072  10.965   9.005 -0.0131 -0.0043 -0.0880
  627ERGO    R3 9728   4.051  10.775   8.812  0.0322 -0.0262 -0.0706
  627ERGO    R4 9729   4.006  11.028   8.672  0.0704 -0.0501 -0.1133
  627ERGO    R5 9730   3.876  10.854   8.669  0.0711 -0.0454 -0.1247
  627ERGO    C1 9731   3.948  10.886   8.296  0.1615 -0.0972 -0.1115
  627ERGO    C2 9732   3.940  11.016   7.973 -0.0152  0.0744 -0.2769
  628ERGO   ROH 9733   9.253  18.029   9.553 -0.0342  0.3457 -0.0700
  628ERGO    R1 9734   9.254  17.944   9.284  0.1697  0.2721 -0.0475
  628ERGO    R2 9735   9.028  17.945   9.126  0.1987 -0.1376 -0.1057
  628ERGO    R3 9736   9.184  18.092   8.959  0.0060  0.0737 -0.1045
  628ERGO    R4 9737   9.021  17.924   8.781  0.1382 -0.0485 -0.1101
  628ERGO    R5 9738   9.239  17.940   8.781  0.1225  0.1793 -0.1594
  628ERGO    C1 9739   9.164  18.049   8.423 -0.0779  0.2015 -0.1115
  628ERGO    C2 9740   8.892  17.898   8.183  0.3052 -0.1245 -0.0917
  629ERGO   ROH 9741   5.112   4.420   9.131 -0.1724 -0.1623 -0.0101
  629ERGO    R1 9742   5.077   4.212   8.941 -0.0152 -0.1661 -0.0362
  629ERGO    R2 9743   4.845   4.184   8.794  0.0216 -0.3016 -0.0650
  629ERGO    R3 9744   5.016   4.189   8.583  0.0419 -0.1695 -0.0465
  629ERGO    R4 9745   4.775   4.060   8.479  0.1342 -0.3261 -0.0811
  629ERGO    R5 9746   4.978   3.982   8.470  0.1912 -0.1899 -0.0656
  629ERGO    C1 9747   4.895   3.992   8.098  0.2188 -0.2164 -0.0730
  629ERGO    C2 9748   4.762   3.991   7.832 -0.1204 -0.2118 -0.0396
  630ERGO   ROH 9749   2.086   7.839   9.402  0.0661 -0.1532 -0.0581
  630ERGO    R1 9750   1.868   7.861   9.222  0.0488  0.0057 -0.0206
  630ERGO    R2 9751   1.812   8.093   9.084  0.2020  0.0449 -0.0210
  630ERGO    R3 9752   1.824   7.929   8.867  0.0385  0.0239 -0.0155
  630ERGO    R4 9753   1.666   8.158   8.777 -0.1033 -0.0261  0.1053
  630ERGO    R5 9754   1.609   7.948   8.765 -0.0639 -0.0409  0.1837
  630ERGO    C1 9755   1.593   8.042   8.396 -0.4345 -0.0871  0.1841
  630ERGO    C2 9756   1.677   8.151   8.069  0.0730 -0.2205  0.1505
  631ERGO   ROH 9757   1.753  17.328   9.390 -0.0025 -0.1380 -0.1390
  631ERGO    R1 9758   1.859  17.359   9.129 -0.1643 -0.1627 -0.2094
  631ERGO    R2 9759   1.709  17.314   8.901 -0.4111  0.1447 -0.1193
  631ERGO    R3 9760   1.788  17.566   8.838 -0.1171  0.0704 -0.0557
  631ERGO    R4 9761   1.792  17.422   8.584 -0.2577  0.1328 -0.0837
  631ERGO    R5 9762   1.956  17.536   8.670 -0.1377 -0.0758 -0.0451
  631ERGO    C1 9763   1.915  17.721   8.340  0.1077  0.0560 -0.0032
  631ERGO    C2 9764   1.786  17.852   8.154 -0.1230  0.2529  0.1314
  632ERGO   ROH 9765   7.159  17.302   9.189  0.1598 -0.0212  0.1408
  632ERGO    R1 9766   7.140  17.138   8.959  0.2124  0.0357  0.0965
  632ERGO    R2 9767   6.913  17.126   8.803  0.1915 -0.0501  0.1364
  632ERGO    R3 9768   7.085  17.189   8.603  0.1180  0.1081  0.1207
  632ERGO    R4 9769   6.830  17.137   8.468  0.1581 -0.1570  0.1403
  632ERGO    R5 9770   7.022  17.044   8.422  0.2501  0.0300  0.1350
  632ERGO    C1 9771   6.944  17.203   8.084  0.0697 -0.0707  0.1276
  632ERGO    C2 9772   6.920  17.222   7.725  0.1900 -0.0809 -0.2452
  633ERGO   ROH 9773  12.985  13.466   8.815  0.0360 -0.0070 -0.0238
  633ERGO    R1 9774  12.875  13.421   8.559 -0.0452 -0.0329  0.0143
  633ERGO    R2 9775  12.754  13.622   8.411  0.0018 -0.0195 -0.0163
  633ERGO    R3 9776  12.932  13.544   8.221 -0.0715 -0.1496 -0.0315
  633ERGO    R4 9777  12.717  13.673   8.071  0.0509  0.0670 -0.0083
  633ERGO    R5 9778  12.797  13.473   8.037 -0.1318  0.0036 -0.0419
  633ERGO    C1 9779  12.862  13.629   7.695  0.0107 -0.0048 -0.0181
  633ERGO    C2 9780  12.845  13.703   7.337 -0.0505  0.5992 -0.2595
  634ERGO   ROH 9781   3.557  11.384   9.806  0.0487 -0.0922 -0.1115
  634ERGO    R1 9782   3.481  11.402   9.534 -0.0172  0.0629 -0.0844
  634ERGO    R2 9783   3.240  11.508   9.454 -0.0396  0.1099  0.0331
  634ERGO    R3 9784   3.397  11.668   9.300 -0.0745  0.1982  0.0889
  634ERGO    R4 9785   3.163  11.609   9.132  0.1030 -0.0764 -0.0609
  634ERGO    R5 9786   3.373  11.579   9.078  0.1689  0.0960  0.1025
  634ERGO    C1 9787   3.267  11.818   8.800  0.1532 -0.1020 -0.0633
  634ERGO    C2 9788   3.207  11.769   8.433 -0.0600 -0.0596 -0.1411
  635ERGO   ROH 9789  16.332  12.754   9.053  0.1477  0.0579 -0.0928
  635ERGO    R1 9790  16.374  12.817   8.780 -0.0081  0.0801 -0.1126
  635ERGO    R2 9791  16.196  12.744   8.581 -0.1222  0.0952 -0.0187
  635ERGO    R3 9792  16.201  13.009   8.523 -0.1566  0.1000  0.0013
  635ERGO    R4 9793  16.034  12.890   8.314  0.0337  0.0654 -0.1307
  635ERGO    R5 9794  16.209  13.017   8.284  0.0186  0.1175  0.0070
  635ERGO    C1 9795  15.945  13.225   8.103  0.0922  0.0526 -0.1770
  635ERGO    C2 9796  15.779  13.203   7.796  0.1763 -0.0798 -0.0365
  636ERGO   ROH 9797   0.936   6.624   9.565  0.0032  0.2045  0.1723
  636ERGO    R1 9798   0.799   6.619   9.317  0.0208  0.2128  0.1631
  636ERGO    R2 9799   0.739   6.849   9.175  0.1070  0.2101  0.1267
  636ERGO    R3 9800   0.869   6.720   8.974  0.0789  0.1396  0.1524
  636ERGO    R4 9801   0.704   6.922   8.839  0.0259  0.0693  0.1031
  636ERGO    R5 9802   0.708   6.708   8.798  0.0398  0.0494  0.1911
  636ERGO    C1 9803   0.806   6.843   8.455 -0.0477 -0.0788  0.1135
  636ERGO    C2 9804   0.945   6.861   8.150 -0.0647  0.1447 -0.3528
  637ERGO   ROH 9805   8.821  13.126   9.889  0.0025  0.1714  0.0627
  637ERGO    R1 9806   8.762  13.016   9.635  0.0180 -0.0930  0.1711
  637ERGO    R2 9807   8.794  13.158   9.400 -0.3268 -0.2031  0.0552
  637ERGO    R3 9808   8.945  12.943   9.329 -0.0473 -0.0326  0.1164
  637ERGO    R4 9809   8.908  13.093   9.081 -0.1517 -0.0905  0.0925
  637ERGO    R5 9810   8.864  12.883   9.113  0.0879 -0.1455  0.0937
  637ERGO    C1 9811   9.116  12.855   8.828  0.2128  0.1352  0.1716
  637ERGO    C2 9812   9.322  12.921   8.525  0.1752 -0.3260  0.0345
  638ERGO   ROH 9813   1.318  11.911   9.225  0.1858  0.0391 -0.2009
  638ERGO    R1 9814   1.124  11.968   9.027  0.0834  0.0497 -0.0988
  638ERGO    R2 9815   1.171  11.929   8.757  0.0027  0.2172 -0.1369
  638ERGO    R3 9816   0.944  11.781   8.772  0.0807  0.0967 -0.1322
  638ERGO    R4 9817   0.970  11.847   8.488 -0.1096  0.3559 -0.0962
  638ERGO    R5 9818   0.796  11.882   8.614 -0.0573  0.1671  0.0368
  638ERGO    C1 9819   0.640  11.660   8.346 -0.1018  0.3235 -0.0680
  638ERGO    C2 9820   0.480  11.416   8.208  0.1531  0.0752  0.1894
  639ERGO   ROH 9821  17.363  12.229   9.301  0.0768  0.4812  0.0534
  639ERGO    R1 9822  17.474  12.056   9.107  0.0846  0.3259  0.1941
  639ERGO    R2 9823  17.364  12.025   8.855  0.0160  0.0231  0.2582
  639ERGO    R3 9824  17.615  12.089   8.773 -0.0357  0.0426  0.1121
  639ERGO    R4 9825  17.498  11.940   8.548 -0.2558  0.2886  0.0587
  639ERGO    R5 9826  17.687  11.897   8.649 -0.1812  0.1441 -0.1376
  639ERGO    C1 9827  17.812  11.951   8.292 -0.4626  0.4615 -0.1946
  639ERGO    C2 9828  17.926  11.865   7.949  0.0298 -0.1319 -0.0933
  640ERGO   ROH 9829   6.579  10.552   9.353 -0.0517  0.0493  0.0559
  640ERGO    R1 9830   6.558  10.519   9.072 -0.0362  0.0345  0.0565
  640ERGO    R2 9831   6.458  10.288   8.957  0.0438 -0.0027  0.0608
  640ERGO    R3 9832   6.290  10.462   8.833 -0.0134 -0.0628  0.0539
  640ERGO    R4 9833   6.333  10.247   8.637  0.1598  0.0080  0.0134
  640ERGO    R5 9834   6.362  10.461   8.604  0.0547  0.0319  0.0746
  640ERGO    C1 9835   6.102  10.386   8.335  0.1737 -0.0422 -0.0206
  640ERGO    C2 9836   5.890  10.226   8.142  0.3341 -0.1299 -0.0078
  641ERGO   ROH 9837  17.554  10.908   9.336  0.0379 -0.0277  0.1728
  641ERGO    R1 9838  17.704  11.038   9.134 -0.1152 -0.0453  0.0456
  641ERGO    R2 9839  17.951  10.948   9.050 -0.0345  0.1272  0.0938
  641ERGO    R3 9840  17.834  10.954   8.805 -0.0733 -0.1926  0.0990
  641ERGO    R4 9841  18.109  10.868   8.753  0.0139  0.0508  0.1397
  641ERGO    R5 9842  18.006  11.035   8.659 -0.1727 -0.1297  0.0147
  641ERGO    C1 9843  18.091  10.827   8.350  0.0059 -0.2939  0.1712
  641ERGO    C2 9844  18.147  10.577   8.237 -0.1752 -0.2297  0.0776
  642ERGO   ROH 9845   3.505  15.615   9.135  0.2003  0.0812 -0.0325
  642ERGO    R1 9846   3.455  15.467   8.899  0.1147  0.0196  0.0227
  642ERGO    R2 9847   3.375  15.587   8.663  0.0084 -0.0423  0.0225
  642ERGO    R3 9848   3.590  15.455   8.561 -0.0207 -0.0497 -0.0285
  642ERGO    R4 9849   3.412  15.496   8.332 -0.0470 -0.0113  0.0081
  642ERGO    R5 9850   3.497  15.306   8.398 -0.0545 -0.0224 -0.0291
  642ERGO    C1 9851   3.636  15.320   8.043 -0.1066 -0.0002 -0.0482
  642ERGO    C2 9852   3.637  15.234   7.802 -0.1963 -0.1432 -0.1079
  643ERGO   ROH 9853   4.952   5.350   8.785  0.0526 -0.0176  0.1049
  643ERGO    R1 9854   4.801   5.221   8.583  0.0946 -0.0196  0.0739
  643ERGO    R2 9855   4.623   5.357   8.421  0.0378 -0.0393  0.1114
  643ERGO    R3 9856   4.770   5.246   8.221  0.0800  0.0683  0.0825
  643ERGO    R4 9857   4.507   5.294   8.102  0.0132 -0.1857  0.1485
  643ERGO    R5 9858   4.615   5.105   8.104  0.1803 -0.0840  0.1401
  643ERGO    C1 9859   4.577   5.153   7.728  0.0386 -0.1699  0.1431
  643ERGO    C2 9860   4.448   5.208   7.282  0.0248  0.1235 -0.2441
  644ERGO   ROH 9861  13.066  10.711   9.319 -0.0789  0.0610  0.0289
  644ERGO    R1 9862  12.956  10.610   9.078  0.0031  0.0370  0.0016
  644ERGO    R2 9863  12.855  10.774   8.881  0.0015  0.0127 -0.0138
  644ERGO    R3 9864  13.028  10.637   8.723  0.0730  0.0665  0.0170
  644ERGO    R4 9865  12.812  10.720   8.542 -0.0376 -0.1846  0.0215
  644ERGO    R5 9866  12.888  10.517   8.571  0.1256 -0.1176  0.1069
  644ERGO    C1 9867  12.950  10.559   8.197  0.0069 -0.2491  0.0709
  644ERGO    C2 9868  12.819  10.545   7.836  0.1109  0.0163 -0.1681
  645ERGO   ROH 9869  12.199  16.416   9.091  0.1629 -0.1302 -0.0121
  645ERGO    R1 9870  12.159  16.423   8.811  0.0336 -0.0164  0.0087
  645ERGO    R2 9871  12.147  16.195   8.656  0.0831  0.0515 -0.0955
  645ERGO    R3 9872  11.909  16.300   8.576 -0.0080 -0.0326  0.0612
  645ERGO    R4 9873  12.026  16.187   8.332 -0.0918  0.0762 -0.0317
  645ERGO    R5 9874  11.954  16.391   8.360 -0.1666  0.0396  0.0569
  645ERGO    C1 9875  11.732  16.281   8.069 -0.2790  0.0118  0.1526
  645ERGO    C2 9876  11.614  16.229   7.745 -0.0118 -0.2720 -0.0689
  646ERGO   ROH 9877   9.782  12.398   9.452  0.1484 -0.1594  0.1393
  646ERGO    R1 9878   9.797  12.505   9.190  0.0369 -0.0288  0.1838
  646ERGO    R2 9879  10.032  12.505   9.043 -0.0304  0.0146  0.0697
  646ERGO    R3 9880   9.877  12.379   8.858 -0.1371  0.1264  0.0822
  646ERGO    R4 9881  10.075  12.529   8.701  0.0590 -0.1480  0.0689
  646ERGO    R5 9882   9.858  12.538   8.679  0.0732  0.0883  0.0261
  646ERGO    C1 9883   9.955  12.425   8.328  0.0108 -0.1377  0.0801
  646ERGO    C2 9884  10.000  12.584   7.994  0.0892 -0.1503 -0.1043
  647ERGO   ROH 9885   6.658   8.978   8.867 -0.0204 -0.3562 -0.0068
  647ERGO    R1 9886   6.732   8.965   8.594 -0.0302 -0.2300 -0.0145
  647ERGO    R2 9887   6.569   8.853   8.400 -0.0600 -0.0818 -0.0659
  647ERGO    R3 9888   6.603   9.094   8.279 -0.0000 -0.0292  0.0514
  647ERGO    R4 9889   6.510   8.918   8.066 -0.1846  0.1172 -0.0082
  647ERGO    R5 9890   6.689   9.041   8.062 -0.1202  0.0384 -0.0201
  647ERGO    C1 9891   6.508   9.182   7.758 -0.2008  0.2825  0.1356
  647ERGO    C2 9892   6.552   9.334   7.547  0.2469 -0.2326  0.1537
  648ERGO   ROH 9893  18.145  10.073   9.787 -0.1542 -0.0571 -0.1039
  648ERGO    R1 9894  18.053  10.071   9.520 -0.0284  0.1166 -0.1504
  648ERGO    R2 9895  18.213  10.146   9.307  0.1725 -0.0343 -0.0600
  648ERGO    R3 9896  18.143   9.902   9.210 -0.0875  0.0695 -0.1407
  648ERGO    R4 9897  18.237  10.050   8.976  0.3171 -0.0402 -0.0483
  648ERGO    R5 9898  18.045   9.948   8.997  0.1557  0.2234 -0.2192
  648ERGO    C1 9899  18.185   9.765   8.692  0.1572  0.0539 -0.1174
  648ERGO    C2 9900  18.187   9.740   8.329  0.0222 -0.1234  0.0875
  649ERGO   ROH 9901  14.391  14.110   9.198  0.0665 -0.1821 -0.1909
  649ERGO    R1 9902  14.300  14.046   8.937 -0.1211 -0.0855 -0.1508
  649ERGO    R2 9903  14.114  14.200   8.802  0.0162  0.1417 -0.0826
  649ERGO    R3 9904  14.305  14.204   8.610 -0.0556 -0.1119 -0.1636
  649ERGO    R4 9905  14.055  14.251   8.466 -0.0651  0.2284 -0.0556
  649ERGO    R5 9906  14.203  14.098   8.421 -0.2842  0.0254 -0.1231
  649ERGO    C1 9907  14.200  14.285   8.089 -0.1799  0.0409 -0.1158
  649ERGO    C2 9908  14.005  14.277   7.882  0.0965 -0.6230  0.0335
  650ERGO   ROH 9909   1.149   0.371   9.429 -0.0285  0.2304  0.0835
  650ERGO    R1 9910   1.216   0.323   9.158 -0.0417  0.1657  0.0915
  650ERGO    R2 9911   1.255   0.068   9.057 -0.0717  0.1399  0.1440
  650ERGO    R3 9912   1.068   0.147   8.876 -0.0688  0.1216  0.1334
  650ERGO    R4 9913   1.300   0.073   8.715 -0.1076 -0.0055  0.1367
  650ERGO    R5 9914   1.192   0.262   8.707 -0.0554  0.0214  0.0750
  650ERGO    C1 9915   1.151   0.149   8.345 -0.1257 -0.1074  0.1225
  650ERGO    C2 9916   1.249  -0.061   8.040 -0.2405 -0.2969 -0.3330
  651ERGO   ROH 9917   3.690  16.048   9.233 -0.0975  0.2082  0.0434
  651ERGO    R1 9918   3.934  16.181   9.181  0.0057  0.0119  0.0148
  651ERGO    R2 9919   4.056  16.176   8.933 -0.0659 -0.0268 -0.0198
  651ERGO    R3 9920   4.048  16.447   8.959  0.1756 -0.0242  0.0577
  651ERGO    R4 9921   4.226  16.399   8.731 -0.2433 -0.1080 -0.2634
  651ERGO    R5 9922   4.271  16.518   8.908  0.1480 -0.1771 -0.3072
  651ERGO    C1 9923   4.317  16.783   8.638 -0.1199 -0.1527 -0.3326
  651ERGO    C2 9924   4.596  16.953   8.505  0.0091  0.1104  0.0285
  652ERGO   ROH 9925  14.355   1.968   9.354  0.2239  0.0925 -0.0390
  652ERGO    R1 9926  14.362   2.029   9.077  0.0055  0.1526 -0.0335
  652ERGO    R2 9927  14.135   2.088   8.931 -0.1159  0.1411  0.1488
  652ERGO    R3 9928  14.274   2.312   8.867 -0.2061  0.1809  0.0902
  652ERGO    R4 9929  14.239   2.172   8.613 -0.0799  0.0620  0.1396
  652ERGO    R5 9930  14.427   2.241   8.697 -0.1328  0.1847  0.1555
  652ERGO    C1 9931  14.430   2.431   8.367 -0.1437  0.0533  0.0791
  652ERGO    C2 9932  14.398   2.666   8.045  0.0264 -0.0192 -0.2056
  653ERGO   ROH 9933   9.958   1.800   9.112  0.3730  0.0174 -0.0983
  653ERGO    R1 9934   9.980   1.883   8.842  0.3302 -0.1134 -0.1422
  653ERGO    R2 9935   9.977   1.704   8.630  0.0755 -0.1969 -0.0671
  653ERGO    R3 9936   9.776   1.864   8.542  0.1807 -0.0503 -0.0464
  653ERGO    R4 9937   9.890   1.747   8.299  0.1627 -0.0322 -0.0697
  653ERGO    R5 9938   9.860   1.959   8.339  0.2750 -0.0255  0.0013
  653ERGO    C1 9939   9.651   1.923   8.022  0.3122  0.2015 -0.0517
  653ERGO    C2 9940   9.417   1.984   7.692 -0.1370 -0.0491  0.1692
  654ERGO   ROH 9941  11.095   9.767   9.380 -0.1525 -0.0529 -0.0123
  654ERGO    R1 9942  11.067   9.679   9.113 -0.1352  0.0227 -0.0388
  654ERGO    R2 9943  10.895   9.801   8.933 -0.0033  0.1724 -0.0598
  654ERGO    R3 9944  11.119   9.819   8.781  0.0500  0.0573  0.0026
  654ERGO    R4 9945  10.924   9.686   8.609  0.1840 -0.3318  0.1247
  654ERGO    R5 9946  11.124   9.615   8.657  0.2112 -0.1487  0.3245
  654ERGO    C1 9947  11.151   9.637   8.277  0.3431 -0.7335  0.2907
  654ERGO    C2 9948  11.096   9.592   7.941  0.0630 -0.2582  0.1470
  655ERGO   ROH 9949  15.933   7.062   9.774  0.0009  0.0234 -0.0272
  655ERGO    R1 9950  16.053   7.024   9.520  0.0235 -0.0580 -0.0055
  655ERGO    R2 9951  16.038   7.212   9.318  0.0284 -0.1267 -0.0757
  655ERGO    R3 9952  16.309   7.189   9.321  0.0284 -0.1106 -0.0414
  655ERGO    R4 9953  16.247   7.306   9.060  0.0756  0.0818  0.0371
  655ERGO    R5 9954  16.366   7.127   9.097  0.0780  0.0634 -0.0756
  655ERGO    C1 9955  16.623   7.340   8.912  0.1029  0.2183  0.1349
  655ERGO    C2 9956  16.779   7.367   8.685 -0.0144 -0.0834  0.2509
  656ERGO   ROH 9957   5.192   1.092   9.425  0.0315  0.0690 -0.0120
  656ERGO    R1 9958   5.070   1.221   9.204  0.0383  0.0763 -0.0091
  656ERGO    R2 9959   5.216   1.353   9.010  0.0452  0.0122 -0.0348
  656ERGO    R3 9960   5.079   1.189   8.841 -0.0211  0.0382 -0.0100
  656ERGO    R4 9961   5.147   1.424   8.679  0.4394 -0.1724 -0.1639
  656ERGO    R5 9962   4.949   1.338   8.707  0.2893  0.1082 -0.2586
  656ERGO    C1 9963   4.979   1.312   8.327  0.6066 -0.2555 -0.2158
  656ERGO    C2 9964   5.036   1.199   7.967 -0.2437  0.2016 -0.2755
  657ERGO   ROH 9965   5.126  10.524   9.590 -0.0979  0.1591  0.0253
  657ERGO    R1 9966   5.180  10.513   9.312 -0.1591  0.1257  0.0144
  657ERGO    R2 9967   5.284  10.288   9.189  0.0490  0.1937  0.0611
  657ERGO    R3 9968   5.066  10.315   9.029 -0.0248 -0.0901  0.1091
  657ERGO    R4 9969   5.272  10.196   8.857  0.0883  0.1594  0.0693
  657ERGO    R5 9970   5.157  10.377   8.816 -0.1512  0.0139  0.0845
  657ERGO    C1 9971   5.061  10.167   8.512  0.0419 -0.1270  0.1190
  657ERGO    C2 9972   5.001   9.957   8.307  0.2010  0.1536  0.0806
  658ERGO   ROH 9973   7.055   3.147   9.248 -0.3946 -0.0407 -0.0850
  658ERGO    R1 9974   7.068   3.331   9.034 -0.3887 -0.0285 -0.0722
  658ERGO    R2 9975   7.128   3.255   8.775 -0.3422 -0.0059 -0.0607
  658ERGO    R3 9976   6.895   3.383   8.719 -0.3491 -0.0306 -0.0966
  658ERGO    R4 9977   7.020   3.338   8.458 -0.3880 -0.2014 -0.0987
  658ERGO    R5 9978   6.949   3.528   8.536 -0.3680 -0.1431 -0.2000
  658ERGO    C1 9979   6.739   3.506   8.219 -0.4211 -0.3383 -0.1544
  658ERGO    C2 9980   6.576   3.507   7.857  0.0838  0.2875 -0.1504
  659ERGO   ROH 9981   3.851   5.147   9.067  0.1002 -0.1509  0.1087
  659ERGO    R1 9982   3.766   4.993   8.845 -0.0890  0.0061  0.0697
  659ERGO    R2 9983   3.598   5.093   8.650  0.0144  0.2549  0.1062
  659ERGO    R3 9984   3.796   5.013   8.483 -0.0851  0.0716  0.0730
  659ERGO    R4 9985   3.553   5.000   8.320 -0.1506  0.1296  0.1621
  659ERGO    R5 9986   3.697   4.840   8.351 -0.2259  0.0641  0.1849
  659ERGO    C1 9987   3.713   4.871   7.971 -0.3401 -0.1154  0.1635
  659ERGO    C2 9988   3.618   4.848   7.623 -0.1181 -0.2272 -0.0744
  660ERGO   ROH 9989  14.368   6.694   7.694  0.0438  0.0324 -0.1052
  660ERGO    R1 9990  14.592   6.552   7.596 -0.0500 -0.0935 -0.1408
  660ERGO    R2 9991  14.573   6.365   7.393 -0.1511  0.0853 -0.3015
  660ERGO    R3 9992  14.765   6.518   7.277  0.0291  0.0090 -0.1086
  660ERGO    R4 9993  14.826   6.245   7.190 -0.1666  0.0221 -0.2832
  660ERGO    R5 9994  14.963   6.383   7.288 -0.0888 -0.1654 -0.1239
  660ERGO    C1 9995  15.153   6.319   6.963 -0.0065 -0.0864 -0.0914
  660ERGO    C2 9996  15.420   6.076   6.789 -0.1573  0.1344 -0.0501
  661ERGO   ROH 9997  14.738   7.553   9.802  0.2126  0.0033 -0.0602
  661ERGO    R1 9998  14.641   7.597   9.539  0.1427 -0.1414 -0.0593
  661ERGO    R2 9999  14.677   7.837   9.406 -0.0081 -0.1718 -0.1498
  661ERGO    R310000  14.785   7.677   9.215  0.0414 -0.1805 -0.1155
  661ERGO    R410001  14.651   7.892   9.066 -0.1359 -0.3149 -0.1650
  661ERGO    R510002  14.623   7.677   9.039 -0.0104 -0.3483 -0.0733
  661ERGO    C110003  14.739   7.774   8.688 -0.1639 -0.4064 -0.1415
  661ERGO    C210004  14.827   8.158   8.591 -0.0436  0.1333 -0.0888
  662ERGO   ROH10005  18.385  14.562   9.677  0.0287 -0.1484 -0.0274
  662ERGO    R110006  18.366  14.715   9.440  0.1048 -0.1197 -0.0149
  662ERGO    R210007  18.518  14.661   9.215  0.1017 -0.1574 -0.0075
  662ERGO    R310008  18.275  14.654   9.092  0.1079 -0.0543 -0.0271
  662ERGO    R410009  18.466  14.721   8.879  0.1299  0.0141  0.0176
  662ERGO    R510010  18.286  14.832   8.932  0.1478  0.0206  0.0592
  662ERGO    C110011  18.208  14.751   8.568  0.1521  0.2107  0.0140
  662ERGO    C210012  18.141  14.573   8.325 -0.1945  0.1446  0.0964
  663ERGO   ROH10013  14.436  12.274   9.423 -0.1888  0.0401  0.0439
  663ERGO    R110014  14.497  12.312   9.149 -0.1741  0.1464  0.0609
  663ERGO    R210015  14.505  12.103   8.969  0.1121  0.1732  0.0345
  663ERGO    R310016  14.329  12.258   8.831 -0.0458 -0.0159  0.0202
  663ERGO    R410017  14.485  12.120   8.624  0.2286  0.2733  0.0321
  663ERGO    R510018  14.454  12.335   8.641 -0.0737  0.2259  0.0995
  663ERGO    C110019  14.307  12.275   8.294  0.1483  0.1540  0.0172
  663ERGO    C210020  14.368  12.233   7.885  0.0652 -0.2074 -0.0225
  664ERGO   ROH10021   7.659   8.201   8.982 -0.0199 -0.2758 -0.1255
  664ERGO    R110022   7.781   8.124   8.738  0.0886 -0.0786 -0.1357
  664ERGO    R210023   7.662   7.949   8.560  0.3044 -0.1834 -0.1841
  664ERGO    R310024   7.704   8.152   8.384  0.0773 -0.0901 -0.1337
  664ERGO    R410025   7.656   7.917   8.216  0.2945 -0.0925 -0.1920
  664ERGO    R510026   7.827   8.051   8.205  0.1576  0.0846 -0.1774
  664ERGO    C110027   7.692   8.088   7.850  0.0755  0.0481 -0.1493
  664ERGO    C210028   7.528   8.134   7.597 -0.2164 -0.2102  0.0602
  665ERGO   ROH10029   8.109  10.446   9.102 -0.2299  0.3180  0.1211
  665ERGO    R110030   8.115  10.528   8.831 -0.1858  0.2004  0.0854
  665ERGO    R210031   8.028  10.777   8.749 -0.1508  0.1760 -0.0356
  665ERGO    R310032   8.276  10.791   8.638 -0.1340  0.1016 -0.0059
  665ERGO    R410033   8.107  10.949   8.459 -0.0726  0.1061 -0.0554
  665ERGO    R510034   8.237  10.784   8.402 -0.1027  0.0688 -0.0085
  665ERGO    C110035   8.386  11.061   8.187 -0.0114 -0.0045 -0.0390
  665ERGO    C210036   8.392  11.050   7.897 -0.0317  0.4140  0.0297
  666ERGO   ROH10037   2.212  15.229   9.436  0.1737 -0.0450 -0.1947
  666ERGO    R110038   2.198  15.032   9.233  0.2167 -0.0666 -0.1780
  666ERGO    R210039   1.994  15.025   9.046  0.1518 -0.1962 -0.1095
  666ERGO    R310040   2.201  15.026   8.869  0.0922 -0.0840 -0.1781
  666ERGO    R410041   1.972  14.937   8.712  0.0313  0.0879 -0.1780
  666ERGO    R510042   2.163  14.836   8.730  0.0174  0.0414 -0.3270
  666ERGO    C110043   2.153  14.888   8.352 -0.0947  0.3587 -0.2820
  666ERGO    C210044   2.134  14.747   8.005 -0.0876 -0.0846  0.1200
  667ERGO   ROH10045   6.196   2.071   9.403 -0.0537 -0.0628  0.0179
  667ERGO    R110046   6.239   1.896   9.185  0.1189 -0.0573  0.0456
  667ERGO    R210047   6.054   1.862   8.982  0.1551 -0.2630  0.0439
  667ERGO    R310048   6.265   1.925   8.823  0.1022 -0.0873  0.0417
  667ERGO    R410049   6.083   1.774   8.649  0.1587 -0.1206  0.0064
  667ERGO    R510050   6.294   1.732   8.684  0.1878 -0.0205 -0.0360
  667ERGO    C110051   6.299   1.782   8.306  0.1112  0.1273 -0.0173
  667ERGO    C210052   6.323   1.612   8.032  0.0305 -0.2257 -0.0047
  668ERGO   ROH10053   0.106   7.345   9.514 -0.1294 -0.0163  0.2234
  668ERGO    R110054  -0.012   7.507   9.315 -0.1688 -0.1770  0.1118
  668ERGO    R210055   0.137   7.656   9.136 -0.1970  0.0241  0.2411
  668ERGO    R310056  -0.012   7.523   8.952  0.1469 -0.1900  0.1105
  668ERGO    R410057   0.180   7.678   8.794 -0.1315  0.3129  0.2666
  668ERGO    R510058  -0.037   7.678   8.772 -0.1266 -0.1378  0.1965
  668ERGO    C110059   0.065   7.566   8.422  0.2295  0.2801  0.1588
  668ERGO    C210060   0.214   7.541   8.031  0.2940  0.1389  0.1283
  669ERGO   ROH10061   7.649  13.941   9.302 -0.2478 -0.0621 -0.1565
  669ERGO    R110062   7.527  14.079   9.087 -0.3084  0.1212 -0.0075
  669ERGO    R210063   7.563  14.005   8.823 -0.1508  0.5168 -0.1046
  669ERGO    R310064   7.291  13.999   8.821 -0.1466  0.2592 -0.1950
  669ERGO    R410065   7.364  14.138   8.574 -0.1987  0.5795 -0.0334
  669ERGO    R510066   7.228  14.210   8.728 -0.3179  0.2953 -0.0021
  669ERGO    C110067   6.994  14.210   8.427 -0.2226  0.3741 -0.0768
  669ERGO    C210068   6.891  14.201   8.136  0.0841 -0.0202 -0.0263
  670ERGO   ROH10069  17.272  12.927   9.346 -0.3686 -0.1946 -0.0801
  670ERGO    R110070  17.404  12.947   9.097 -0.3186  0.0951 -0.0367
  670ERGO    R210071  17.485  12.725   8.953  0.1620  0.2549 -0.0517
  670ERGO    R310072  17.340  12.841   8.755 -0.0104  0.0118 -0.0687
  670ERGO    R410073  17.557  12.704   8.615  0.3912  0.5971 -0.0266
  670ERGO    R510074  17.502  12.914   8.595 -0.0955  0.4806  0.0532
  670ERGO    C110075  17.462  12.802   8.233  0.3628  0.5681 -0.0280
  670ERGO    C210076  17.396  12.771   7.938  0.3410  0.2940 -0.0614
  671ERGO   ROH10077  11.254   0.118   9.529 -0.0957  0.0476 -0.0765
  671ERGO    R110078  11.267   0.212   9.262 -0.0370  0.1644 -0.0326
  671ERGO    R210079  11.460   0.127   9.083 -0.0629  0.1628 -0.0571
  671ERGO    R310080  11.244   0.067   8.929 -0.0781  0.3274 -0.1022
  671ERGO    R410081  11.471   0.058   8.745 -0.0027 -0.1007 -0.0037
  671ERGO    R510082  11.289   0.174   8.720  0.1519  0.1204 -0.1649
  671ERGO    C110083  11.276  -0.038   8.403  0.0180 -0.0995 -0.0149
  671ERGO    C210084  11.262  -0.229   8.138 -0.1676 -0.2075 -0.1062
  672ERGO   ROH10085   1.869   1.558   9.059 -0.2705  0.1285 -0.0503
  672ERGO    R110086   1.955   1.559   8.790 -0.1930  0.0728 -0.0254
  672ERGO    R210087   2.137   1.377   8.691 -0.0916  0.1157  0.0901
  672ERGO    R310088   1.943   1.330   8.507 -0.0166 -0.0265  0.0451
  672ERGO    R410089   2.195   1.287   8.363  0.0579  0.2283  0.0837
  672ERGO    R510090   2.032   1.419   8.303 -0.0543  0.0948  0.0779
  672ERGO    C110091   2.047   1.189   7.999  0.2154  0.1604  0.0378
  672ERGO    C210092   1.938   1.005   7.697  0.1937  0.1143  0.1255
  673ERGO   ROH10093   8.924   9.871   9.093 -0.1836  0.1846  0.0119
  673ERGO    R110094   8.833   9.994   8.855 -0.0169  0.1626 -0.0634
  673ERGO    R210095   9.005  10.114   8.674  0.1313 -0.0664 -0.0701
  673ERGO    R310096   8.883   9.948   8.497  0.0294 -0.0321 -0.0344
  673ERGO    R410097   8.927  10.195   8.347  0.1712 -0.0752 -0.0827
  673ERGO    R510098   8.738  10.090   8.371  0.1059  0.0350 -0.0556
  673ERGO    C110099   8.767  10.085   7.991  0.0986 -0.0482 -0.0565
  673ERGO    C210100   8.709  10.113   7.629  0.0148  0.0887 -0.0485
  674PSPI    C110101   1.528  13.666   5.712  0.1615 -0.0820 -0.1813
  674PSPI    C210102   1.257  13.960   5.726  0.1839 -0.0718  0.0873
  674PSPI    C310103   1.513  13.938   5.419  0.0590  0.0783 -0.0291
  674PSPI   PO410104   1.646  13.641   5.882  0.2862 -0.1717 -0.0419
  674PSPI   GL110105   1.424  13.876   6.220 -0.0980  0.0323 -0.0394
  674PSPI   GL210106   1.021  13.898   6.161 -0.0185 -0.0517 -0.3220
  674PSPI   C1A10107   1.546  13.662   6.658 -0.1170  0.0031 -0.1065
  674PSPI   C2A10108   1.686  13.512   7.021  0.0713  0.0339  0.1632
  674PSPI   C3A10109   1.830  13.778   7.308  0.1164 -0.2770  0.1365
  674PSPI   C4A10110   1.672  13.954   7.710 -0.1276  0.1210  0.1357
  674PSPI   C1B10111   1.079  13.670   6.505 -0.1164 -0.0170 -0.4484
  674PSPI   C2B10112   1.063  13.481   6.786 -0.0874 -0.0708 -0.1860
  674PSPI   C3B10113   1.122  13.315   7.157  0.1020 -0.2216  0.3281
  674PSPI   C4B10114   1.198  13.279   7.511  0.1539 -0.0948  0.0856
  675PSPI    C110115   9.772   5.619   4.907  0.2997 -0.0616 -0.1076
  675PSPI    C210116  10.002   5.620   5.234  0.1098  0.1217  0.0275
  675PSPI    C310117   9.858   5.964   5.089 -0.1744  0.0003  0.0142
  675PSPI   PO410118   9.528   5.506   5.077  0.1374  0.0298  0.2124
  675PSPI   GL110119   9.391   5.343   5.531  0.2432 -0.2110  0.0500
  675PSPI   GL210120   9.546   5.093   5.714 -0.0685  0.2105  0.1213
  675PSPI   C1A10121   9.576   5.587   5.908 -0.1289  0.1150  0.3180
  675PSPI   C2A10122   9.642   5.687   6.333 -0.1612 -0.0060 -0.0995
  675PSPI   C3A10123   9.489   5.598   6.780  0.0823 -0.2156  0.1290
  675PSPI   C4A10124   9.631   5.790   7.115 -0.1118 -0.2203 -0.2857
  675PSPI   C1B10125   9.226   5.166   6.025 -0.2238  0.1293 -0.2047
  675PSPI   C2B10126   9.058   5.495   6.256 -0.1747 -0.1137 -0.1131
  675PSPI   C3B10127   9.095   5.867   6.408  0.1741 -0.0687  0.0580
  675PSPI   C4B10128   9.468   6.060   6.662  0.1138  0.0018  0.1431
  676PSPI    C110129   3.140   9.893   5.534  0.0000  0.0624 -0.1084
  676PSPI    C210130   3.472   9.671   5.548  0.0561  0.1535  0.0355
  676PSPI    C310131   3.385   9.880   5.219  0.0013 -0.0821 -0.1017
  676PSPI   PO410132   2.950   9.720   5.623  0.3048 -0.2065  0.2345
  676PSPI   GL110133   2.689   9.914   5.890  0.4107  0.1991  0.3360
  676PSPI   GL210134   2.465  10.124   5.933 -0.1784  0.2295 -0.0481
  676PSPI   C1A10135   2.749   9.832   6.263 -0.0578 -0.1816 -0.1585
  676PSPI   C2A10136   2.704   9.983   6.700  0.1452  0.0608 -0.1627
  676PSPI   C3A10137   2.674  10.074   7.196  0.0319  0.0491  0.0489
  676PSPI   C4A10138   2.220  10.177   7.466  0.1460 -0.0053 -0.1843
  676PSPI   C1B10139   2.175  10.154   6.253  0.1113  0.3155 -0.0118
  676PSPI   C2B10140   2.173  10.232   6.610 -0.1284 -0.2679  0.2191
  676PSPI   C3B10141   2.211  10.338   6.959 -0.2890 -0.0738  0.1296
  676PSPI   C4B10142   2.464  10.578   7.225 -0.1174 -0.0420 -0.2696
  677PSPI    C110143  11.478  12.739   5.208 -0.0053  0.1892 -0.1231
  677PSPI    C210144  11.328  13.053   5.011 -0.2623  0.0111 -0.2168
  677PSPI    C310145  11.322  12.690   4.843  0.3058  0.0007 -0.2357
  677PSPI   PO410146  11.574  12.802   5.487 -0.0724 -0.0919  0.1754
  677PSPI   GL110147  11.593  13.019   5.763 -0.1848  0.3522 -0.1022
  677PSPI   GL210148  12.028  13.000   5.798 -0.0814  0.3726  0.2027
  677PSPI   C1A10149  11.649  13.045   6.204  0.1223 -0.0054  0.0608
  677PSPI   C2A10150  11.778  13.265   6.556  0.0630  0.0444  0.0232
  677PSPI   C3A10151  11.925  13.292   6.965  0.3806  0.1024 -0.0565
  677PSPI   C4A10152  12.243  13.265   7.392 -0.1571 -0.3181  0.0606
  677PSPI   C1B10153  12.099  12.741   6.168  0.1345 -0.3855  0.0902
  677PSPI   C2B10154  12.251  12.517   6.414  0.1958 -0.2183  0.0791
  677PSPI   C3B10155  12.453  12.459   6.749 -0.0145  0.0325  0.0067
  677PSPI   C4B10156  12.632  12.313   7.041  0.1767 -0.3692  0.2794
  678PSPI    C110157   9.788   8.399   4.878 -0.0465  0.2163 -0.1414
  678PSPI    C210158   9.519   8.214   4.647  0.1068  0.2085 -0.3158
  678PSPI    C310159   9.909   8.142   4.597  0.1350  0.0783  0.0599
  678PSPI   PO410160   9.574   8.398   5.145  0.2575  0.0908  0.0336
  678PSPI   GL110161   9.362   8.510   5.478  0.0061  0.0232  0.0774
  678PSPI   GL210162   9.049   8.388   5.537 -0.0632  0.1980 -0.0425
  678PSPI   C1A10163   9.301   8.639   5.923 -0.1456 -0.3504 -0.1748
  678PSPI   C2A10164   9.433   8.557   6.360  0.0402 -0.4152  0.4310
  678PSPI   C3A10165   9.449   8.426   6.780  0.0334  0.1585  0.1215
  678PSPI   C4A10166   9.552   8.651   7.229 -0.0492  0.5461  0.0632
  678PSPI   C1B10167   8.825   8.493   5.898  0.0835 -0.1963  0.0370
  678PSPI   C2B10168   8.777   8.436   6.283 -0.1331 -0.1284 -0.2058
  678PSPI   C3B10169   8.688   8.209   6.648 -0.3217 -0.1023  0.2057
  678PSPI   C4B10170   8.526   8.542   6.902  0.3753  0.1073 -0.0317
  679PSPI    C110171   5.272   8.126   5.081 -0.1809 -0.1659 -0.0978
  679PSPI    C210172   5.240   8.022   4.697  0.0624 -0.0736 -0.1453
  679PSPI    C310173   5.515   7.848   4.929 -0.0633 -0.1071 -0.0197
  679PSPI   PO410174   5.034   8.160   5.189  0.1823 -0.1339 -0.0962
  679PSPI   GL110175   4.778   8.238   5.573 -0.1490 -0.1819 -0.0538
  679PSPI   GL210176   4.847   8.598   5.801 -0.2810 -0.1596  0.0263
  679PSPI   C1A10177   4.792   8.125   6.087 -0.2720 -0.2135  0.1271
  679PSPI   C2A10178   4.493   7.986   6.276  0.2189  0.4476  0.0810
  679PSPI   C3A10179   4.228   8.030   6.593 -0.1332  0.0681  0.0763
  679PSPI   C4A10180   4.185   8.226   7.038  0.0242 -0.0394 -0.1861
  679PSPI   C1B10181   5.106   8.522   6.169 -0.0334 -0.0147  0.1377
  679PSPI   C2B10182   5.042   8.388   6.508  0.0142 -0.3086  0.1566
  679PSPI   C3B10183   5.180   8.168   6.804  0.0955  0.2137 -0.0311
  679PSPI   C4B10184   5.335   8.066   7.223  0.0282  0.0982  0.0207
  680PSPI    C110185   4.500   5.936   5.021  0.1123  0.1143  0.0346
  680PSPI    C210186   4.379   5.561   4.952 -0.0981  0.1499  0.2014
  680PSPI    C310187   4.406   5.822   4.649 -0.0511  0.0294  0.1011
  680PSPI   PO410188   4.768   5.910   5.268  0.2130  0.0920  0.0702
  680PSPI   GL110189   4.771   5.924   5.718 -0.1642  0.3146 -0.2071
  680PSPI   GL210190   4.895   5.642   5.775 -0.1339  0.0937 -0.1061
  680PSPI   C1A10191   5.091   6.011   6.067 -0.1080  0.0273 -0.1092
  680PSPI   C2A10192   5.156   5.630   6.283 -0.1259 -0.0314  0.0527
  680PSPI   C3A10193   4.945   5.481   6.696  0.1954  0.1699  0.1942
  680PSPI   C4A10194   4.946   5.256   7.085  0.2919  0.1448 -0.1316
  680PSPI   C1B10195   4.782   5.378   6.113  0.4526 -0.0338 -0.1916
  680PSPI   C2B10196   4.731   5.102   6.468  0.0277 -0.2333 -0.2225
  680PSPI   C3B10197   4.637   4.901   6.898 -0.0818  0.0365  0.0679
  680PSPI   C4B10198   4.762   4.841   7.399  0.1227 -0.0896 -0.4057
  681PSPI    C110199   7.790   0.710   5.244  0.2294 -0.0177  0.0003
  681PSPI    C210200   8.083   0.439   5.218  0.0420 -0.2196 -0.0400
  681PSPI    C310201   7.844   0.506   4.904 -0.0595 -0.1765  0.0458
  681PSPI   PO410202   7.768   0.693   5.544 -0.0828 -0.0313  0.1666
  681PSPI   GL110203   8.027   0.863   5.872 -0.1219 -0.2061 -0.0700
  681PSPI   GL210204   8.233   0.616   5.773 -0.0998  0.3280 -0.2307
  681PSPI   C1A10205   7.946   0.695   6.233  0.1873 -0.0688 -0.0444
  681PSPI   C2A10206   7.868   0.631   6.647  0.0315 -0.2218 -0.1823
  681PSPI   C3A10207   7.964   0.677   7.052  0.2738  0.2682  0.0267
  681PSPI   C4A10208   7.657   0.690   7.334  0.1192 -0.0160  0.1637
  681PSPI   C1B10209   8.444   0.589   6.239  0.1939  0.1304  0.2243
  681PSPI   C2B10210   8.359   0.701   6.679  0.3363  0.2547  0.0147
  681PSPI   C3B10211   8.470   0.930   7.062 -0.2605 -0.0089 -0.1557
  681PSPI   C4B10212   8.721   0.874   7.323 -0.0685  0.1120  0.0192
  682PSPI    C110213   9.947  12.265   5.263 -0.1296 -0.0317 -0.1461
  682PSPI    C210214   9.846  12.030   5.570 -0.0813  0.0428 -0.0729
  682PSPI    C310215  10.175  11.951   5.357 -0.0502  0.0595 -0.0312
  682PSPI   PO410216  10.001  12.507   5.290  0.0345 -0.2117 -0.1616
  682PSPI   GL110217   9.809  12.640   5.701  0.0156 -0.1919 -0.1658
  682PSPI   GL210218   9.564  12.446   5.602  0.0809  0.0058  0.3793
  682PSPI   C1A10219   9.945  12.635   6.176  0.0468 -0.0626  0.0977
  682PSPI   C2A10220  10.099  12.433   6.559  0.1902  0.1391  0.0321
  682PSPI   C3A10221  10.128  12.146   6.778  0.0904  0.0456 -0.0058
  682PSPI   C4A10222  10.187  11.974   7.146 -0.3046  0.0141 -0.0874
  682PSPI   C1B10223   9.716  12.196   6.057  0.1795  0.4556 -0.0621
  682PSPI   C2B10224   9.637  12.064   6.440  0.2392  0.2975 -0.2045
  682PSPI   C3B10225   9.677  11.912   6.824 -0.1421  0.1192 -0.0221
  682PSPI   C4B10226   9.721  11.690   7.238 -0.2843 -0.0999  0.0324
  683PSPI    C110227  17.787  12.284   5.227 -0.0620  0.0952  0.2299
  683PSPI    C210228  17.531  12.116   4.970 -0.0855  0.1969  0.1862
  683PSPI    C310229  17.900  12.213   4.850 -0.1088  0.2783  0.1805
  683PSPI   PO410230  17.640  12.306   5.424  0.0172  0.1413  0.0897
  683PSPI   GL110231  17.340  12.312   5.790  0.0596  0.0870 -0.0267
  683PSPI   GL210232  17.343  12.059   5.922  0.0325 -0.1411  0.1515
  683PSPI   C1A10233  17.136  12.627   6.106  0.0496  0.2010  0.2410
  683PSPI   C2A10234  16.977  12.579   6.480 -0.2998 -0.0385 -0.0951
  683PSPI   C3A10235  17.025  12.773   6.920  0.0294  0.0311 -0.0047
  683PSPI   C4A10236  17.415  13.036   6.965  0.2098  0.0808 -0.0643
  683PSPI   C1B10237  17.151  12.134   6.288  0.0592 -0.0233 -0.0532
  683PSPI   C2B10238  16.867  12.170   6.669  0.0325  0.3006 -0.3131
  683PSPI   C3B10239  17.025  12.293   7.047 -0.3560  0.0352 -0.0764
  683PSPI   C4B10240  16.829  12.598   7.347 -0.3128 -0.2264 -0.0460
  684PSPI    C110241  12.574   0.809   5.188  0.2780 -0.2151 -0.1282
  684PSPI    C210242  12.796   0.741   4.863  0.1012 -0.0321 -0.2904
  684PSPI    C310243  12.743   1.115   4.994  0.0713 -0.0944 -0.1214
  684PSPI   PO410244  12.650   0.735   5.531 -0.2968 -0.2885  0.2169
  684PSPI   GL110245  12.975   0.657   5.733 -0.0852  0.2118  0.0051
  684PSPI   GL210246  12.862   0.984   5.880  0.0814  0.1968 -0.2322
  684PSPI   C1A10247  13.135   0.578   6.190  0.1217 -0.0518  0.1573
  684PSPI   C2A10248  13.108   0.597   6.621 -0.3375 -0.2110 -0.1663
  684PSPI   C3A10249  13.050   0.512   7.028 -0.0727 -0.1447  0.1465
  684PSPI   C4A10250  12.853   0.394   7.356  0.0622 -0.0464  0.0315
  684PSPI   C1B10251  12.694   1.339   6.015 -0.1426  0.1338 -0.0246
  684PSPI   C2B10252  12.619   1.539   6.387 -0.0139  0.1591  0.2406
  684PSPI   C3B10253  12.548   1.627   6.707  0.0330  0.4705 -0.0040
  684PSPI   C4B10254  12.226   1.864   6.971  0.3918 -0.1167  0.1289
  685PSPI    C110255  15.533   7.872   5.162 -0.0807  0.2758  0.0581
  685PSPI    C210256  15.688   8.145   4.915  0.1250  0.0730 -0.0416
  685PSPI    C310257  15.304   8.037   4.879  0.1218  0.1322 -0.1938
  685PSPI   PO410258  15.639   7.932   5.478  0.0221 -0.3492  0.2057
  685PSPI   GL110259  15.778   7.995   5.848  0.0188 -0.1865 -0.1966
  685PSPI   GL210260  15.602   7.660   5.955  0.2270 -0.0857  0.2428
  685PSPI   C1A10261  15.854   8.195   6.311  0.2269 -0.1493 -0.0656
  685PSPI   C2A10262  15.932   8.455   6.591 -0.1269 -0.0096  0.0143
  685PSPI   C3A10263  15.995   8.712   6.941 -0.1555 -0.2316  0.5180
  685PSPI   C4A10264  15.701   8.760   7.211 -0.1236  0.1035  0.4748
  685PSPI   C1B10265  15.540   7.318   6.122  0.1449  0.0999 -0.1046
  685PSPI   C2B10266  15.202   7.069   6.303 -0.2475  0.0251  0.0112
  685PSPI   C3B10267  14.698   7.070   6.401 -0.0248  0.0992  0.0439
  685PSPI   C4B10268  14.191   7.188   6.424 -0.1286  0.3018 -0.0035
  686PSPI    C110269  16.590   4.971   5.609  0.1080 -0.0724  0.0089
  686PSPI    C210270  16.207   5.086   5.595  0.1477  0.0847  0.1792
  686PSPI    C310271  16.410   5.027   5.256 -0.0637 -0.1266  0.0868
  686PSPI   PO410272  16.650   5.111   5.866 -0.0520  0.0788 -0.0743
  686PSPI   GL110273  16.535   5.017   6.258 -0.2926 -0.1178 -0.0205
  686PSPI   GL210274  16.810   4.820   6.439 -0.3192 -0.1890  0.1159
  686PSPI   C1A10275  16.325   5.037   6.650 -0.1370 -0.1232 -0.1166
  686PSPI   C2A10276  16.211   4.924   7.081  0.1317  0.0512 -0.0634
  686PSPI   C3A10277  16.182   5.048   7.566 -0.2094 -0.0192  0.0126
  686PSPI   C4A10278  15.914   5.061   7.938 -0.4483 -0.2175  0.1173
  686PSPI   C1B10279  16.756   4.806   6.844 -0.0982 -0.1292  0.2920
  686PSPI   C2B10280  16.689   4.634   7.152 -0.1815 -0.0410  0.1448
  686PSPI   C3B10281  16.392   4.596   7.468 -0.0969  0.4812  0.0635
  686PSPI   C4B10282  15.958   4.604   7.466 -0.0771 -0.3826 -0.0363
  687PSPI    C110283  14.139   3.906   5.449 -0.0414  0.1051 -0.0730
  687PSPI    C210284  14.123   3.707   5.102 -0.0735  0.0024 -0.0130
  687PSPI    C310285  14.298   4.066   5.118  0.1097 -0.0820 -0.0928
  687PSPI   PO410286  14.180   3.716   5.642  0.0721  0.2052 -0.1256
  687PSPI   GL110287  14.137   3.888   6.055 -0.0460 -0.3022  0.1932
  687PSPI   GL210288  14.039   4.311   6.024 -0.1215  0.0235 -0.2522
  687PSPI   C1A10289  14.002   4.086   6.505 -0.2065 -0.0966 -0.2065
  687PSPI   C2A10290  14.107   4.450   6.882  0.0240 -0.1261 -0.3734
  687PSPI   C3A10291  14.205   4.609   7.242  0.0545 -0.0137 -0.3375
  687PSPI   C4A10292  14.442   4.942   7.352  0.2522  0.1471  0.0871
  687PSPI   C1B10293  13.600   4.193   6.129 -0.2891  0.1412 -0.0240
  687PSPI   C2B10294  13.302   4.407   6.226 -0.1903 -0.3348  0.2643
  687PSPI   C3B10295  13.360   4.657   6.543 -0.1267 -0.3504 -0.1939
  687PSPI   C4B10296  13.473   4.841   6.856  0.2110  0.2172 -0.2066
  688PSPI    C110297  15.240  10.720   5.334 -0.0452 -0.2172 -0.1212
  688PSPI    C210298  15.438  10.509   5.058  0.3720  0.1678 -0.1278
  688PSPI    C310299  15.287  10.867   4.965  0.1942  0.1396  0.0465
  688PSPI   PO410300  15.319  10.539   5.562  0.0739 -0.1734  0.0843
  688PSPI   GL110301  15.512  10.488   5.958  0.1232 -0.2585  0.3031
  688PSPI   GL210302  15.208  10.369   6.081 -0.1488  0.2680 -0.0008
  688PSPI   C1A10303  15.845  10.650   6.276  0.0143 -0.1852 -0.0755
  688PSPI   C2A10304  16.073  10.717   6.611  0.0808  0.0304  0.1727
  688PSPI   C3A10305  16.356  10.630   6.940 -0.3684  0.1770  0.1677
  688PSPI   C4A10306  16.707  10.538   6.998  0.1216 -0.2415 -0.0215
  688PSPI   C1B10307  14.981  10.420   6.356 -0.1400 -0.0477 -0.0154
  688PSPI   C2B10308  15.106  10.560   6.855 -0.1279  0.0415  0.4273
  688PSPI   C3B10309  15.441  10.406   7.142  0.0525  0.1062 -0.2373
  688PSPI   C4B10310  15.390  10.270   7.588 -0.0635  0.0979  0.0033
  689PSPI    C110311   0.637  12.726   5.462  0.0490  0.1756 -0.1626
  689PSPI    C210312   0.845  12.564   5.161  0.3243 -0.3373  0.2867
  689PSPI    C310313   1.019  12.831   5.402 -0.0135  0.3731 -0.2221
  689PSPI   PO410314   0.513  12.497   5.525  0.4914  0.0287  0.3005
  689PSPI   GL110315   0.475  12.237   5.834 -0.0795  0.0040 -0.0752
  689PSPI   GL210316   0.299  12.325   6.093  0.2690 -0.0768 -0.1769
  689PSPI   C1A10317   0.490  11.917   6.271  0.1997  0.2076 -0.4610
  689PSPI   C2A10318   0.319  11.538   6.382 -0.1039 -0.1080  0.2242
  689PSPI   C3A10319   0.275  11.245   6.733  0.0690  0.0343 -0.0726
  689PSPI   C4A10320   0.356  10.946   7.043 -0.1046 -0.1045  0.1067
  689PSPI   C1B10321   0.497  12.584   6.430 -0.0003  0.1460 -0.2447
  689PSPI   C2B10322   0.534  12.585   6.927  0.1320  0.1940  0.0448
  689PSPI   C3B10323   0.409  12.295   7.232 -0.1332  0.1745  0.0771
  689PSPI   C4B10324   0.550  12.034   7.471 -0.0907  0.1991  0.0856
  690PSPI    C110325  18.903  18.284   5.455  0.0793 -0.0600 -0.1268
  690PSPI    C210326  19.223  18.467   5.300  0.1664 -0.0789  0.0284
  690PSPI    C310327  19.106  18.112   5.157  0.2293 -0.0832 -0.0123
  690PSPI   PO410328  18.992  18.284   5.745 -0.0905 -0.0184  0.1257
  690PSPI   GL110329  18.951  18.046   6.049  0.1352  0.2506  0.1845
  690PSPI   GL210330  18.650  17.953   6.260  0.3072 -0.2207 -0.0217
  690PSPI   C1A10331  19.079  18.199   6.512  0.1468  0.0587 -0.1817
  690PSPI   C2A10332  19.128  18.370   6.947  0.1742 -0.3626 -0.0301
  690PSPI   C3A10333  19.160  18.395   7.376  0.0601  0.1227 -0.1477
  690PSPI   C4A10334  19.377  18.765   7.629 -0.1951  0.0601 -0.3254
  690PSPI   C1B10335  18.684  18.021   6.724  0.0669  0.0287 -0.1475
  690PSPI   C2B10336  18.840  18.012   7.199  0.1809  0.1365 -0.1282
  690PSPI   C3B10337  18.503  18.063   7.575 -0.1200 -0.1095  0.0939
  690PSPI   C4B10338  18.599  18.245   7.929 -0.0808 -0.0916 -0.0710
  691PSPI    C110339   9.712  16.342   5.442 -0.0910  0.1953 -0.0179
  691PSPI    C210340   9.838  16.624   5.189 -0.2577  0.4234  0.1489
  691PSPI    C310341   9.446  16.563   5.241 -0.2234  0.0707  0.0184
  691PSPI   PO410342   9.878  16.358   5.668  0.0354 -0.0527 -0.1245
  691PSPI   GL110343   9.827  16.649   6.059 -0.2154  0.0776 -0.0421
  691PSPI   GL210344   9.600  16.431   6.076 -0.0874 -0.0955 -0.0294
  691PSPI   C1A10345   9.850  16.733   6.444  0.0174  0.1183 -0.0787
  691PSPI   C2A10346   9.938  16.654   6.730 -0.0611 -0.0664  0.0248
  691PSPI   C3A10347   9.851  16.413   7.103  0.1593 -0.2629  0.2537
  691PSPI   C4A10348   9.952  16.242   7.198  0.1456 -0.0360  0.1419
  691PSPI   C1B10349   9.391  16.816   6.274 -0.1564 -0.0520 -0.2087
  691PSPI   C2B10350   9.063  16.973   6.113  0.3291 -0.4835  0.3446
  691PSPI   C3B10351   8.697  17.067   6.297  0.1305  0.0065 -0.2024
  691PSPI   C4B10352   8.383  17.312   6.480 -0.2421 -0.3456  0.3164
  692PSPI    C110353   8.645   8.017   4.996 -0.0612  0.1061 -0.0703
  692PSPI    C210354   8.297   7.871   5.129  0.0385  0.0345  0.1161
  692PSPI    C310355   8.309   8.081   4.789 -0.1536 -0.1380  0.0005
  692PSPI   PO410356   8.817   7.964   5.184  0.1473 -0.2858 -0.0397
  692PSPI   GL110357   8.673   8.060   5.644 -0.0164  0.0082 -0.2583
  692PSPI   GL210358   8.429   8.177   5.631  0.4880 -0.1315 -0.1327
  692PSPI   C1A10359   8.872   7.918   5.988  0.0298  0.0241  0.0494
  692PSPI   C2A10360   8.886   7.735   6.487  0.1376  0.0842  0.0108
  692PSPI   C3A10361   8.561   7.664   6.670 -0.2762  0.1805  0.0810
  692PSPI   C4A10362   8.380   7.603   7.031 -0.0497 -0.0041 -0.0430
  692PSPI   C1B10363   8.214   8.623   5.683 -0.0665  0.0199 -0.0531
  692PSPI   C2B10364   7.937   8.952   5.719  0.2906 -0.1022  0.3577
  692PSPI   C3B10365   7.833   9.363   5.847 -0.2304  0.2735  0.0309
  692PSPI   C4B10366   7.556   9.670   6.152 -0.0407 -0.2010  0.1288
  693PSPI    C110367   6.870  11.356   5.383 -0.0922 -0.0741  0.0746
  693PSPI    C210368   6.846  11.490   5.007  0.1326 -0.1038  0.0479
  693PSPI    C310369   6.927  11.744   5.305  0.1310 -0.1095  0.0531
  693PSPI   PO410370   6.664  11.245   5.439  0.1352 -0.2332  0.1882
  693PSPI   GL110371   6.557  11.104   5.810 -0.1537 -0.1244  0.0571
  693PSPI   GL210372   6.701  10.807   5.727 -0.2649  0.0509 -0.0787
  693PSPI   C1A10373   6.841  11.013   6.233 -0.0654 -0.0894 -0.1225
  693PSPI   C2A10374   7.258  11.075   6.329 -0.3733  0.3050 -0.0948
  693PSPI   C3A10375   7.613  11.282   6.139 -0.0267  0.1547 -0.0096
  693PSPI   C4A10376   8.031  11.053   5.961 -0.0900 -0.0695 -0.1768
  693PSPI   C1B10377   7.053  10.661   5.941 -0.1983 -0.1902 -0.2283
  693PSPI   C2B10378   7.176  10.565   6.323  0.0091  0.3185 -0.2075
  693PSPI   C3B10379   7.261  10.716   6.663  0.1303  0.0430  0.0070
  693PSPI   C4B10380   7.186  10.741   7.110 -0.0390 -0.2094 -0.2296
  694POPI    C110381  16.767  12.670   5.047 -0.1212 -0.0671  0.3213
  694POPI    C210382  16.573  12.445   4.779  0.0807  0.0055  0.1115
  694POPI    C310383  16.495  12.837   4.807  0.1172  0.0135  0.1031
  694POPI   PO410384  16.695  12.561   5.252  0.0659  0.4069  0.1068
  694POPI   GL110385  16.792  12.535   5.793 -0.0949 -0.0491 -0.0340
  694POPI   GL210386  16.475  12.369   5.656 -0.2579 -0.0374 -0.1452
  694POPI   C1A10387  16.535  12.464   6.286  0.2370 -0.0422  0.4015
  694POPI   D2A10388  16.442  12.070   6.386 -0.0592 -0.2746 -0.2055
  694POPI   C3A10389  16.144  11.939   6.595  0.1696  0.0866  0.1862
  694POPI   C4A10390  16.098  11.545   6.634  0.0457  0.1941 -0.2961
  694POPI   C1B10391  16.150  12.467   5.997  0.0482 -0.0272 -0.0018
  694POPI   C2B10392  16.047  12.392   6.444  0.0638  0.0413 -0.0979
  694POPI   C3B10393  16.146  12.379   6.762 -0.5413 -0.0784  0.2346
  694POPI   C4B10394  15.914  12.521   7.055  0.2721 -0.2477 -0.1727
  695POPI    C110395  10.745  16.499   5.124  0.0382  0.0461  0.2302
  695POPI    C210396  10.642  16.113   5.113  0.0942  0.0369 -0.0322
  695POPI    C310397  10.457  16.376   4.875  0.0880  0.1648  0.1125
  695POPI   PO410398  10.924  16.457   5.388 -0.0033 -0.1790  0.1311
  695POPI   GL110399  11.141  16.361   5.794 -0.0804 -0.1110  0.0221
  695POPI   GL210400  11.313  16.614   5.781  0.2051 -0.0326 -0.0439
  695POPI   C1A10401  11.312  16.270   6.170  0.3967  0.4832 -0.2137
  695POPI   D2A10402  11.565  16.044   6.431  0.0493  0.1099  0.2171
  695POPI   C3A10403  11.853  16.205   6.651  0.1607  0.0655 -0.0847
  695POPI   C4A10404  12.041  16.150   7.040  0.0538  0.0288 -0.0576
  695POPI   C1B10405  11.347  16.799   6.090  0.2679  0.0681 -0.1128
  695POPI   C2B10406  11.492  16.628   6.451 -0.0905 -0.0626 -0.2146
  695POPI   C3B10407  11.528  16.544   6.816 -0.2973  0.1144  0.2555
  695POPI   C4B10408  11.667  16.402   7.264 -0.3345  0.1469  0.2481
  696POPI    C110409   2.199   6.784   5.042  0.0948 -0.0104  0.1636
  696POPI    C210410   2.268   6.411   4.916  0.1039 -0.0449  0.2695
  696POPI    C310411   2.533   6.700   4.838  0.0778 -0.0518  0.1526
  696POPI   PO410412   2.258   6.715   5.318 -0.3592  0.3036 -0.0016
  696POPI   GL110413   2.393   6.830   5.753  0.1878 -0.1775 -0.2051
  696POPI   GL210414   2.108   7.040   5.968 -0.2173  0.0635  0.0542
  696POPI   C1A10415   2.626   6.895   6.005 -0.1770 -0.2210  0.0300
  696POPI   D2A10416   2.400   7.053   6.409  0.0184 -0.0283  0.0385
  696POPI   C3A10417   2.551   7.415   6.558 -0.2519 -0.1759  0.1516
  696POPI   C4A10418   2.408   7.602   6.940  0.1626 -0.5844  0.1752
  696POPI   C1B10419   1.904   7.072   6.353  0.2732  0.1178 -0.1119
  696POPI   C2B10420   1.681   7.054   6.792  0.1825  0.1073  0.4360
  696POPI   C3B10421   1.317   7.211   6.981  0.2590 -0.2037 -0.1336
  696POPI   C4B10422   0.960   6.924   7.175 -0.0081 -0.2052  0.1859
  697POPI    C110423   5.067   9.836   5.497 -0.2323  0.1995  0.0192
  697POPI    C210424   5.160   9.745   5.875 -0.1384  0.1888 -0.0060
  697POPI    C310425   4.809   9.629   5.722 -0.0751 -0.0180  0.0025
  697POPI   PO410426   5.134  10.117   5.419  0.2195 -0.2581  0.1450
  697POPI   GL110427   4.958  10.433   5.791 -0.2319 -0.3064  0.3482
  697POPI   GL210428   4.695  10.190   5.710  0.1064 -0.0726  0.2841
  697POPI   C1A10429   4.978  10.439   6.123 -0.1774 -0.0217 -0.0784
  697POPI   D2A10430   4.766  10.263   6.489  0.1896  0.3834 -0.1146
  697POPI   C3A10431   4.725  10.538   6.888 -0.0346  0.0498 -0.0466
  697POPI   C4A10432   4.339  10.546   7.234  0.0204 -0.3489 -0.0391
  697POPI   C1B10433   4.733   9.976   6.039  0.0259 -0.0505 -0.2380
  697POPI   C2B10434   4.604   9.745   6.398 -0.0882 -0.1021 -0.4377
  697POPI   C3B10435   4.772   9.455   6.598  0.1663  0.2282  0.0420
  697POPI   C4B10436   4.555   9.191   6.921 -0.0152  0.0814 -0.3231
  698POPI    C110437   8.697   2.678   5.187  0.1024  0.1225  0.1871
  698POPI    C210438   9.061   2.731   5.346  0.1951  0.0893 -0.0107
  698POPI    C310439   8.990   2.836   4.966  0.0624 -0.1205 -0.0457
  698POPI   PO410440   8.558   2.529   5.193  0.0301 -0.1828 -0.1346
  698POPI   GL110441   8.328   2.353   5.490 -0.2266 -0.3170  0.2793
  698POPI   GL210442   8.554   2.248   5.628  0.1248 -0.3263  0.0578
  698POPI   C1A10443   8.209   2.435   5.965  0.1474  0.2572 -0.2038
  698POPI   D2A10444   8.519   2.388   6.365 -0.1256 -0.0495  0.1200
  698POPI   C3A10445   8.728   2.066   6.534 -0.2346 -0.2668  0.5024
  698POPI   C4A10446   8.750   2.229   7.013 -0.0780 -0.0199 -0.0089
  698POPI   C1B10447   8.690   2.116   5.924 -0.0917  0.2259 -0.0162
  698POPI   C2B10448   9.062   2.059   6.156  0.3397  0.3617  0.1774
  698POPI   C3B10449   9.251   1.852   6.383 -0.0974  0.1046  0.0277
  698POPI   C4B10450   9.292   1.813   6.844 -0.2319 -0.0541  0.1035
  699POPI    C110451   9.930   4.754   5.092  0.1566  0.1506 -0.2141
  699POPI    C210452   9.933   5.031   5.381  0.3250  0.0288 -0.0972
  699POPI    C310453   9.616   4.997   5.139  0.1629  0.1010  0.1022
  699POPI   PO410454  10.046   4.538   5.260 -0.1375 -0.1668 -0.2138
  699POPI   GL110455   9.908   4.631   5.670  0.4386 -0.0506 -0.0731
  699POPI   GL210456   9.660   4.644   5.563 -0.2169  0.2342  0.2781
  699POPI   C1A10457   9.962   4.811   6.097 -0.1094 -0.1745  0.1728
  699POPI   D2A10458   9.831   5.199   6.237  0.0872  0.1116 -0.0650
  699POPI   C3A10459   9.923   5.347   6.620 -0.3031  0.0352 -0.0553
  699POPI   C4A10460  10.205   5.383   6.989  0.0628  0.1310  0.5712
  699POPI   C1B10461   9.451   4.679   5.926  0.0381  0.1927  0.2624
  699POPI   C2B10462   9.535   4.767   6.309 -0.1416 -0.4961  0.0620
  699POPI   C3B10463   9.683   4.919   6.746 -0.1214  0.2224 -0.1555
  699POPI   C4B10464   9.719   5.272   7.082  0.3065  0.0355  0.1978
  700POPI    C110465  11.797   6.682   5.187  0.1527 -0.0594  0.0465
  700POPI    C210466  11.525   6.966   5.259  0.0555 -0.1271 -0.0503
  700POPI    C310467  11.779   7.005   4.953  0.0549 -0.1354 -0.0519
  700POPI   PO410468  11.971   6.622   5.318 -0.0297  0.1324 -0.1545
  700POPI   GL110469  12.011   6.304   5.614 -0.1091 -0.0363 -0.2953
  700POPI   GL210470  11.887   6.074   5.630  0.0929 -0.2127  0.0312
  700POPI   C1A10471  12.059   6.502   6.082 -0.1730 -0.0808  0.1813
  700POPI   D2A10472  12.207   6.858   6.180  0.0497  0.0873  0.1898
  700POPI   C3A10473  12.154   6.897   6.634  0.1258 -0.3216  0.0765
  700POPI   C4A10474  12.301   6.813   7.007 -0.0810  0.5050 -0.0151
  700POPI   C1B10475  11.999   6.049   6.111  0.1736  0.1116 -0.0406
  700POPI   C2B10476  11.745   5.849   6.483  0.0652 -0.1369  0.1279
  700POPI   C3B10477  11.859   5.577   6.841 -0.0782 -0.0607  0.0565
  700POPI   C4B10478  11.855   5.490   7.227  0.1901 -0.3834 -0.2255
  701POPI    C110479   4.718   1.585   4.932  0.1829  0.0307 -0.0718
  701POPI    C210480   4.621   1.397   4.592 -0.0892 -0.0360  0.0398
  701POPI    C310481   4.564   1.792   4.627  0.1563  0.0114 -0.0714
  701POPI   PO410482   4.582   1.518   5.152 -0.0290 -0.1557 -0.1234
  701POPI   GL110483   4.601   1.590   5.614 -0.2304  0.0366  0.1777
  701POPI   GL210484   4.513   1.800   5.653 -0.0190 -0.1694  0.0401
  701POPI   C1A10485   4.388   1.656   6.081 -0.1026  0.0256  0.1525
  701POPI   D2A10486   4.498   1.799   6.568  0.1996 -0.1019 -0.3013
  701POPI   C3A10487   4.368   1.656   6.943  0.4226  0.1017 -0.1289
  701POPI   C4A10488   4.225   1.725   7.278 -0.3028 -0.0788  0.0903
  701POPI   C1B10489   4.764   2.023   5.992  0.0379  0.0717  0.0477
  701POPI   C2B10490   4.862   2.114   6.345 -0.3116  0.0182  0.2974
  701POPI   C3B10491   4.715   2.196   6.790  0.0487 -0.0162  0.0688
  701POPI   C4B10492   4.728   2.554   7.115  0.1512 -0.0164  0.0030
  702POPI    C110493  17.205   3.551   6.023 -0.0206 -0.0855 -0.0706
  702POPI    C210494  17.178   3.334   6.358 -0.0539  0.1074  0.0534
  702POPI    C310495  17.203   3.151   6.003 -0.1737 -0.0975  0.1486
  702POPI   PO410496  17.323   3.815   6.231  0.0963  0.4746  0.4244
  702POPI   GL110497  17.271   4.007   6.626 -0.1733  0.0931 -0.1314
  702POPI   GL210498  17.161   3.657   6.745 -0.2791  0.0924 -0.0804
  702POPI   C1A10499  17.323   4.028   7.156  0.1152 -0.3878 -0.4715
  702POPI   D2A10500  17.349   4.230   7.479 -0.1475 -0.0842 -0.0022
  702POPI   C3A10501  17.490   4.010   7.821  0.1864  0.0874  0.2007
  702POPI   C4A10502  17.896   3.900   8.015  0.0713  0.0975  0.3365
  702POPI   C1B10503  17.119   3.568   7.163 -0.0121  0.0771 -0.1863
  702POPI   C2B10504  17.209   3.334   7.505  0.0098  0.0932 -0.1970
  702POPI   C3B10505  17.337   2.978   7.678 -0.2583 -0.1345  0.0529
  702POPI   C4B10506  17.581   2.617   7.614  0.2766 -0.2389  0.0522
  703POPI    C110507  15.030  11.589   5.384  0.0163  0.1623 -0.1124
  703POPI    C210508  14.638  11.525   5.430  0.0726 -0.1331 -0.0197
  703POPI    C310509  14.777  11.685   5.090 -0.1258 -0.0391 -0.0578
  703POPI   PO410510  15.123  11.636   5.558 -0.0024  0.2791  0.0740
  703POPI   GL110511  15.143  11.848   5.962  0.2042 -0.1224 -0.0343
  703POPI   GL210512  14.825  11.684   5.990 -0.2531  0.0200 -0.0492
  703POPI   C1A10513  15.226  12.011   6.413  0.3473 -0.0632  0.1296
  703POPI   D2A10514  15.114  11.923   6.829 -0.2776  0.0541 -0.2616
  703POPI   C3A10515  15.193  11.499   6.995 -0.1856  0.1688  0.1847
  703POPI   C4A10516  15.359  11.334   7.317 -0.3951 -0.0708  0.1832
  703POPI   C1B10517  14.786  11.763   6.415 -0.0014 -0.2656  0.3004
  703POPI   C2B10518  14.487  11.854   6.785 -0.0897 -0.2319  0.1730
  703POPI   C3B10519  14.461  11.688   7.196  0.0209  0.3193  0.0585
  703POPI   C4B10520  14.589  11.374   7.499  0.1183 -0.0804  0.0152
  704POPI    C110521   4.184  12.832   5.403  0.1197 -0.1429 -0.2671
  704POPI    C210522   4.498  12.597   5.484  0.1218  0.0082  0.1927
  704POPI    C310523   4.555  12.962   5.329  0.1691  0.0128  0.2210
  704POPI   PO410524   4.017  12.794   5.609  0.0609 -0.0846  0.1279
  704POPI   GL110525   3.877  12.772   6.027 -0.1531  0.1451  0.1973
  704POPI   GL210526   4.232  12.828   6.146 -0.0674  0.0118  0.0368
  704POPI   C1A10527   3.858  12.728   6.417 -0.0432 -0.1996 -0.0468
  704POPI   D2A10528   3.869  12.518   6.788  0.0241 -0.0821 -0.2818
  704POPI   C3A10529   3.627  12.678   7.095  0.1689  0.0176 -0.1110
  704POPI   C4A10530   3.460  12.678   7.464  0.2750 -0.1615 -0.2401
  704POPI   C1B10531   4.424  12.810   6.402  0.1038  0.0784 -0.0805
  704POPI   C2B10532   4.330  12.715   6.807 -0.1613  0.1533  0.2094
  704POPI   C3B10533   4.105  12.377   7.177 -0.0053  0.2144  0.1076
  704POPI   C4B10534   3.928  12.558   7.563 -0.4616  0.0072  0.0852
  705POPI    C110535  15.015  15.864   5.289  0.0668  0.1075 -0.0071
  705POPI    C210536  15.025  15.965   4.902  0.2643 -0.0416 -0.0425
  705POPI    C310537  15.199  16.200   5.175  0.0913  0.0835 -0.0387
  705POPI   PO410538  14.774  15.754   5.380  0.1000 -0.0119 -0.0430
  705POPI   GL110539  14.571  15.625   5.680  0.0536 -0.0736  0.1827
  705POPI   GL210540  14.501  15.430   5.875 -0.0093 -0.1643 -0.0590
  705POPI   C1A10541  14.486  15.894   6.079 -0.0194 -0.2206  0.2720
  705POPI   D2A10542  14.454  15.962   6.475  0.2799  0.0081 -0.0522
  705POPI   C3A10543  14.509  15.790   6.917 -0.1396 -0.2676  0.0164
  705POPI   C4A10544  14.315  15.764   7.370  0.2016  0.0365  0.3403
  705POPI   C1B10545  14.726  15.461   6.243 -0.2760 -0.3743  0.1853
  705POPI   C2B10546  14.683  15.356   6.618  0.1795  0.2536 -0.0600
  705POPI   C3B10547  14.921  15.333   6.937 -0.0698 -0.1126 -0.2431
  705POPI   C4B10548  15.127  15.310   7.400  0.1579  0.0860  0.3247
  706POPI    C110549   5.672  11.258   5.192 -0.0080  0.0814  0.2133
  706POPI    C210550   5.878  11.569   5.336  0.2442  0.1271 -0.2302
  706POPI    C310551   5.917  11.463   4.952 -0.2760 -0.1008 -0.2292
  706POPI   PO410552   5.598  11.206   5.484 -0.0418  0.4659  0.2038
  706POPI   GL110553   5.513  10.919   5.870  0.0387 -0.0328 -0.0337
  706POPI   GL210554   5.448  10.605   5.957 -0.1860  0.0654 -0.2778
  706POPI   C1A10555   5.337  11.070   6.290  0.0967 -0.0228 -0.1353
  706POPI   D2A10556   5.466  10.937   6.758 -0.0278 -0.0745 -0.2088
  706POPI   C3A10557   5.335  11.156   7.132 -0.2349  0.1751  0.0215
  706POPI   C4A10558   5.298  11.457   7.503 -0.1466 -0.0139  0.0770
  706POPI   C1B10559   5.368  10.102   6.199  0.0009  0.1023 -0.1590
  706POPI   C2B10560   5.074   9.884   6.545 -0.1973  0.0992  0.0397
  706POPI   C3B10561   5.209  10.102   6.974 -0.1030 -0.0380 -0.0764
  706POPI   C4B10562   5.169  10.507   7.157  0.0008  0.0119 -0.0108
  707POPI    C110563  14.346  10.217   5.521  0.3754 -0.2114  0.1763
  707POPI    C210564  14.245   9.902   5.295 -0.0533  0.0751 -0.0458
  707POPI    C310565  14.335  10.252   5.122  0.1542  0.1507  0.2087
  707POPI   PO410566  14.416  10.083   5.744 -0.0906  0.1189  0.1965
  707POPI   GL110567  14.457  10.394   6.020  0.0598  0.2355  0.3986
  707POPI   GL210568  14.314  10.617   5.827 -0.0555  0.2424 -0.2224
  707POPI   C1A10569  14.516  10.369   6.416  0.0567 -0.5871 -0.1791
  707POPI   D2A10570  14.584  10.317   6.800 -0.0046  0.1609  0.2717
  707POPI   C3A10571  14.523  10.688   7.120 -0.1087  0.0660 -0.1965
  707POPI   C4A10572  14.340  11.163   7.152 -0.0430 -0.0020  0.2894
  707POPI   C1B10573  14.302  10.834   6.257 -0.1717 -0.3077  0.2280
  707POPI   C2B10574  14.314  11.054   6.526  0.2345  0.0911 -0.0732
  707POPI   C3B10575  14.490  11.350   6.689  0.0371  0.3653 -0.2178
  707POPI   C4B10576  14.931  11.303   6.579 -0.1150 -0.4513  0.1552
  708POPI    C110577   7.757  16.712   5.144 -0.0664  0.0814 -0.1470
  708POPI    C210578   7.444  16.499   5.015  0.0254 -0.0472 -0.1600
  708POPI    C310579   7.796  16.470   4.828  0.0513  0.0808 -0.1325
  708POPI   PO410580   7.728  16.772   5.402 -0.1586 -0.1567  0.0609
  708POPI   GL110581   7.881  16.929   5.776  0.1692 -0.2740 -0.1909
  708POPI   GL210582   7.926  16.574   6.010 -0.1078 -0.0392 -0.2211
  708POPI   C1A10583   7.966  17.126   6.233  0.0749 -0.1360 -0.2670
  708POPI   D2A10584   7.851  17.204   6.654 -0.1466  0.1834 -0.2012
  708POPI   C3A10585   7.876  16.947   6.929  0.1298  0.0291 -0.0112
  708POPI   C4A10586   8.080  16.521   7.094  0.0364  0.1615 -0.0283
  708POPI   C1B10587   7.855  16.668   6.397 -0.0235 -0.0545  0.0307
  708POPI   C2B10588   7.639  16.627   6.695  0.1994 -0.2484 -0.1583
  708POPI   C3B10589   7.546  16.284   6.976 -0.0331 -0.1138  0.1443
  708POPI   C4B10590   7.656  15.869   7.044  0.1110  0.3332 -0.0677
  709POPI    C110591  18.690   6.759   5.459 -0.0440  0.0816 -0.1146
  709POPI    C210592  18.578   7.108   5.300 -0.0808  0.0876 -0.0754
  709POPI    C310593  18.856   6.886   5.118 -0.0114  0.1672 -0.0669
  709POPI   PO410594  18.713   6.844   5.721 -0.1016  0.0481 -0.4464
  709POPI   GL110595  18.801   6.772   6.179 -0.1466 -0.2242 -0.0918
  709POPI   GL210596  18.889   6.588   6.289 -0.4545  0.1262 -0.1503
  709POPI   C1A10597  18.613   6.827   6.563 -0.1715 -0.1544  0.1190
  709POPI   D2A10598  18.761   6.860   6.957 -0.0687 -0.0274 -0.0648
  709POPI   C3A10599  18.888   6.993   7.337  0.1219  0.1222 -0.0348
  709POPI   C4A10600  19.048   7.179   7.653 -0.1224  0.1360  0.0045
  709POPI   C1B10601  19.153   6.805   6.627  0.0508  0.0373  0.1698
  709POPI   C2B10602  19.241   6.990   6.975  0.2427  0.1656 -0.0596
  709POPI   C3B10603  19.474   6.949   7.382  0.0686  0.0233 -0.1585
  709POPI   C4B10604  19.821   6.733   7.641 -0.0156  0.0630 -0.2490
  710POPI    C110605  17.160   2.598   5.746 -0.2509  0.1464  0.0234
  710POPI    C210606  17.238   2.893   5.488  0.1692 -0.2198 -0.2849
  710POPI    C310607  17.520   2.772   5.744 -0.0605 -0.2363 -0.0347
  710POPI   PO410608  17.004   2.647   5.880 -0.1270  0.1547  0.0459
  710POPI   GL110609  16.808   2.953   6.152 -0.1781 -0.1234  0.1240
  710POPI   GL210610  16.579   2.775   6.122 -0.0623 -0.1912  0.1669
  710POPI   C1A10611  16.886   3.046   6.617  0.0633 -0.2232 -0.1513
  710POPI   D2A10612  16.926   3.179   7.059  0.3942  0.2164 -0.2455
  710POPI   C3A10613  16.815   3.005   7.396  0.1406  0.0996 -0.1380
  710POPI   C4A10614  16.474   2.709   7.420 -0.0164 -0.2524 -0.0126
  710POPI   C1B10615  16.539   2.640   6.538  0.1273  0.2620  0.1484
  710POPI   C2B10616  16.607   2.678   6.968 -0.1523 -0.3232 -0.3265
  710POPI   C3B10617  16.702   2.339   7.180 -0.4457 -0.3012 -0.1955
  710POPI   C4B10618  16.641   2.296   7.593 -0.3356  0.3402 -0.2207
  711POPI    C110619   5.831  10.338   5.636 -0.0179 -0.1753 -0.0149
  711POPI    C210620   5.490  10.170   5.761 -0.1280  0.1270  0.1014
  711POPI    C310621   5.481  10.457   5.484  0.0403  0.0852  0.0510
  711POPI   PO410622   5.975  10.081   5.614 -0.1300 -0.1352 -0.1180
  711POPI   GL110623   5.931   9.718   5.745  0.3437 -0.2174 -0.1017
  711POPI   GL210624   5.683   9.700   5.879 -0.0675 -0.0811  0.0289
  711POPI   C1A10625   6.108   9.743   6.216 -0.1774  0.0691 -0.2794
  711POPI   D2A10626   6.251   9.597   6.600  0.1505  0.2395 -0.0446
  711POPI   C3A10627   5.926   9.632   6.924  0.0859  0.3477  0.1704
  711POPI   C4A10628   5.616   9.721   7.321 -0.1177 -0.3397 -0.0341
  711POPI   C1B10629   5.531   9.660   6.356  0.2326 -0.0769 -0.1223
  711POPI   C2B10630   5.581   9.986   6.730 -0.1488  0.2711 -0.0807
  711POPI   C3B10631   5.688  10.468   6.853  0.0124 -0.1042  0.0279
  711POPI   C4B10632   5.653  10.734   7.219  0.0102 -0.0044  0.2017
  712POPI    C110633  12.938  15.631   4.982 -0.2508  0.0394 -0.1544
  712POPI    C210634  13.013  16.006   5.100 -0.2046  0.0721 -0.2856
  712POPI    C310635  13.247  15.832   4.827  0.0730 -0.2262  0.1302
  712POPI   PO410636  12.942  15.517   5.264 -0.1683 -0.0748  0.3216
  712POPI   GL110637  12.892  15.660   5.614 -0.0419 -0.1696  0.1786
  712POPI   GL210638  12.705  15.898   5.698 -0.3064  0.1231 -0.1003
  712POPI   C1A10639  12.847  15.433   5.948 -0.2605  0.1601  0.3431
  712POPI   D2A10640  12.725  15.291   6.327 -0.2063  0.0017  0.0231
  712POPI   C3A10641  13.001  15.515   6.631  0.0059 -0.0210 -0.1443
  712POPI   C4A10642  13.289  15.522   7.020 -0.2116  0.1868  0.2109
  712POPI   C1B10643  12.484  15.777   6.147 -0.1482 -0.2273  0.1635
  712POPI   C2B10644  12.272  15.482   6.379 -0.3601  0.1560 -0.1622
  712POPI   C3B10645  12.284  15.028   6.412 -0.3268 -0.1288  0.0082
  712POPI   C4B10646  12.223  14.752   6.761 -0.1306  0.0200 -0.3152
  713POPI    C110647   8.324  14.751   5.227 -0.2190 -0.1638  0.1656
  713POPI    C210648   8.354  15.053   4.966 -0.1669 -0.1208  0.2211
  713POPI    C310649   8.536  14.704   4.892 -0.1002 -0.0879  0.2297
  713POPI   PO410650   8.183  14.844   5.432 -0.2324  0.0596 -0.3879
  713POPI   GL110651   8.174  14.754   5.817 -0.0126 -0.0401  0.2382
  713POPI   GL210652   8.026  15.128   5.871  0.3079  0.1096  0.0956
  713POPI   C1A10653   7.991  14.521   6.157  0.0901  0.0277  0.1820
  713POPI   D2A10654   8.049  14.544   6.579 -0.1060  0.1448  0.0347
  713POPI   C3A10655   8.059  14.295   6.834  0.1887  0.0137 -0.0834
  713POPI   C4A10656   8.153  14.292   7.305  0.3522  0.0899  0.2356
  713POPI   C1B10657   8.235  14.971   6.286 -0.4153  0.0736  0.0139
  713POPI   C2B10658   8.207  15.000   6.738  0.0409  0.1161  0.1099
  713POPI   C3B10659   8.244  14.800   7.137 -0.0198 -0.1779 -0.0659
  713POPI   C4B10660   8.201  14.637   7.643 -0.0891 -0.1726  0.0399
  714POPI    C110661  11.505   0.172   5.411  0.1436 -0.0597  0.0776
  714POPI    C210662  11.645   0.454   5.658 -0.2241  0.1339  0.0716
  714POPI    C310663  11.737   0.465   5.269  0.2540 -0.1012  0.1701
  714POPI   PO410664  11.625  -0.046   5.444 -0.1872  0.1282  0.2119
  714POPI   GL110665  11.824  -0.132   5.887  0.2693 -0.1390 -0.0359
  714POPI   GL210666  11.958  -0.375   6.006  0.0818 -0.0048 -0.0193
  714POPI   C1A10667  11.683   0.014   6.285 -0.0579  0.0023  0.0107
  714POPI   D2A10668  11.189  -0.062   6.368  0.0105 -0.2464 -0.1222
  714POPI   C3A10669  11.140  -0.257   6.741  0.2063  0.1418 -0.2071
  714POPI   C4A10670  11.072  -0.431   7.092 -0.4952  0.0008  0.0698
  714POPI   C1B10671  11.966  -0.386   6.431 -0.0006 -0.2195 -0.1362
  714POPI   C2B10672  11.794  -0.204   6.828 -0.0505  0.1628  0.0789
  714POPI   C3B10673  11.487  -0.211   7.114  0.0078  0.0464 -0.1347
  714POPI   C4B10674  11.436  -0.566   7.429 -0.0055 -0.3456 -0.3515
  715POPI    C110675   7.696   0.051   5.062  0.0646  0.1780 -0.0127
  715POPI    C210676   8.088  -0.027   5.084  0.0472  0.1559  0.2483
  715POPI    C310677   7.867  -0.194   4.796  0.2034  0.0580  0.1838
  715POPI   PO410678   7.601   0.256   5.313 -0.2262  0.0924  0.2064
  715POPI   GL110679   7.432   0.248   5.741 -0.3072 -0.0786  0.0994
  715POPI   GL210680   7.520   0.515   5.923 -0.0604  0.1080  0.1700
  715POPI   C1A10681   7.151  -0.068   5.854 -0.1652  0.4386 -0.0919
  715POPI   D2A10682   6.930  -0.243   6.138 -0.1482  0.0213 -0.2025
  715POPI   C3A10683   6.717  -0.152   6.420  0.1450 -0.0342 -0.4030
  715POPI   C4A10684   6.821  -0.273   6.791  0.1271 -0.3852  0.1320
  715POPI   C1B10685   7.507   0.404   6.373  0.0790  0.1856  0.0307
  715POPI   C2B10686   7.467   0.382   6.848 -0.2065 -0.4004 -0.0356
  715POPI   C3B10687   7.228   0.349   7.252 -0.2357 -0.2857 -0.0115
  715POPI   C4B10688   7.102  -0.011   7.479 -0.4089 -0.1374  0.5324
  716POPI    C110689   7.126  14.115   5.570 -0.1096 -0.2245  0.0677
  716POPI    C210690   6.801  14.348   5.582 -0.0477 -0.1419  0.1539
  716POPI    C310691   6.772  13.972   5.451 -0.2016 -0.1727  0.2735
  716POPI   PO410692   7.287  14.225   5.762  0.0565 -0.1358  0.1429
  716POPI   GL110693   7.281  14.255   6.147  0.2031  0.1635 -0.0457
  716POPI   GL210694   7.234  14.000   6.351 -0.3098  0.0656 -0.0712
  716POPI   C1A10695   7.449  14.497   6.451 -0.2496  0.2662  0.1879
  716POPI   D2A10696   7.664  14.621   6.827 -0.0474  0.0063  0.0455
  716POPI   C3A10697   7.782  15.051   6.984  0.2560  0.2353  0.1843
  716POPI   C4A10698   7.832  15.434   6.892  0.0662  0.2275 -0.1719
  716POPI   C1B10699   7.458  14.146   6.788 -0.3486  0.0472 -0.0633
  716POPI   C2B10700   7.602  14.197   7.232 -0.0189 -0.0979 -0.0135
  716POPI   C3B10701   7.744  14.631   7.366  0.1375 -0.0248  0.1961
  716POPI   C4B10702   7.839  15.024   7.496 -0.0022  0.1679  0.0404
  717POPI    C110703  14.235  16.195   5.169  0.0515  0.1504 -0.2766
  717POPI    C210704  13.883  16.007   5.137  0.1221 -0.0324 -0.0115
  717POPI    C310705  14.224  15.804   5.083  0.1927  0.0873 -0.0188
  717POPI   PO410706  14.073  16.420   5.342 -0.3567 -0.2373 -0.0060
  717POPI   GL110707  13.922  16.317   5.778 -0.2491  0.1204 -0.2223
  717POPI   GL210708  13.701  16.377   5.661 -0.1902 -0.0836  0.2120
  717POPI   C1A10709  14.219  16.330   6.160 -0.0686  0.1726 -0.2061
  717POPI   D2A10710  14.237  16.465   6.483  0.0150  0.2605 -0.1096
  717POPI   C3A10711  14.250  16.256   6.867 -0.0101 -0.1831 -0.3353
  717POPI   C4A10712  14.425  16.459   7.362  0.0872  0.0826 -0.1458
  717POPI   C1B10713  13.773  16.513   6.170  0.1986  0.1026 -0.1421
  717POPI   C2B10714  13.753  16.648   6.608 -0.0005  0.0001 -0.0348
  717POPI   C3B10715  13.655  16.962   6.937  0.2462 -0.1000 -0.3333
  717POPI   C4B10716  13.678  16.969   7.339 -0.2757  0.0740 -0.1192
  718POPI    C110717  18.385   9.689   5.567 -0.2445 -0.1881  0.1523
  718POPI    C210718  18.655   9.395   5.534 -0.0259  0.0250 -0.0013
  718POPI    C310719  18.274   9.330   5.428  0.0797 -0.1216 -0.3035
  718POPI   PO410720  18.426   9.807   5.745 -0.1955  0.0048 -0.0903
  718POPI   GL110721  18.389   9.754   6.108  0.1185 -0.2923  0.1983
  718POPI   GL210722  18.127   9.892   6.149  0.1418 -0.5409 -0.1840
  718POPI   C1A10723  18.647   9.468   6.343 -0.0055 -0.4393 -0.0079
  718POPI   D2A10724  18.642   9.429   6.807  0.0617 -0.2840  0.3956
  718POPI   C3A10725  18.964   9.176   6.913  0.0143 -0.2981 -0.5000
  718POPI   C4A10726  19.395   9.191   7.011 -0.1327 -0.0575  0.2308
  718POPI   C1B10727  18.311   9.943   6.565 -0.1147 -0.0590  0.3663
  718POPI   C2B10728  18.215   9.680   6.985 -0.0062  0.2179 -0.0764
  718POPI   C3B10729  18.344   9.534   7.327  0.2219  0.2098  0.0151
  718POPI   C4B10730  18.228   9.574   7.791  0.0241  0.2269 -0.0615
  719POPI    C110731  17.199   9.158   4.915  0.0338  0.0916  0.0688
  719POPI    C210732  17.556   9.337   4.944 -0.0153  0.2350 -0.1789
  719POPI    C310733  17.529   8.968   4.793  0.0660  0.0835  0.1680
  719POPI   PO410734  17.010   9.154   5.201  0.1423  0.1030  0.1506
  719POPI   GL110735  17.041   9.172   5.636 -0.0812  0.0940 -0.0534
  719POPI   GL210736  17.224   9.115   5.835 -0.0550 -0.0596  0.0667
  719POPI   C1A10737  16.794   9.262   5.933  0.0595 -0.1260  0.2352
  719POPI   D2A10738  16.370   9.134   6.175  0.0092  0.3182 -0.2065
  719POPI   C3A10739  16.246   9.333   6.532  0.0925  0.1697 -0.0360
  719POPI   C4A10740  16.154   9.175   6.942 -0.0328 -0.1553 -0.2220
  719POPI   C1B10741  17.330   9.010   6.269  0.1389 -0.0341  0.0246
  719POPI   C2B10742  17.365   9.076   6.713  0.1401  0.1125  0.2226
  719POPI   C3B10743  17.696   9.427   6.783  0.2006 -0.0624 -0.0707
  719POPI   C4B10744  17.690   9.790   6.959  0.0839 -0.1075 -0.4129
  720POPI    C110745   9.744   7.353   5.172 -0.1035  0.0242  0.0606
  720POPI    C210746  10.113   7.493   5.108 -0.1584  0.1084 -0.0769
  720POPI    C310747   9.895   7.358   4.802 -0.1764 -0.1061  0.0287
  720POPI   PO410748   9.626   7.582   5.339 -0.1141 -0.0977  0.1086
  720POPI   GL110749   9.745   7.998   5.628 -0.0138 -0.1945  0.2026
  720POPI   GL210750   9.808   8.253   5.565 -0.0237 -0.3290  0.0938
  720POPI   C1A10751   9.782   7.787   5.968 -0.0404  0.0614 -0.2054
  720POPI   D2A10752   9.572   7.623   6.387 -0.3013 -0.3101  0.0500
  720POPI   C3A10753   9.282   7.557   6.733 -0.0004 -0.2637 -0.0552
  720POPI   C4A10754   8.889   7.676   7.054  0.1425 -0.2346  0.1959
  720POPI   C1B10755   9.752   8.333   6.025  0.0598 -0.2550  0.2594
  720POPI   C2B10756   9.713   8.144   6.490 -0.1225 -0.3106  0.2529
  720POPI   C3B10757   9.536   7.958   6.858 -0.1399 -0.0947  0.1312
  720POPI   C4B10758   9.487   8.159   7.229  0.4958 -0.0440  0.2414
  721POPI    C110759  18.106  10.502   5.336 -0.0666 -0.1499  0.2392
  721POPI    C210760  18.377  10.311   5.113 -0.1653 -0.1659  0.1317
  721POPI    C310761  18.495  10.574   5.390 -0.0426 -0.1211  0.0382
  721POPI   PO410762  17.917  10.384   5.446  0.0327  0.0767  0.0132
  721POPI   GL110763  17.867  10.449   5.913 -0.2559  0.4130 -0.1214
  721POPI   GL210764  18.128  10.693   5.952  0.2267  0.2814 -0.0802
  721POPI   C1A10765  17.838  10.306   6.317  0.2772  0.0781  0.4914
  721POPI   D2A10766  17.771  10.089   6.597  0.1487  0.0671 -0.2016
  721POPI   C3A10767  17.667   9.755   6.332 -0.1165 -0.0549  0.0526
  721POPI   C4A10768  17.719   9.290   6.327 -0.2155 -0.0839 -0.1233
  721POPI   C1B10769  18.182  10.926   6.277  0.2388 -0.0069 -0.0718
  721POPI   C2B10770  18.297  11.090   6.644 -0.0100  0.0119  0.2955
  721POPI   C3B10771  18.488  11.033   7.121 -0.1926  0.1703  0.0625
  721POPI   C4B10772  18.735  10.831   7.395 -0.0561  0.1733  0.0316
  722POPI    C110773   5.833  14.719   5.506 -0.0824 -0.0129 -0.2807
  722POPI    C210774   5.534  14.953   5.382 -0.0642  0.1125 -0.0912
  722POPI    C310775   5.901  15.003   5.232 -0.0740  0.1623 -0.0991
  722POPI   PO410776   5.796  14.780   5.837  0.2101 -0.0976  0.1464
  722POPI   GL110777   5.638  14.674   6.215 -0.0704 -0.0412  0.0683
  722POPI   GL210778   5.400  14.710   6.253  0.3031 -0.0366 -0.0940
  722POPI   C1A10779   5.950  14.596   6.595  0.2423 -0.0769  0.1251
  722POPI   D2A10780   6.083  14.446   6.964  0.4467 -0.1952 -0.1078
  722POPI   C3A10781   5.907  14.473   7.314  0.2330  0.0431 -0.0146
  722POPI   C4A10782   5.908  14.563   7.769 -0.0031 -0.1433  0.2818
  722POPI   C1B10783   5.119  15.034   6.331  0.0533  0.1127 -0.3968
  722POPI   C2B10784   4.872  15.099   6.608  0.1833  0.2334  0.1303
  722POPI   C3B10785   4.906  15.102   7.150 -0.2604 -0.0900 -0.1048
  722POPI   C4B10786   4.773  15.360   7.453  0.0552 -0.0717  0.1449
  723POPI    C110787   6.365   1.681   4.930 -0.0848  0.1305  0.1415
  723POPI    C210788   6.179   2.031   4.987 -0.2448  0.1120 -0.2420
  723POPI    C310789   6.163   1.851   4.630  0.2446 -0.0496 -0.1899
  723POPI   PO410790   6.445   1.523   5.184 -0.0168 -0.0676  0.0934
  723POPI   GL110791   6.490   1.438   5.656 -0.1053  0.2451  0.1013
  723POPI   GL210792   6.583   1.741   5.751  0.1452  0.0925  0.1702
  723POPI   C1A10793   6.490   1.224   6.075  0.3399  0.2619 -0.0251
  723POPI   D2A10794   6.437   1.056   6.512 -0.2693  0.3675  0.1131
  723POPI   C3A10795   6.351   1.245   6.905  0.0089 -0.1198 -0.0559
  723POPI   C4A10796   6.155   1.328   7.156 -0.2234 -0.3867  0.2036
  723POPI   C1B10797   6.440   1.804   6.099  0.3299  0.1236  0.3197
  723POPI   C2B10798   6.645   1.699   6.421 -0.0795  0.0298 -0.0059
  723POPI   C3B10799   6.723   1.689   6.840 -0.0308  0.0430  0.0121
  723POPI   C4B10800   6.890   1.964   7.134  0.2191  0.3236  0.0898
  724POPI    C110801  12.275  17.249   5.200  0.1477 -0.2366 -0.2317
  724POPI    C210802  11.895  17.282   5.078  0.1196 -0.1716 -0.1275
  724POPI    C310803  12.053  16.920   5.144 -0.1140 -0.1848  0.4153
  724POPI   PO410804  12.329  17.423   5.394 -0.2111  0.0121  0.2939
  724POPI   GL110805  12.762  17.378   5.651  0.2780  0.1747  0.4864
  724POPI   GL210806  12.534  17.697   5.825 -0.0320  0.2516  0.1559
  724POPI   C1A10807  12.814  17.378   6.092  0.1269  0.1537  0.0458
  724POPI   D2A10808  12.606  17.233   6.345  0.3378  0.3222 -0.0481
  724POPI   C3A10809  12.705  17.089   6.707 -0.0037  0.0273 -0.1298
  724POPI   C4A10810  12.715  16.760   6.947  0.1424  0.0190  0.0078
  724POPI   C1B10811  12.330  17.406   6.011 -0.1505  0.0459  0.0145
  724POPI   C2B10812  12.142  17.389   6.381  0.0140  0.2737 -0.3780
  724POPI   C3B10813  12.238  17.121   6.745  0.0049  0.1790 -0.3276
  724POPI   C4B10814  12.351  17.067   7.181  0.1572 -0.1675  0.0185
  725POPI    C110815   7.904  16.293   5.294  0.0639  0.1457  0.0240
  725POPI    C210816   8.219  16.449   5.103  0.0866 -0.0298 -0.0841
  725POPI    C310817   8.106  16.072   5.028 -0.1420  0.0279 -0.0372
  725POPI   PO410818   7.933  16.305   5.525  0.1527  0.0462 -0.1309
  725POPI   GL110819   8.024  16.059   5.873 -0.2302 -0.3423 -0.1882
  725POPI   GL210820   8.198  15.809   5.820 -0.0742  0.0684  0.0790
  725POPI   C1A10821   8.199  16.172   6.315 -0.1319  0.0916 -0.2816
  725POPI   D2A10822   8.273  16.392   6.697 -0.1816 -0.1391  0.1806
  725POPI   C3A10823   8.271  16.840   6.626 -0.1810  0.3385 -0.0037
  725POPI   C4A10824   8.615  17.137   6.935 -0.3583 -0.4561 -0.1047
  725POPI   C1B10825   7.993  15.597   6.047 -0.1443 -0.1077 -0.2204
  725POPI   C2B10826   7.881  15.346   6.376 -0.1419  0.1542  0.2330
  725POPI   C3B10827   7.696  14.953   6.437  0.2425 -0.2991 -0.1503
  725POPI   C4B10828   7.360  14.987   6.650  0.1766  0.1048 -0.4189
  726POPI    C110829  18.156   0.205   5.662  0.0851 -0.0205  0.1587
  726POPI    C210830  18.327   0.035   5.982  0.2196 -0.2079 -0.0107
  726POPI    C310831  18.414  -0.096   5.614  0.3939  0.2849 -0.1528
  726POPI   PO410832  18.147   0.542   5.738 -0.1517 -0.0209  0.3578
  726POPI   GL110833  17.881   0.629   5.996 -0.0334  0.0928  0.1675
  726POPI   GL210834  17.610   0.594   6.225  0.2039 -0.2785 -0.1482
  726POPI   C1A10835  18.129   0.495   6.359 -0.3241 -0.1097 -0.0824
  726POPI   D2A10836  18.256   0.420   6.807 -0.0274 -0.2650  0.1923
  726POPI   C3A10837  18.129   0.641   7.231 -0.0149  0.0694  0.2951
  726POPI   C4A10838  17.850   0.628   7.562 -0.2489 -0.2430  0.0284
  726POPI   C1B10839  17.815   0.642   6.712  0.0116 -0.3418 -0.0222
  726POPI   C2B10840  17.737   0.668   6.947 -0.1978 -0.0731 -0.0171
  726POPI   C3B10841  17.713   0.970   7.194 -0.1439  0.4625 -0.1208
  726POPI   C4B10842  17.391   1.069   7.265 -0.3452  0.0744 -0.1347
  727POPI    C110843   5.851  18.107   5.310  0.0145 -0.0864  0.2149
  727POPI    C210844   6.035  18.063   4.957 -0.0409  0.2068  0.1469
  727POPI    C310845   5.928  17.741   5.168  0.3023  0.0310  0.0589
  727POPI   PO410846   5.722  18.352   5.394  0.0665 -0.0657  0.1407
  727POPI   GL110847   5.515  18.561   5.716 -0.0036 -0.0579  0.0407
  727POPI   GL210848   5.434  18.863   5.653 -0.1530 -0.1222 -0.0340
  727POPI   C1A10849   5.656  18.346   6.080  0.2032  0.1497 -0.1243
  727POPI   D2A10850   5.667  18.239   6.546  0.0388  0.1810 -0.3302
  727POPI   C3A10851   5.645  17.846   6.790  0.1186 -0.1181 -0.1401
  727POPI   C4A10852   5.787  17.715   7.170  0.2307  0.0830 -0.0447
  727POPI   C1B10853   5.193  18.756   6.057 -0.4751 -0.3094 -0.2900
  727POPI   C2B10854   5.264  18.466   6.490  0.0295  0.1455  0.0951
  727POPI   C3B10855   5.321  18.544   6.890  0.0080 -0.0349 -0.0212
  727POPI   C4B10856   5.349  18.626   7.293 -0.1250 -0.3011  0.2843
  728POPI    C110857   0.268  15.952   5.906 -0.0129  0.1163  0.1316
  728POPI    C210858   0.262  15.651   6.169  0.0533 -0.0319 -0.0339
  728POPI    C310859   0.082  15.610   5.814  0.2101  0.0603 -0.1249
  728POPI   PO410860   0.279  16.225   6.083  0.1241  0.0075 -0.0046
  728POPI   GL110861   0.354  16.409   6.485 -0.1279  0.2079  0.0857
  728POPI   GL210862   0.262  16.653   6.327 -0.0676 -0.1496 -0.1362
  728POPI   C1A10863   0.424  16.012   6.686 -0.1204 -0.1782  0.2273
  728POPI   D2A10864   0.521  15.741   7.032 -0.0660  0.3234 -0.2626
  728POPI   C3A10865   0.417  15.958   7.411 -0.0518 -0.1286  0.2434
  728POPI   C4A10866   0.429  15.860   7.773  0.0810 -0.2495 -0.2325
  728POPI   C1B10867   0.246  16.924   6.663  0.0406  0.0688  0.1924
  728POPI   C2B10868   0.466  16.835   7.066 -0.1936 -0.1314  0.2062
  728POPI   C3B10869   0.631  16.902   7.380 -0.0345  0.0783 -0.0129
  728POPI   C4B10870   0.923  17.024   7.590  0.0783 -0.0178 -0.3689
  729POPI    C110871   0.191   5.214   5.441  0.3484 -0.4479  0.2717
  729POPI    C210872   0.518   5.409   5.319  0.0371 -0.0869 -0.0149
  729POPI    C310873   0.294   5.211   5.054 -0.0238 -0.2630  0.1658
  729POPI   PO410874   0.230   5.112   5.660  0.0346  0.2714 -0.0795
  729POPI   GL110875   0.441   4.964   6.032  0.2538  0.3004 -0.0979
  729POPI   GL210876   0.607   4.731   6.062  0.2461 -0.4546 -0.1185
  729POPI   C1A10877   0.698   5.170   6.297  0.2828  0.0092  0.1865
  729POPI   D2A10878   0.988   5.514   6.406  0.1925 -0.1825  0.1709
  729POPI   C3A10879   0.961   5.568   6.848 -0.2407 -0.3203  0.2770
  729POPI   C4A10880   0.865   5.977   7.168 -0.0826 -0.0411  0.0445
  729POPI   C1B10881   0.700   4.659   6.478  0.1703 -0.1407  0.4620
  729POPI   C2B10882   0.496   4.684   6.864  0.2059 -0.1584 -0.2430
  729POPI   C3B10883   0.552   4.649   7.329 -0.1845  0.2054 -0.0988
  729POPI   C4B10884   0.589   4.371   7.647 -0.0984  0.0592  0.0220
  730POPI    C110885  17.050   2.149   5.520 -0.0697 -0.2820 -0.1079
  730POPI    C210886  16.702   2.012   5.377 -0.1853 -0.0252 -0.0801
  730POPI    C310887  16.974   2.165   5.127 -0.2336  0.0846 -0.0660
  730POPI   PO410888  17.027   2.081   5.783  0.1080 -0.1188 -0.1362
  730POPI   GL110889  16.787   2.280   6.262 -0.1583  0.0303 -0.0117
  730POPI   GL210890  16.663   2.035   6.155 -0.2361  0.2729 -0.1447
  730POPI   C1A10891  16.851   2.249   6.711 -0.0073 -0.3754 -0.2796
  730POPI   D2A10892  16.988   1.926   6.938 -0.2394 -0.2153 -0.2390
  730POPI   C3A10893  17.002   1.973   7.366 -0.2597 -0.3327  0.1516
  730POPI   C4A10894  16.954   1.722   7.722 -0.2430  0.0399  0.2555
  730POPI   C1B10895  16.678   1.698   6.399  0.0562  0.0747 -0.1358
  730POPI   C2B10896  16.671   1.604   6.781  0.1875 -0.1155 -0.1063
  730POPI   C3B10897  16.690   1.428   7.220  0.0727  0.3524 -0.0583
  730POPI   C4B10898  16.882   1.155   7.577 -0.1661  0.0034  0.3014
  731POPI    C110899   5.076  11.495   5.452 -0.1153 -0.1291  0.0202
  731POPI    C210900   5.352  11.645   5.205 -0.1684 -0.0247  0.0239
  731POPI    C310901   5.176  11.296   5.120 -0.1482 -0.0149 -0.0587
  731POPI   PO410902   5.061  11.777   5.620  0.0440 -0.3264  0.2277
  731POPI   GL110903   5.159  11.844   6.034  0.0552 -0.2755  0.1130
  731POPI   GL210904   5.067  12.220   6.136  0.1878  0.0275  0.3049
  731POPI   C1A10905   5.147  11.587   6.316  0.4619  0.0489 -0.0838
  731POPI   D2A10906   5.136  11.369   6.733 -0.2215  0.2643 -0.1211
  731POPI   C3A10907   4.806  11.179   6.868  0.2602 -0.3036  0.0887
  731POPI   C4A10908   4.584  10.953   6.668  0.1343 -0.1324 -0.2299
  731POPI   C1B10909   4.883  12.393   6.412 -0.2075  0.3409 -0.3084
  731POPI   C2B10910   4.808  12.664   6.703 -0.3318  0.4720 -0.2416
  731POPI   C3B10911   5.026  12.721   7.028  0.1221  0.0025 -0.1965
  731POPI   C4B10912   5.115  12.488   7.380 -0.1715 -0.1440 -0.1149
  732POPI    C110913   5.465   1.566   5.102  0.0121  0.0836  0.1268
  732POPI    C210914   5.856   1.614   5.030  0.0272 -0.0578  0.1109
  732POPI    C310915   5.630   1.402   4.777 -0.1044  0.2031  0.0064
  732POPI   PO410916   5.480   1.599   5.408  0.1587  0.0525  0.0022
  732POPI   GL110917   5.572   1.775   5.750  0.0150  0.4252  0.1849
  732POPI   GL210918   5.275   2.070   5.637 -0.1093  0.2721  0.0483
  732POPI   C1A10919   5.274   1.716   6.101  0.0740  0.1276  0.1283
  732POPI   D2A10920   4.939   1.593   6.226 -0.2768  0.1825  0.2885
  732POPI   C3A10921   4.952   1.673   6.674 -0.1534  0.1435  0.0212
  732POPI   C4A10922   4.924   1.842   7.054 -0.1440  0.0839 -0.0388
  732POPI   C1B10923   5.311   2.231   6.089  0.2272 -0.0894  0.0378
  732POPI   C2B10924   5.297   2.722   6.220 -0.3385 -0.2473  0.0691
  732POPI   C3B10925   5.029   3.026   6.100  0.1694  0.0770 -0.0470
  732POPI   C4B10926   4.962   3.407   6.238  0.0684 -0.0034 -0.0437
  733POPI    C110927  15.785  15.587   5.243  0.0488 -0.2780  0.0670
  733POPI    C210928  15.845  15.789   4.903 -0.1204 -0.0175  0.1894
  733POPI    C310929  15.475  15.752   5.052 -0.0815 -0.3539  0.2104
  733POPI   PO410930  16.014  15.554   5.377 -0.2791 -0.2156  0.1207
  733POPI   GL110931  16.050  15.325   5.669 -0.1527 -0.3387  0.1758
  733POPI   GL210932  15.856  15.482   5.856 -0.1123  0.1736 -0.0177
  733POPI   C1A10933  16.252  15.090   6.033 -0.2673  0.1647 -0.2809
  733POPI   D2A10934  16.545  14.821   6.125  0.0653  0.4894  0.0583
  733POPI   C3A10935  16.443  14.690   6.541 -0.1256  0.1361 -0.1061
  733POPI   C4A10936  16.430  14.361   6.776  0.0171 -0.1830 -0.0269
  733POPI   C1B10937  15.860  15.402   6.226 -0.0563 -0.1553 -0.0465
  733POPI   C2B10938  15.802  15.317   6.619 -0.0318  0.0914 -0.0705
  733POPI   C3B10939  15.961  15.255   7.153  0.2853  0.1610  0.0533
  733POPI   C4B10940  16.325  15.047   7.416 -0.4843 -0.1092  0.1490
  734POPI    C110941  17.850   3.701   5.406 -0.0445  0.0647 -0.3464
  734POPI    C210942  18.104   3.454   5.221  0.1035 -0.1868  0.1710
  734POPI    C310943  17.710   3.416   5.163  0.1529 -0.1390 -0.2250
  734POPI   PO410944  17.846   3.633   5.751 -0.2234 -0.1120 -0.0366
  734POPI   GL110945  17.768   3.578   6.237  0.0188  0.3503 -0.0974
  734POPI   GL210946  17.727   3.219   6.077  0.0601  0.3157  0.2274
  734POPI   C1A10947  17.831   3.504   6.668 -0.0671  0.2135 -0.0111
  734POPI   D2A10948  17.627   3.631   7.015  0.0458 -0.0993  0.1516
  734POPI   C3A10949  17.738   3.791   7.383 -0.0075  0.0544 -0.0108
  734POPI   C4A10950  17.658   3.499   7.701 -0.2167  0.0862 -0.1037
  734POPI   C1B10951  17.614   3.027   6.333  0.2468 -0.0205 -0.0618
  734POPI   C2B10952  17.473   3.140   6.646 -0.0729  0.3008 -0.1919
  734POPI   C3B10953  17.457   3.189   7.058  0.2997 -0.4005 -0.3473
  734POPI   C4B10954  17.750   3.079   7.437  0.1549  0.2618  0.1760
  735POPI    C110955   8.483  12.629   5.015 -0.0049  0.1668 -0.0080
  735POPI    C210956   8.634  12.984   4.908 -0.0173  0.1100 -0.2192
  735POPI    C310957   8.256  12.892   4.816 -0.1674  0.2264  0.2514
  735POPI   PO410958   8.593  12.594   5.277 -0.1866  0.0148  0.1060
  735POPI   GL110959   8.654  12.694   5.754 -0.3781  0.0113  0.0675
  735POPI   GL210960   8.488  12.632   5.905  0.1901  0.0504  0.0057
  735POPI   C1A10961   8.839  12.852   6.167 -0.1022 -0.5747 -0.3599
  735POPI   D2A10962   8.958  12.897   6.636 -0.1553 -0.0668 -0.0423
  735POPI   C3A10963   9.015  12.522   6.867 -0.2971 -0.2041  0.1039
  735POPI   C4A10964   9.368  12.535   7.097 -0.3412 -0.2655 -0.0405
  735POPI   C1B10965   8.481  12.546   6.315 -0.1060  0.0618 -0.0248
  735POPI   C2B10966   8.618  12.406   6.544  0.3313 -0.0949 -0.1265
  735POPI   C3B10967   8.725  12.147   6.820  0.0139 -0.0042  0.0190
  735POPI   C4B10968   8.876  11.735   6.821 -0.0386 -0.0832 -0.1001
  736POPI    C110969   9.283   7.393   4.932 -0.0520  0.1227 -0.0346
  736POPI    C210970   9.014   7.336   4.642  0.0620 -0.1931 -0.0824
  736POPI    C310971   9.404   7.295   4.564  0.1055 -0.0739  0.0675
  736POPI   PO410972   9.011   7.485   5.222  0.2259  0.0375 -0.0026
  736POPI   GL110973   9.206   7.614   5.593  0.0451 -0.0504 -0.1664
  736POPI   GL210974   9.318   7.819   5.761  0.1603 -0.0930  0.1507
  736POPI   C1A10975   9.238   7.465   6.041  0.0576  0.0233 -0.2210
  736POPI   D2A10976   9.133   6.986   6.038  0.0937  0.0119  0.2850
  736POPI   C3A10977   8.675   6.794   5.896 -0.2232 -0.0119 -0.2699
  736POPI   C4A10978   8.417   6.519   5.895  0.0703 -0.3040 -0.1699
  736POPI   C1B10979   9.295   8.128   6.084 -0.2833 -0.0749 -0.0722
  736POPI   C2B10980   9.187   8.144   6.471  0.0519 -0.0454  0.1744
  736POPI   C3B10981   9.067   8.167   6.967  0.0638  0.1618  0.0097
  736POPI   C4B10982   8.876   8.185   7.372  0.1158 -0.0204 -0.1342
  737POPI    C110983  15.846  14.518   5.070  0.1564  0.0103  0.1330
  737POPI    C210984  15.910  14.801   4.795  0.1761 -0.0075  0.1194
  737POPI    C310985  16.126  14.465   4.790 -0.1372 -0.2124 -0.1264
  737POPI   PO410986  15.862  14.555   5.312 -0.2039 -0.2750  0.2228
  737POPI   GL110987  15.826  14.540   5.716 -0.4229 -0.3226  0.4633
  737POPI   GL210988  15.861  14.881   5.669 -0.0270  0.1153 -0.2631
  737POPI   C1A10989  16.014  14.613   6.113  0.2474  0.1605  0.0897
  737POPI   D2A10990  15.972  14.853   6.392 -0.2187 -0.4110 -0.0658
  737POPI   C3A10991  15.855  14.820   6.837  0.1616 -0.1300  0.4885
  737POPI   C4A10992  15.987  14.653   7.260 -0.1416  0.0581  0.0241
  737POPI   C1B10993  15.709  15.015   5.999  0.0725  0.1340 -0.2073
  737POPI   C2B10994  15.484  14.998   6.360  0.2163  0.4520 -0.1321
  737POPI   C3B10995  15.409  15.066   6.796 -0.0895 -0.2665  0.1210
  737POPI   C4B10996  15.467  15.019   7.151  0.0927 -0.0317  0.0133
  738POPI    C110997  10.701  12.537   5.605 -0.0320 -0.1336  0.0796
  738POPI    C210998  10.332  12.671   5.683 -0.0026 -0.0196  0.0240
  738POPI    C310999  10.462  12.651   5.305  0.0148 -0.1482  0.0366
  738POPI   PO411000  10.776  12.353   5.781 -0.0218 -0.0005  0.2538
  738POPI   GL111001  10.629  12.078   6.108  0.1130  0.3518 -0.0350
  738POPI   GL211002  10.521  12.356   6.211  0.0297 -0.1826  0.0543
  738POPI   C1A11003  10.591  12.075   6.590  0.3435  0.0423 -0.1402
  738POPI   D2A11004  10.547  12.357   6.984  0.2551 -0.0867  0.0677
  738POPI   C3A11005  10.349  12.592   6.975 -0.1909  0.1814  0.4321
  738POPI   C4A11006  10.212  13.079   7.150  0.1029  0.0434 -0.1389
  738POPI   C1B11007  10.755  12.614   6.493 -0.2678  0.1204  0.0464
  738POPI   C2B11008  11.010  12.535   6.848 -0.1588  0.1956  0.0136
  738POPI   C3B11009  11.222  12.452   7.131  0.1124 -0.2437 -0.0770
  738POPI   C4B11010  11.374  12.122   7.309 -0.2853 -0.0952  0.2668
  739POPI    C111011   4.759   0.496   5.185  0.0401 -0.0980 -0.1153
  739POPI    C211012   5.016   0.801   5.157  0.0237 -0.0894 -0.1758
  739POPI    C311013   5.014   0.515   4.878 -0.0190 -0.0999 -0.1650
  739POPI   PO411014   4.781   0.415   5.457 -0.2652  0.0447  0.0346
  739POPI   GL111015   4.671   0.421   5.830 -0.0930 -0.2017  0.1279
  739POPI   GL211016   4.635   0.706   5.838  0.4741  0.3292 -0.0147
  739POPI   C1A11017   4.757   0.162   6.217  0.1466 -0.1821 -0.1825
  739POPI   D2A11018   4.776   0.219   6.629  0.0266  0.2801 -0.1010
  739POPI   C3A11019   4.581  -0.059   6.919 -0.2459  0.1767  0.3010
  739POPI   C4A11020   4.309  -0.167   7.254 -0.0638  0.0141 -0.3171
  739POPI   C1B11021   5.006   0.647   6.088  0.1514 -0.1506  0.3321
  739POPI   C2B11022   5.003   0.630   6.471  0.0838 -0.2381  0.1292
  739POPI   C3B11023   5.046   0.584   6.873  0.2208 -0.0252  0.0089
  739POPI   C4B11024   4.805   0.764   7.218  0.0829 -0.0723 -0.1422
  740POPI    C111025  14.214   1.364   5.167  0.0526 -0.2837  0.0069
  740POPI    C211026  14.226   1.511   4.795  0.0929 -0.0371  0.1035
  740POPI    C311027  14.434   1.181   4.887 -0.1836 -0.2954 -0.1739
  740POPI   PO411028  14.248   1.557   5.304  0.1149 -0.0632  0.0438
  740POPI   GL111029  14.497   1.619   5.675 -0.0037  0.6194 -0.1101
  740POPI   GL211030  14.671   1.852   5.887 -0.0467  0.1833 -0.0510
  740POPI   C1A11031  14.141   1.495   5.940 -0.0385  0.2366  0.1341
  740POPI   D2A11032  14.026   1.087   6.058 -0.0381  0.3079  0.1247
  740POPI   C3A11033  14.094   0.718   6.274  0.6363 -0.1223 -0.1238
  740POPI   C4A11034  14.310   0.357   6.338  0.1132 -0.0196  0.2121
  740POPI   C1B11035  14.549   1.828   6.308  0.2997 -0.0584 -0.1108
  740POPI   C2B11036  14.511   1.705   6.815  0.1404 -0.1225 -0.3873
  740POPI   C3B11037  14.472   1.661   7.290  0.4355 -0.1877  0.0437
  740POPI   C4B11038  14.709   1.489   7.634 -0.4758 -0.1647 -0.1823
  741POPS   CNO11039   2.357   8.756   5.475 -0.0034 -0.2293 -0.0096
  741POPS   PO411040   2.415   9.059   5.189  0.0712 -0.1388  0.0970
  741POPS   GL111041   2.501   9.216   5.664  0.3320  0.2367  0.0729
  741POPS   GL211042   2.717   9.391   5.852 -0.1382 -0.1577 -0.2996
  741POPS   C1A11043   2.135   9.226   5.932  0.3365  0.1845 -0.1237
  741POPS   D2A11044   1.993   9.213   6.318 -0.3728  0.2031  0.0530
  741POPS   C3A11045   2.349   9.215   6.571  0.0454  0.0550 -0.1851
  741POPS   C4A11046   2.341   9.085   7.038 -0.0416 -0.2160 -0.0440
  741POPS   C1B11047   2.715   9.203   6.193 -0.1276  0.1151  0.1721
  741POPS   C2B11048   2.820   9.418   6.572  0.3606 -0.3723 -0.0372
  741POPS   C3B11049   3.161   9.388   6.938 -0.2105 -0.3317  0.1439
  741POPS   C4B11050   3.063   9.393   7.354 -0.2044 -0.0795 -0.0696
  742POPS   CNO11051   8.691   3.127   5.373 -0.2423  0.2592  0.0697
  742POPS   PO411052   9.009   3.316   5.253  0.0007 -0.1984 -0.1045
  742POPS   GL111053   9.245   3.216   5.653  0.1017 -0.2615  0.3560
  742POPS   GL211054   9.267   2.966   5.736  0.2054  0.0237  0.0067
  742POPS   C1A11055   9.441   3.123   6.133 -0.0150 -0.1421  0.2595
  742POPS   D2A11056   9.671   3.235   6.526  0.0724 -0.2026 -0.2858
  742POPS   C3A11057   9.502   3.397   7.005  0.1648 -0.2409 -0.0982
  742POPS   C4A11058   9.467   3.481   7.398  0.2597  0.0317 -0.0649
  742POPS   C1B11059   9.458   2.637   5.965 -0.1201 -0.3441 -0.1371
  742POPS   C2B11060   9.649   2.753   6.360  0.1044  0.4529  0.1731
  742POPS   C3B11061   9.759   2.609   6.725 -0.2701 -0.0049 -0.5709
  742POPS   C4B11062  10.016   2.409   7.128 -0.2551  0.1090 -0.0868
  743POPS   CNO11063  14.779  10.809   5.526  0.1578  0.2218  0.0292
  743POPS   PO411064  14.801  11.156   5.696  0.1266  0.0431  0.0569
  743POPS   GL111065  15.064  10.845   5.920  0.0359  0.3132  0.4442
  743POPS   GL211066  14.771  10.821   6.126  0.0573  0.0874 -0.2320
  743POPS   C1A11067  15.389  10.832   6.286 -0.3158  0.3614 -0.1662
  743POPS   D2A11068  15.303  11.012   6.668  0.0555 -0.2139  0.0888
  743POPS   C3A11069  15.432  10.902   7.035 -0.0523  0.0742 -0.1217
  743POPS   C4A11070  15.448  10.810   7.464 -0.0701 -0.0478  0.0903
  743POPS   C1B11071  14.782  10.874   6.614  0.4626  0.2259 -0.3338
  743POPS   C2B11072  14.924  11.025   7.057  0.0128 -0.1231  0.5678
  743POPS   C3B11073  15.036  11.093   7.550  0.1853 -0.0386  0.2772
  743POPS   C4B11074  14.850  10.951   7.890  0.0447  0.1159 -0.2776
  744POPS   CNO11075   8.067   4.258   5.337  0.1599  0.0358  0.2446
  744POPS   PO411076   8.341   4.007   5.493 -0.0004  0.1308 -0.0552
  744POPS   GL111077   8.401   4.163   5.878  0.1474 -0.0568 -0.4672
  744POPS   GL211078   8.395   3.768   5.984  0.2888  0.2412 -0.1525
  744POPS   C1A11079   8.571   4.355   6.186 -0.2226  0.0340  0.1871
  744POPS   D2A11080   8.525   4.184   6.522  0.2492 -0.0821 -0.0156
  744POPS   C3A11081   8.897   4.251   6.758 -0.1901 -0.3686  0.2264
  744POPS   C4A11082   9.164   3.892   6.928 -0.1213  0.0392 -0.0225
  744POPS   C1B11083   8.287   3.802   6.336 -0.1564  0.1476 -0.2680
  744POPS   C2B11084   8.220   3.798   6.742  0.1089 -0.1344 -0.0357
  744POPS   C3B11085   8.255   3.619   7.017  0.1798 -0.0613 -0.0827
  744POPS   C4B11086   8.568   3.565   7.419 -0.2754  0.0628  0.3709
  745POPS   CNO11087   1.828  13.258   5.665  0.0275 -0.0749 -0.1416
  745POPS   PO411088   2.044  13.076   5.383 -0.1689 -0.5030  0.1978
  745POPS   GL111089   2.163  12.847   5.842  0.3683  0.1117 -0.0097
  745POPS   GL211090   1.899  12.748   6.125  0.0328  0.0826 -0.1317
  745POPS   C1A11091   2.381  12.492   6.125  0.3103 -0.2434  0.1272
  745POPS   D2A11092   2.507  12.232   6.407  0.0243  0.4419 -0.0244
  745POPS   C3A11093   2.197  11.846   6.434  0.2950 -0.0316 -0.0043
  745POPS   C4A11094   1.797  11.734   6.301 -0.0123  0.2387  0.1795
  745POPS   C1B11095   1.575  12.643   6.568  0.1217 -0.1660  0.3166
  745POPS   C2B11096   1.648  12.610   6.982 -0.1767  0.0212 -0.2022
  745POPS   C3B11097   1.580  12.519   7.393  0.3814 -0.0063  0.1187
  745POPS   C4B11098   1.298  12.480   7.678  0.2689  0.2740 -0.1800
  746POPS   CNO11099  12.654   0.224   5.601 -0.4168 -0.2307 -0.2248
  746POPS   PO411100  12.714  -0.095   5.937  0.1154 -0.1782  0.1868
  746POPS   GL111101  12.656  -0.050   6.329 -0.3842  0.1203  0.0393
  746POPS   GL211102  13.081   0.044   6.347 -0.2796  0.2645 -0.3241
  746POPS   C1A11103  12.526  -0.158   6.623 -0.3026  0.0245  0.2413
  746POPS   D2A11104  12.679  -0.190   7.117 -0.0381 -0.4089  0.2565
  746POPS   C3A11105  12.276  -0.129   7.443  0.2499 -0.0724  0.0444
  746POPS   C4A11106  12.033  -0.080   7.772 -0.2614  0.0303  0.2633
  746POPS   C1B11107  12.985   0.038   6.740 -0.0218 -0.3152 -0.2678
  746POPS   C2B11108  13.154  -0.090   7.155 -0.3629  0.1301 -0.1559
  746POPS   C3B11109  13.167  -0.298   7.522  0.2803  0.2531 -0.0462
  746POPS   C4B11110  13.284  -0.421   7.866  0.1364 -0.4910  0.1970
  747POPS   CNO11111   7.089  18.449   5.513 -0.1125  0.2405  0.0267
  747POPS   PO411112   6.679  18.356   5.408  0.2647 -0.0278 -0.2000
  747POPS   GL111113   6.413  18.192   5.796  0.0464  0.0785  0.2987
  747POPS   GL211114   6.070  18.275   5.748  0.0747  0.0674 -0.1040
  747POPS   C1A11115   6.247  17.993   6.150 -0.3375 -0.1645 -0.0321
  747POPS   D2A11116   5.998  17.743   6.409 -0.0819  0.1229 -0.1580
  747POPS   C3A11117   6.129  17.568   6.814  0.0712 -0.1627 -0.2369
  747POPS   C4A11118   6.186  17.370   7.131  0.1712  0.0296 -0.0539
  747POPS   C1B11119   5.948  17.781   5.771 -0.2266  0.0102 -0.1993
  747POPS   C2B11120   5.869  17.351   6.024  0.2311  0.1490  0.1198
  747POPS   C3B11121   5.840  17.201   6.503 -0.1399  0.1142 -0.0684
  747POPS   C4B11122   5.674  17.285   6.858  0.0253  0.1812 -0.0154
  748POPS   CNO11123   4.141   2.645   5.269 -0.3404  0.1293  0.0459
  748POPS   PO411124   3.743   2.482   5.148 -0.0151  0.0683 -0.3643
  748POPS   GL111125   3.666   2.427   5.576 -0.1426  0.0285 -0.0676
  748POPS   GL211126   3.914   2.640   5.728 -0.0745  0.0990  0.2328
  748POPS   C1A11127   3.608   2.439   6.003 -0.3932 -0.1907  0.0886
  748POPS   D2A11128   3.770   2.396   6.432 -0.3469 -0.0869 -0.2135
  748POPS   C3A11129   3.702   2.623   6.739  0.0264 -0.1180 -0.0093
  748POPS   C4A11130   3.547   2.952   7.039 -0.2115 -0.3397  0.0836
  748POPS   C1B11131   4.042   2.725   6.198  0.3809 -0.2093 -0.1106
  748POPS   C2B11132   4.325   2.767   6.620 -0.0734 -0.0737 -0.1160
  748POPS   C3B11133   4.508   3.121   6.792  0.1916 -0.1982 -0.0254
  748POPS   C4B11134   4.480   3.509   7.038 -0.0652 -0.3042  0.0232
  749POPS   CNO11135   9.280   2.507   4.654 -0.1049 -0.4948 -0.0904
  749POPS   PO411136   9.339   2.418   5.069 -0.0845 -0.2965  0.1450
  749POPS   GL111137   9.503   2.392   5.488  0.0218  0.3272 -0.0503
  749POPS   GL211138   9.560   2.647   5.463 -0.0746  0.1521  0.0761
  749POPS   C1A11139   9.428   2.110   5.828  0.0524  0.0399 -0.1199
  749POPS   D2A11140   9.670   1.842   6.053  0.1837 -0.3477 -0.1088
  749POPS   C3A11141   9.890   2.094   6.510 -0.0410  0.2433  0.1122
  749POPS   C4A11142   9.826   1.979   6.907  0.1472  0.3231 -0.3235
  749POPS   C1B11143   9.741   2.997   5.726 -0.1185  0.1726  0.2660
  749POPS   C2B11144   9.935   3.395   5.978 -0.3435  0.2377 -0.0410
  749POPS   C3B11145  10.071   3.527   6.306 -0.2145 -0.1229  0.2102
  749POPS   C4B11146  10.101   3.600   6.728  0.1629  0.3040  0.0547
  750POPS   CNO11147  17.483   1.295   5.593 -0.1343 -0.0408 -0.2406
  750POPS   PO411148  17.128   1.006   5.415 -0.0032  0.0065  0.1374
  750POPS   GL111149  17.098   1.074   5.894  0.0308  0.1618  0.0030
  750POPS   GL211150  16.799   1.198   6.046  0.1821 -0.2119 -0.1055
  750POPS   C1A11151  17.092   1.170   6.407  0.1292 -0.2553  0.0718
  750POPS   D2A11152  16.997   1.257   6.887  0.2317  0.0554 -0.0022
  750POPS   C3A11153  16.828   0.935   7.143  0.0609 -0.1607  0.0081
  750POPS   C4A11154  16.703   0.613   7.218 -0.1550 -0.0250  0.1760
  750POPS   C1B11155  16.563   1.226   6.517  0.0142  0.0201  0.3939
  750POPS   C2B11156  16.472   1.107   6.895  0.1607  0.0116  0.0119
  750POPS   C3B11157  16.287   1.028   7.241 -0.0811 -0.1505 -0.2759
  750POPS   C4B11158  16.392   1.027   7.713  0.0836  0.1492 -0.0766
  751POPS   CNO11159   4.148   1.402   5.605 -0.1912  0.2334 -0.1377
  751POPS   PO411160   4.199   0.916   5.701 -0.1158  0.3406 -0.0643
  751POPS   GL111161   4.374   1.136   6.058 -0.1579 -0.3514 -0.1439
  751POPS   GL211162   4.664   1.261   5.953  0.1904  0.2744  0.3162
  751POPS   C1A11163   4.338   1.296   6.438 -0.0889 -0.0585 -0.1346
  751POPS   D2A11164   4.238   1.228   6.840  0.0070 -0.1626  0.0284
  751POPS   C3A11165   3.817   1.362   7.061 -0.1952  0.3208 -0.1621
  751POPS   C4A11166   3.473   1.625   7.263 -0.1111  0.1870  0.1727
  751POPS   C1B11167   4.766   1.040   6.391  0.0411 -0.1851  0.0567
  751POPS   C2B11168   4.751   1.176   6.820  0.1764 -0.1108  0.0052
  751POPS   C3B11169   4.561   1.259   7.199  0.0598  0.0729 -0.1761
  751POPS   C4B11170   4.510   1.299   7.725 -0.5041 -0.0451 -0.2905
  752POPS   CNO11171  10.795  15.616   5.077  0.0246 -0.1429  0.4097
  752POPS   PO411172  11.227  15.539   5.311  0.1260  0.1883  0.0565
  752POPS   GL111173  11.306  15.695   5.720 -0.3498  0.1206  0.0984
  752POPS   GL211174  11.058  15.910   5.945 -0.2224 -0.0516  0.2073
  752POPS   C1A11175  11.596  15.654   6.119 -0.0938  0.2294  0.0656
  752POPS   D2A11176  11.818  15.649   6.545  0.2087  0.1629  0.0710
  752POPS   C3A11177  11.894  15.661   6.945 -0.2655  0.0013  0.3562
  752POPS   C4A11178  11.501  15.563   7.284 -0.1929  0.0918 -0.2591
  752POPS   C1B11179  11.097  15.790   6.387 -0.4080 -0.3553  0.2806
  752POPS   C2B11180  11.274  15.681   6.713  0.2297  0.0992 -0.1183
  752POPS   C3B11181  11.470  15.968   7.046  0.0229 -0.1691 -0.1959
  752POPS   C4B11182  11.842  15.949   7.402  0.1753 -0.0489  0.1801
  753POPS   CNO11183  13.225  14.332   5.148  0.2375  0.0455  0.1468
  753POPS   PO411184  13.271  14.520   5.509  0.2035 -0.0670 -0.1021
  753POPS   GL111185  13.419  14.480   5.862 -0.3690  0.2660  0.0449
  753POPS   GL211186  13.449  14.133   5.941  0.2218 -0.1040 -0.1950
  753POPS   C1A11187  13.740  14.395   6.241  0.0117 -0.3763 -0.1870
  753POPS   D2A11188  13.784  14.196   6.635 -0.0237 -0.0453 -0.1090
  753POPS   C3A11189  13.456  14.267   6.977 -0.0579  0.3065 -0.1545
  753POPS   C4A11190  13.119  14.519   7.070  0.1590  0.1231  0.2464
  753POPS   C1B11191  13.466  13.971   6.341  0.1401 -0.3849  0.2333
  753POPS   C2B11192  13.256  13.731   6.692  0.0316  0.1321  0.1966
  753POPS   C3B11193  13.272  13.659   7.092  0.0588 -0.3364  0.0858
  753POPS   C4B11194  13.309  13.724   7.464  0.0345  0.0997  0.4129
  754POPS   CNO11195   7.768   4.994   5.484  0.2901  0.0173 -0.0281
  754POPS   PO411196   7.729   4.660   5.343  0.1131  0.0106 -0.2924
  754POPS   GL111197   7.984   4.572   5.745  0.4333 -0.0395 -0.3028
  754POPS   GL211198   8.202   4.591   5.984 -0.1236 -0.1204  0.5027
  754POPS   C1A11199   7.737   4.642   6.125 -0.1870 -0.1160 -0.0927
  754POPS   D2A11200   7.830   4.783   6.600  0.0255  0.3413  0.0497
  754POPS   C3A11201   8.081   5.004   6.850  0.2816  0.4296 -0.2094
  754POPS   C4A11202   8.354   4.926   7.264  0.1211 -0.0451 -0.1359
  754POPS   C1B11203   8.290   4.768   6.358 -0.2048  0.2963 -0.1777
  754POPS   C2B11204   8.470   4.656   6.745  0.2566  0.0383  0.1038
  754POPS   C3B11205   8.753   4.587   7.098  0.6119 -0.0776 -0.0434
  754POPS   C4B11206   8.925   4.306   7.416 -0.0398 -0.1748 -0.0724
  755POPS   CNO11207  13.771  13.668   5.749  0.2618 -0.0079 -0.1956
  755POPS   PO411208  13.571  13.858   5.556 -0.1041  0.0996 -0.0457
  755POPS   GL111209  13.274  13.675   5.839 -0.0196 -0.0288 -0.1944
  755POPS   GL211210  13.430  13.514   6.068  0.0011  0.1935 -0.0202
  755POPS   C1A11211  13.008  13.706   6.200 -0.0759  0.1317 -0.2602
  755POPS   D2A11212  12.689  13.595   6.538 -0.0826 -0.2619  0.3072
  755POPS   C3A11213  12.760  13.843   6.827 -0.1103 -0.0768  0.1597
  755POPS   C4A11214  12.704  14.124   7.068  0.2156 -0.1481  0.0100
  755POPS   C1B11215  13.627  13.116   6.208 -0.2677  0.0772 -0.0055
  755POPS   C2B11216  13.765  12.842   6.496 -0.2159 -0.1285 -0.1548
  755POPS   C3B11217  13.684  12.469   6.666  0.1740  0.1419 -0.1778
  755POPS   C4B11218  13.723  12.119   6.964  0.1325 -0.0668  0.1306
  756POPS   CNO11219   3.992   3.956   4.348 -0.1440 -0.0282 -0.0994
  756POPS   PO411220   4.075   3.930   4.755  0.0060 -0.0260  0.3118
  756POPS   GL111221   3.987   3.933   5.196  0.0086 -0.1773  0.0261
  756POPS   GL211222   4.002   4.279   5.176 -0.3310  0.0100  0.0066
  756POPS   C1A11223   4.139   3.900   5.534 -0.1808 -0.4693  0.2192
  756POPS   D2A11224   4.372   3.882   5.942  0.4056 -0.0934  0.0761
  756POPS   C3A11225   4.452   3.495   5.882  0.0507 -0.1419 -0.2069
  756POPS   C4A11226   4.582   3.663   5.437 -0.1977 -0.1691 -0.0523
  756POPS   C1B11227   4.411   4.349   5.402  0.0463 -0.1195  0.4277
  756POPS   C2B11228   4.534   4.283   5.760 -0.1648 -0.3957 -0.2720
  756POPS   C3B11229   4.541   4.341   6.124 -0.0389 -0.1278  0.0635
  756POPS   C4B11230   4.577   4.493   6.510 -0.0998 -0.0636 -0.1998
  757POPS   CNO11231  10.059  17.748   5.368  0.0513  0.0866 -0.0105
  757POPS   PO411232   9.690  17.621   5.527 -0.0372  0.3783 -0.1443
  757POPS   GL111233   9.738  17.689   5.952  0.2214  0.2099 -0.1263
  757POPS   GL211234   9.448  17.741   6.006 -0.3466 -0.1059 -0.0853
  757POPS   C1A11235   9.788  17.558   6.474  0.1427  0.3628  0.1957
  757POPS   D2A11236   9.688  17.582   6.903 -0.0706 -0.0300  0.2003
  757POPS   C3A11237  10.019  17.741   7.210 -0.1775  0.1423  0.0009
  757POPS   C4A11238  10.305  18.050   7.516 -0.1046 -0.0559 -0.0896
  757POPS   C1B11239   9.383  17.793   6.468  0.2809  0.1913  0.1916
  757POPS   C2B11240   9.184  17.780   6.888  0.2051  0.0558 -0.2701
  757POPS   C3B11241   9.159  17.930   7.323 -0.1990  0.0016  0.4430
  757POPS   C4B11242   8.924  17.777   7.664  0.1671 -0.0638  0.1448
  758POPS   CNO11243  10.169   2.664   4.555 -0.1310  0.0109 -0.0928
  758POPS   PO411244  10.483   2.734   5.009  0.0538 -0.0866 -0.0877
  758POPS   GL111245  10.308   2.674   5.341  0.2042  0.3642 -0.3363
  758POPS   GL211246  10.616   2.543   5.628 -0.0989  0.2405  0.0228
  758POPS   C1A11247  10.036   2.591   5.716 -0.1440  0.0294 -0.1660
  758POPS   D2A11248   9.877   2.281   6.042  0.2028 -0.3775  0.0967
  758POPS   C3A11249   9.468   2.298   6.307  0.0056 -0.0546 -0.1939
  758POPS   C4A11250   9.360   2.300   6.768 -0.0179 -0.3651 -0.1674
  758POPS   C1B11251  10.636   2.670   6.087 -0.0337 -0.0164  0.0198
  758POPS   C2B11252  10.616   2.601   6.533 -0.1144  0.0259 -0.2557
  758POPS   C3B11253  10.250   2.755   6.830  0.0256 -0.0132  0.1253
  758POPS   C4B11254   9.970   3.046   6.859  0.1246  0.2847 -0.2584
  759POPS   CNO11255   4.265   3.184   4.569 -0.0649 -0.0121  0.3393
  759POPS   PO411256   4.297   3.060   5.006  0.4694  0.3041  0.0260
  759POPS   GL111257   4.190   3.205   5.428  0.0410  0.1919 -0.1152
  759POPS   GL211258   4.123   3.465   5.415 -0.0140 -0.2073 -0.3431
  759POPS   C1A11259   4.145   3.067   5.888 -0.0313 -0.3504 -0.0596
  759POPS   D2A11260   4.079   3.261   6.227  0.0877  0.3531 -0.0339
  759POPS   C3A11261   4.454   3.491   6.383  0.0687 -0.1577 -0.1489
  759POPS   C4A11262   4.857   3.501   6.761  0.1212 -0.0972  0.1354
  759POPS   C1B11263   3.897   3.627   5.882  0.5438  0.2135  0.0280
  759POPS   C2B11264   3.971   3.745   6.349 -0.0521  0.2109 -0.0691
  759POPS   C3B11265   4.046   3.599   6.679 -0.1873  0.2349 -0.2156
  759POPS   C4B11266   4.001   3.717   7.158  0.1311  0.0478  0.2194
  760POPS   CNO11267   3.402  12.526   5.167  0.0619  0.1935  0.2282
  760POPS   PO411268   3.157  12.313   5.569 -0.1922 -0.2203 -0.2979
  760POPS   GL111269   3.333  12.113   5.806 -0.2148  0.0414  0.1814
  760POPS   GL211270   3.291  12.206   6.040  0.3724  0.0684  0.2786
  760POPS   C1A11271   3.689  11.781   5.930 -0.2965 -0.2430 -0.2463
  760POPS   D2A11272   3.745  11.517   6.274 -0.0463 -0.0406 -0.0210
  760POPS   C3A11273   3.749  11.395   6.735 -0.4212  0.0396 -0.1655
  760POPS   C4A11274   3.645  11.299   7.163  0.5287 -0.1826  0.2013
  760POPS   C1B11275   3.021  12.213   6.379 -0.3152 -0.5277 -0.0562
  760POPS   C2B11276   2.807  12.511   6.691  0.2010  0.0281 -0.3998
  760POPS   C3B11277   2.738  12.578   7.111 -0.1614  0.3954  0.0953
  760POPS   C4B11278   2.976  12.865   7.305  0.0564  0.0414 -0.2312
  761POPS   CNO11279  18.396  17.341   5.918  0.1058 -0.1126  0.3693
  761POPS   PO411280  18.314  17.684   6.023  0.4864 -0.2912 -0.0813
  761POPS   GL111281  18.443  17.453   6.394 -0.2184  0.2562  0.0837
  761POPS   GL211282  18.250  17.474   6.632  0.0509  0.1307  0.0058
  761POPS   C1A11283  18.684  17.092   6.546  0.1671  0.3165  0.3330
  761POPS   D2A11284  18.825  17.021   6.951 -0.4009 -0.2905 -0.2124
  761POPS   C3A11285  18.649  16.746   7.134 -0.1028  0.1342 -0.0800
  761POPS   C4A11286  18.705  16.578   7.518  0.0273  0.3505 -0.1370
  761POPS   C1B11287  18.531  17.575   6.985  0.2619  0.0958 -0.1495
  761POPS   C2B11288  18.493  17.644   7.345  0.0751  0.1464 -0.0494
  761POPS   C3B11289  18.660  17.676   7.825  0.1158  0.2799 -0.0132
  761POPS   C4B11290  18.486  17.773   8.152  0.2235  0.0939 -0.0605
  762POPS   CNO11291   3.182   7.616   5.256  0.3518 -0.1941  0.3363
  762POPS   PO411292   3.532   7.888   5.247  0.1357  0.1614 -0.1875
  762POPS   GL111293   3.498   7.817   5.616 -0.0034  0.0404  0.1422
  762POPS   GL211294   3.128   7.796   5.770 -0.3213  0.1002  0.3752
  762POPS   C1A11295   3.622   7.708   5.975 -0.1612  0.2372 -0.1241
  762POPS   D2A11296   3.597   7.759   6.454  0.0487 -0.3465 -0.0786
  762POPS   C3A11297   3.277   7.758   6.717 -0.0202  0.2050  0.0242
  762POPS   C4A11298   2.864   7.807   6.919  0.2023  0.1021  0.2891
  762POPS   C1B11299   3.161   7.718   6.140  0.0706 -0.0217 -0.0375
  762POPS   C2B11300   2.855   7.761   6.372 -0.1820  0.0805 -0.0168
  762POPS   C3B11301   2.448   7.992   6.363  0.0193 -0.0558 -0.0431
  762POPS   C4B11302   2.121   8.233   6.143 -0.0107  0.3482  0.1121
  763POPS   CNO11303  16.109   8.517   4.952  0.2656 -0.0557 -0.1904
  763POPS   PO411304  15.721   8.543   5.285 -0.1655  0.0952 -0.0582
  763POPS   GL111305  15.881   8.534   5.721 -0.2754  0.0354  0.0290
  763POPS   GL211306  15.588   8.596   5.875 -0.0983  0.0388 -0.0887
  763POPS   C1A11307  16.038   8.708   6.112  0.2219  0.0529 -0.3247
  763POPS   D2A11308  15.885   9.049   6.336  0.1066  0.2490  0.1454
  763POPS   C3A11309  15.695   9.064   6.691 -0.0565  0.1454 -0.2275
  763POPS   C4A11310  15.522   9.108   6.926  0.1403  0.2531 -0.3575
  763POPS   C1B11311  15.546   8.669   6.324 -0.1565 -0.0770 -0.0616
  763POPS   C2B11312  15.448   8.594   6.756 -0.2616  0.1438  0.0813
  763POPS   C3B11313  15.178   8.477   7.060 -0.1629  0.1874  0.1201
  763POPS   C4B11314  15.337   8.335   7.412  0.4734 -0.2161 -0.3433
  764POPS   CNO11315   6.270  15.567   5.889  0.2081 -0.0877  0.0486
  764POPS   PO411316   6.614  15.491   5.696 -0.0415  0.1026 -0.1279
  764POPS   GL111317   6.738  15.410   6.159  0.3324  0.2238  0.0509
  764POPS   GL211318   6.921  15.226   6.157  0.0597 -0.0995  0.1647
  764POPS   C1A11319   6.785  15.411   6.592  0.1378  0.1560 -0.0719
  764POPS   D2A11320   6.826  15.497   7.057 -0.0817  0.0216 -0.3832
  764POPS   C3A11321   6.426  15.365   7.322  0.1748  0.2524 -0.1483
  764POPS   C4A11322   5.995  15.371   7.512  0.0093  0.1238 -0.2128
  764POPS   C1B11323   6.771  14.967   6.437 -0.0544  0.0361 -0.3471
  764POPS   C2B11324   6.942  15.037   6.914 -0.2771  0.1689 -0.0486
  764POPS   C3B11325   6.901  14.935   7.307 -0.2833 -0.0644 -0.2459
  764POPS   C4B11326   6.828  14.566   7.484  0.0171  0.0251 -0.0280
  765POPS   CNO11327  18.269   5.462   5.554 -0.0240  0.2957 -0.1369
  765POPS   PO411328  18.180   5.223   5.857 -0.1534  0.6690 -0.2230
  765POPS   GL111329  18.089   5.483   6.275  0.2626  0.0846  0.1467
  765POPS   GL211330  18.047   5.217   6.529 -0.0541  0.3645  0.2915
  765POPS   C1A11331  18.207   5.688   6.608 -0.0051  0.2195 -0.0529
  765POPS   D2A11332  18.663   5.708   6.996 -0.0449 -0.2891 -0.2254
  765POPS   C3A11333  18.904   5.897   7.309  0.0482  0.3037  0.0044
  765POPS   C4A11334  18.906   5.983   7.721 -0.0075 -0.1475 -0.0131
  765POPS   C1B11335  18.195   5.212   6.924 -0.0010  0.0737 -0.2247
  765POPS   C2B11336  18.667   5.129   7.149 -0.0762  0.0640  0.1128
  765POPS   C3B11337  18.921   5.234   7.471  0.3259  0.2396  0.2415
  765POPS   C4B11338  19.255   5.249   7.879  0.0994  0.0650 -0.0088
  766POPS   CNO11339   6.639   4.900   5.300 -0.1240 -0.3135 -0.0491
  766POPS   PO411340   6.835   4.788   5.652 -0.2532 -0.0578 -0.2203
  766POPS   GL111341   6.678   4.971   5.918 -0.1926  0.1030  0.0519
  766POPS   GL211342   6.457   4.656   5.938  0.0919  0.0002  0.0891
  766POPS   C1A11343   6.468   4.978   6.314  0.0277  0.2866  0.1499
  766POPS   D2A11344   6.329   4.936   6.616  0.0304 -0.2340  0.2394
  766POPS   C3A11345   6.130   4.978   7.040  0.0477 -0.3927  0.0454
  766POPS   C4A11346   5.754   5.062   7.342 -0.2398 -0.0542  0.0462
  766POPS   C1B11347   6.005   4.569   5.990 -0.1553 -0.3423 -0.0735
  766POPS   C2B11348   5.662   4.715   6.247 -0.0286  0.5615  0.0468
  766POPS   C3B11349   5.549   4.465   6.565 -0.2474  0.1778 -0.2009
  766POPS   C4B11350   5.616   4.083   6.612 -0.0075  0.3329 -0.1643
  767POPS   CNO11351   4.283  11.397   5.252 -0.1716  0.0539 -0.2980
  767POPS   PO411352   4.312  11.740   5.529 -0.0558  0.0853  0.0554
  767POPS   GL111353   4.203  11.618   6.028 -0.1096 -0.1491  0.3372
  767POPS   GL211354   4.088  11.879   6.196 -0.2243  0.3823 -0.2074
  767POPS   C1A11355   4.402  11.276   6.315 -0.0056 -0.1093  0.0459
  767POPS   D2A11356   4.796  11.229   6.320  0.2089 -0.1147  0.0488
  767POPS   C3A11357   5.064  10.809   6.596  0.2469 -0.2065 -0.0663
  767POPS   C4A11358   5.264  10.409   6.557 -0.0667  0.2344  0.0696
  767POPS   C1B11359   4.184  11.694   6.558  0.0450 -0.0113 -0.0254
  767POPS   C2B11360   4.383  11.508   6.938 -0.1018  0.1073  0.0208
  767POPS   C3B11361   4.487  11.516   7.348  0.1479  0.2591  0.0220
  767POPS   C4B11362   4.724  11.789   7.617  0.2023 -0.0290 -0.0739
  768POPS   CNO11363   8.511   1.382   4.751 -0.2094  0.1809  0.1164
  768POPS   PO411364   8.368   1.517   5.149  0.1809  0.1720 -0.3084
  768POPS   GL111365   8.350   1.450   5.672 -0.1013 -0.0063  0.2442
  768POPS   GL211366   7.940   1.423   5.871  0.0692 -0.2531 -0.0992
  768POPS   C1A11367   8.438   1.332   6.083  0.2473 -0.0655 -0.1562
  768POPS   D2A11368   8.511   1.107   6.413 -0.1617 -0.3076  0.4360
  768POPS   C3A11369   8.590   1.292   6.731 -0.1272 -0.1764  0.4839
  768POPS   C4A11370   8.697   1.706   6.913 -0.0467 -0.1208  0.1283
  768POPS   C1B11371   8.004   1.196   6.282  0.4121 -0.2265  0.0726
  768POPS   C2B11372   8.057   1.086   6.659  0.0319 -0.0757  0.3926
  768POPS   C3B11373   7.801   1.147   7.064  0.5416  0.1747  0.0147
  768POPS   C4B11374   7.576   1.167   7.500  0.0523 -0.0979  0.1658
  769POPS   CNO11375   7.530  16.021   5.072 -0.1766  0.0334  0.0170
  769POPS   PO411376   7.486  15.951   5.480  0.1663 -0.0732  0.2155
  769POPS   GL111377   7.514  16.028   5.852  0.1981  0.0875 -0.0517
  769POPS   GL211378   7.523  16.229   5.923  0.0541  0.0043 -0.0073
  769POPS   C1A11379   7.507  15.697   6.180  0.2184 -0.2373  0.0322
  769POPS   D2A11380   7.346  15.464   6.464 -0.0336 -0.2827  0.1781
  769POPS   C3A11381   7.330  15.512   6.935 -0.4320 -0.0982 -0.2174
  769POPS   C4A11382   7.310  15.196   7.236 -0.0823  0.0881 -0.1100
  769POPS   C1B11383   7.650  16.133   6.383  0.0504 -0.1155 -0.1585
  769POPS   C2B11384   7.962  15.810   6.598  0.1579  0.0259  0.0669
  769POPS   C3B11385   8.159  15.976   7.036 -0.1567 -0.0508 -0.0664
  769POPS   C4B11386   8.481  15.822   7.324 -0.1626 -0.0738 -0.1182
  770POPS   CNO11387   6.964   8.046   5.374 -0.0412  0.0113 -0.0404
  770POPS   PO411388   6.634   8.308   5.470 -0.3935 -0.1012 -0.0429
  770POPS   GL111389   6.611   8.102   5.850  0.0475 -0.1577 -0.0811
  770POPS   GL211390   6.361   7.895   5.970 -0.0463 -0.0694 -0.1204
  770POPS   C1A11391   6.757   8.052   6.260 -0.2760 -0.1810  0.3143
  770POPS   D2A11392   6.562   8.148   6.640  0.0662  0.0271 -0.1776
  770POPS   C3A11393   6.877   8.065   7.066  0.3162 -0.1611  0.0500
  770POPS   C4A11394   6.911   7.923   7.590  0.0253 -0.0980  0.1846
  770POPS   C1B11395   6.409   7.681   6.427 -0.1118  0.4579  0.0153
  770POPS   C2B11396   6.417   7.305   6.743 -0.2049  0.2523 -0.3079
  770POPS   C3B11397   6.284   7.038   7.074  0.0726 -0.2706 -0.1117
  770POPS   C4B11398   5.907   6.818   7.344  0.1523  0.0165 -0.1415
  771POPS   CNO11399  13.902   0.962   4.900  0.4601  0.0002 -0.0134
  771POPS   PO411400  13.670   1.204   5.137  0.0691  0.1586  0.0711
  771POPS   GL111401  13.499   1.422   5.547 -0.1858 -0.4442  0.1423
  771POPS   GL211402  13.201   1.350   5.670  0.0427  0.0742  0.2419
  771POPS   C1A11403  13.636   1.476   6.016 -0.2810  0.1915  0.1445
  771POPS   D2A11404  13.712   1.427   6.408  0.0562 -0.1572 -0.2402
  771POPS   C3A11405  13.514   1.458   6.762 -0.0120  0.0948  0.0281
  771POPS   C4A11406  13.403   1.412   7.161 -0.2082  0.0422  0.0669
  771POPS   C1B11407  13.105   1.509   6.091 -0.0388 -0.3198 -0.3605
  771POPS   C2B11408  13.095   1.457   6.480  0.0461 -0.1263 -0.0658
  771POPS   C3B11409  13.136   1.808   6.678  0.0498  0.0821 -0.0070
  771POPS   C4B11410  12.826   1.818   7.037 -0.1147 -0.1582 -0.2078
  772POPS   CNO11411  14.721   9.916   5.379 -0.1667 -0.1130  0.2948
  772POPS   PO411412  14.963   9.703   5.551 -0.1011  0.0077  0.0202
  772POPS   GL111413  14.888   9.868   5.962 -0.0902 -0.1806 -0.0550
  772POPS   GL211414  14.634   9.806   6.087 -0.3694 -0.1122  0.0051
  772POPS   C1A11415  15.111   9.932   6.301  0.2414  0.2106  0.2078
  772POPS   D2A11416  14.978  10.089   6.750  0.2731  0.0202  0.1332
  772POPS   C3A11417  15.073  10.103   7.100  0.2937  0.0787 -0.1396
  772POPS   C4A11418  14.951  10.427   7.379  0.0272 -0.0023  0.0700
  772POPS   C1B11419  14.522   9.875   6.603  0.3353 -0.0884 -0.1015
  772POPS   C2B11420  14.218   9.892   6.938 -0.0822  0.1070 -0.2393
  772POPS   C3B11421  14.064  10.070   7.293  0.0712 -0.3234  0.2824
  772POPS   C4B11422  13.948  10.168   7.651 -0.0812 -0.1520 -0.0116
  773POPS   CNO11423   4.931   6.242   4.925 -0.4548  0.1218  0.0190
  773POPS   PO411424   5.353   6.411   5.078  0.1885  0.0201  0.2557
  773POPS   GL111425   5.080   6.289   5.440  0.0260 -0.3175 -0.0136
  773POPS   GL211426   4.745   6.445   5.470 -0.0450 -0.2130 -0.3146
  773POPS   C1A11427   5.196   6.465   5.790  0.2044 -0.1980  0.1089
  773POPS   D2A11428   5.527   6.340   6.035 -0.1096  0.1697  0.4317
  773POPS   C3A11429   5.826   6.061   5.728 -0.0309  0.0678  0.1057
  773POPS   C4A11430   6.032   5.845   5.427 -0.1515 -0.2424  0.0213
  773POPS   C1B11431   4.720   6.397   5.926  0.2105  0.3956 -0.4544
  773POPS   C2B11432   4.989   6.473   6.224 -0.0266  0.1952 -0.1793
  773POPS   C3B11433   5.255   6.508   6.619  0.0738 -0.1482  0.2952
  773POPS   C4B11434   5.119   6.222   7.034 -0.1735 -0.1177 -0.0654
  774POPS   CNO11435  11.554  13.882   4.551 -0.0175  0.0553  0.0086
  774POPS   PO411436  11.626  14.038   4.938  0.0784  0.1011  0.1133
  774POPS   GL111437  11.527  14.164   5.508  0.2310  0.2411  0.1068
  774POPS   GL211438  11.733  14.169   5.785 -0.0751 -0.0763  0.0594
  774POPS   C1A11439  11.286  14.389   5.852 -0.0419  0.1077  0.1843
  774POPS   D2A11440  11.240  14.172   6.215 -0.0106 -0.0774 -0.4529
  774POPS   C3A11441  11.305  14.252   6.592  0.1799 -0.4065 -0.1125
  774POPS   C4A11442  11.463  14.560   6.860 -0.3849  0.0751 -0.2064
  774POPS   C1B11443  11.797  14.180   6.216  0.4691  0.0849  0.1619
  774POPS   C2B11444  11.590  14.574   6.283 -0.1007  0.4195 -0.1884
  774POPS   C3B11445  11.360  14.873   6.228  0.2662  0.1277 -0.1904
  774POPS   C4B11446  11.227  15.329   6.159  0.2023  0.0659  0.1914
  775POPS   CNO11447   0.541  15.266   6.145 -0.2363 -0.0497  0.0257
  775POPS   PO411448   0.400  14.859   6.234 -0.1582  0.2138 -0.3131
  775POPS   GL111449   0.334  14.871   6.589 -0.0109  0.0514  0.0585
  775POPS   GL211450   0.549  14.609   6.683 -0.3127  0.1283  0.0651
  775POPS   C1A11451   0.301  15.182   6.941  0.3649 -0.0835 -0.2082
  775POPS   D2A11452   0.462  15.262   7.280  0.1335  0.0805  0.0287
  775POPS   C3A11453   0.409  14.869   7.623 -0.0174  0.3456  0.2395
  775POPS   C4A11454   0.310  14.410   7.838 -0.0511  0.2052  0.0784
  775POPS   C1B11455   0.741  14.804   7.118  0.2863 -0.0459  0.0708
  775POPS   C2B11456   0.979  14.559   7.436  0.5480  0.2771  0.0229
  775POPS   C3B11457   1.100  14.207   7.692  0.0834  0.2102  0.1220
  775POPS   C4B11458   1.157  13.832   7.916 -0.0722 -0.1104  0.0803
  776POPS   CNO11459   0.064   3.164   5.600 -0.0311 -0.0806 -0.1350
  776POPS   PO411460  -0.131   3.554   5.613  0.1313 -0.1197  0.4033
  776POPS   GL111461   0.095   3.621   5.925  0.2476  0.2277  0.1511
  776POPS   GL211462   0.302   3.439   5.980 -0.2123 -0.1635 -0.1193
  776POPS   C1A11463  -0.035   3.915   6.240 -0.4416  0.1548 -0.0321
  776POPS   D2A11464  -0.182   4.202   6.490  0.2509 -0.3133 -0.0425
  776POPS   C3A11465  -0.002   4.311   6.877  0.1513  0.3541  0.0039
  776POPS   C4A11466   0.169   4.328   7.339  0.1923 -0.1690 -0.1620
  776POPS   C1B11467   0.288   3.605   6.442 -0.0670 -0.3237  0.0104
  776POPS   C2B11468   0.107   3.729   6.793  0.1241  0.1378  0.0983
  776POPS   C3B11469  -0.038   3.844   7.197  0.2573 -0.0311  0.1694
  776POPS   C4B11470  -0.166   3.901   7.558  0.2923 -0.1354  0.1483
  777POPS   CNO11471   3.727  16.030   5.569  0.1242 -0.1731  0.1529
  777POPS   PO411472   3.380  16.056   5.721 -0.1106  0.1550  0.0802
  777POPS   GL111473   3.636  16.035   6.058 -0.1829 -0.0827  0.0048
  777POPS   GL211474   4.035  16.109   5.984  0.1659  0.3505 -0.1859
  777POPS   C1A11475   3.765  16.339   6.560  0.1801  0.0367  0.1864
  777POPS   D2A11476   3.910  16.423   6.943 -0.5648 -0.1814 -0.0296
  777POPS   C3A11477   4.301  16.237   6.999  0.0604  0.1801  0.0244
  777POPS   C4A11478   4.638  16.392   7.352 -0.1261  0.2148 -0.0054
  777POPS   C1B11479   4.172  16.181   6.310  0.0430 -0.3341  0.0648
  777POPS   C2B11480   4.170  16.560   6.531  0.0082  0.0554 -0.1355
  777POPS   C3B11481   4.331  16.772   6.865  0.2227 -0.2782 -0.0459
  777POPS   C4B11482   4.283  16.746   7.311 -0.0747 -0.0136  0.0346
  778POPS   CNO11483   3.711   1.955   5.120  0.1208 -0.0357 -0.1370
  778POPS   PO411484   3.743   1.475   5.136 -0.2365 -0.0502  0.0961
  778POPS   GL111485   3.692   1.583   5.558 -0.1129 -0.0029  0.0561
  778POPS   GL211486   3.882   1.769   5.771  0.0550  0.1193  0.0493
  778POPS   C1A11487   3.470   1.570   5.980  0.3289  0.1091 -0.0433
  778POPS   D2A11488   3.378   1.464   6.290  0.1486  0.4214  0.4478
  778POPS   C3A11489   3.071   1.619   6.494  0.1103 -0.0778 -0.0376
  778POPS   C4A11490   3.028   1.601   6.976  0.0180 -0.0726  0.0142
  778POPS   C1B11491   3.645   1.966   6.025  0.0242  0.0671  0.3450
  778POPS   C2B11492   3.566   1.927   6.418 -0.1501 -0.1154  0.1512
  778POPS   C3B11493   3.410   1.866   6.814 -0.2701 -0.3434  0.0483
  778POPS   C4B11494   3.195   2.179   7.129  0.1255  0.0192 -0.2790
  779POPS   CNO11495  11.142   7.521   4.920 -0.0570 -0.1828 -0.0544
  779POPS   PO411496  11.008   7.582   5.403 -0.2869 -0.2273  0.2515
  779POPS   GL111497  11.209   7.590   5.783  0.2781 -0.0637 -0.0603
  779POPS   GL211498  11.003   7.703   5.907  0.0362 -0.1566 -0.3375
  779POPS   C1A11499  11.452   7.770   6.181 -0.3698 -0.2013 -0.2606
  779POPS   D2A11500  11.224   8.054   6.505 -0.1111 -0.0032 -0.0910
  779POPS   C3A11501  11.118   7.820   6.883 -0.0744  0.0299 -0.1136
  779POPS   C4A11502  11.185   7.377   7.123 -0.0985  0.1042 -0.0075
  779POPS   C1B11503  10.963   7.545   6.295  0.1371  0.1028 -0.0733
  779POPS   C2B11504  10.965   7.280   6.645  0.0291 -0.1899  0.1554
  779POPS   C3B11505  11.188   6.867   6.927  0.0748  0.0862 -0.2231
  779POPS   C4B11506  11.245   6.852   7.426  0.2143  0.1291 -0.0075
  780POPS   CNO11507  18.341  16.276   6.318 -0.0048  0.2668 -0.0562
  780POPS   PO411508  18.234  16.648   6.078  0.2579 -0.0422 -0.3784
  780POPS   GL111509  18.337  16.716   6.583  0.1704 -0.2087 -0.0667
  780POPS   GL211510  18.137  16.548   6.715 -0.0626 -0.1940  0.1110
  780POPS   C1A11511  18.298  17.055   6.905 -0.2260  0.1704 -0.0915
  780POPS   D2A11512  18.394  17.169   7.227 -0.0431 -0.0206 -0.0281
  780POPS   C3A11513  18.670  17.085   7.488 -0.2512 -0.2195  0.2224
  780POPS   C4A11514  19.095  16.999   7.354  0.1606 -0.1875  0.0520
  780POPS   C1B11515  18.419  16.197   6.887  0.2430  0.1860  0.3329
  780POPS   C2B11516  18.650  16.128   7.242 -0.1979  0.0110 -0.0733
  780POPS   C3B11517  18.986  16.140   7.554 -0.0433 -0.1430 -0.0022
  780POPS   C4B11518  19.116  16.372   7.799 -0.1747 -0.1699 -0.0652
  781POPS   CNO11519   5.033   7.695   4.994 -0.0218  0.0272 -0.1067
  781POPS   PO411520   4.737   7.347   4.895  0.2101  0.3532  0.0116
  781POPS   GL111521   4.866   7.244   5.268  0.0424 -0.1350  0.3812
  781POPS   GL211522   4.656   6.943   5.415 -0.0063 -0.2253 -0.2728
  781POPS   C1A11523   4.874   7.152   5.769 -0.2495  0.1276 -0.0010
  781POPS   D2A11524   5.083   6.911   6.050  0.1401  0.3792  0.0493
  781POPS   C3A11525   4.967   6.942   6.526 -0.0626  0.2288  0.0700
  781POPS   C4A11526   5.057   6.940   6.894  0.1920  0.2038 -0.3747
  781POPS   C1B11527   4.508   6.800   5.873  0.1945  0.1775  0.0585
  781POPS   C2B11528   4.519   6.628   6.314  0.0097  0.0343  0.1659
  781POPS   C3B11529   4.303   6.394   6.538  0.0880  0.4376 -0.1154
  781POPS   C4B11530   4.500   6.087   6.860 -0.2168 -0.0622  0.0911
  782POPS   CNO11531   5.571  13.330   5.276  0.0814  0.1559  0.0077
  782POPS   PO411532   5.408  13.574   5.726  0.5407 -0.1469 -0.0451
  782POPS   GL111533   5.501  13.721   6.200  0.0700 -0.0449  0.3408
  782POPS   GL211534   5.807  13.847   6.082 -0.2074  0.1229 -0.0704
  782POPS   C1A11535   5.460  13.725   6.556  0.1003 -0.0838 -0.0487
  782POPS   D2A11536   5.423  13.743   6.958  0.0730 -0.3635 -0.1320
  782POPS   C3A11537   5.573  13.902   7.334 -0.0498  0.0465 -0.2161
  782POPS   C4A11538   5.345  13.820   7.787 -0.0361 -0.3084  0.0108
  782POPS   C1B11539   5.877  14.070   6.356 -0.0783  0.2219 -0.0889
  782POPS   C2B11540   5.662  14.233   6.804  0.0600 -0.0341 -0.0605
  782POPS   C3B11541   5.573  14.583   6.962  0.3517  0.2584  0.0431
  782POPS   C4B11542   5.244  14.830   7.282 -0.1849 -0.0250  0.0344
  783POPS   CNO11543  10.332   0.524   5.285  0.0267 -0.0264  0.1487
  783POPS   PO411544  10.607   0.309   5.520  0.0762  0.0413 -0.2680
  783POPS   GL111545  10.271   0.323   5.827  0.0123  0.0633 -0.0221
  783POPS   GL211546  10.410   0.019   5.903 -0.2219 -0.0077  0.0891
  783POPS   C1A11547  10.302   0.391   6.205  0.1463 -0.0454 -0.0192
  783POPS   D2A11548  10.110   0.308   6.513  0.1244  0.1106 -0.0530
  783POPS   C3A11549  10.175   0.020   6.705 -0.0574 -0.1800 -0.1560
  783POPS   C4A11550   9.928  -0.443   6.882 -0.0545  0.0005 -0.2466
  783POPS   C1B11551  10.013  -0.035   6.085 -0.1899  0.0487  0.0368
  783POPS   C2B11552   9.811  -0.267   6.408 -0.1260 -0.1646  0.3412
  783POPS   C3B11553   9.337  -0.254   6.645  0.2075  0.2556  0.1037
  783POPS   C4B11554   9.414  -0.182   7.011  0.1559  0.3195  0.0992
  784POPS   CNO11555  10.446  18.496   5.346 -0.0930  0.1745 -0.0963
  784POPS   PO411556  10.688  18.756   5.466  0.0842  0.1316 -0.1331
  784POPS   GL111557  10.603  18.552   5.856  0.2098  0.1079 -0.0868
  784POPS   GL211558  10.869  18.871   5.951 -0.0570 -0.0002 -0.3461
  784POPS   C1A11559  10.525  18.284   6.043  0.0578  0.0773 -0.0526
  784POPS   D2A11560  10.361  17.961   5.779 -0.1026 -0.2017  0.1629
  784POPS   C3A11561  10.537  17.618   5.621  0.0504 -0.1344 -0.0313
  784POPS   C4A11562  10.739  17.316   5.561 -0.0083 -0.3460  0.1448
  784POPS   C1B11563  10.644  18.859   6.320 -0.0139  0.0775  0.1033
  784POPS   C2B11564  10.643  18.803   6.791  0.1635 -0.2905 -0.1385
  784POPS   C3B11565  10.639  18.748   7.206 -0.0095  0.0010 -0.0223
  784POPS   C4B11566  10.556  18.928   7.615  0.0706  0.1278  0.2943
  785POPS   CNO11567   8.446  14.235   4.948  0.3406  0.0603 -0.1086
  785POPS   PO411568   8.599  13.874   5.281  0.4426  0.0938  0.1823
  785POPS   GL111569   8.411  13.922   5.685 -0.1001 -0.1797 -0.1472
  785POPS   GL211570   8.752  13.667   5.861 -0.0329 -0.2110  0.0295
  785POPS   C1A11571   8.314  14.192   6.023 -0.2112 -0.2340  0.0651
  785POPS   D2A11572   8.416  14.158   6.465 -0.2147  0.1044  0.0807
  785POPS   C3A11573   8.419  14.026   6.946 -0.1232  0.4146 -0.1789
  785POPS   C4A11574   8.366  13.844   7.326  0.0052  0.0056 -0.0732
  785POPS   C1B11575   8.838  13.563   6.233 -0.0030  0.1486  0.2270
  785POPS   C2B11576   8.932  13.464   6.631  0.0739  0.4015  0.0305
  785POPS   C3B11577   9.022  13.415   7.077  0.1267  0.2594  0.1910
  785POPS   C4B11578   8.784  13.359   7.392 -0.2708  0.0743  0.0698
  786POPS   CNO11579  11.505   6.202   5.243 -0.0542 -0.2724  0.0241
  786POPS   PO411580  11.517   5.861   5.399 -0.1310 -0.1807  0.4720
  786POPS   GL111581  11.382   6.010   5.801  0.3510  0.1478  0.2342
  786POPS   GL211582  11.459   5.828   6.003  0.1177  0.0697 -0.0415
  786POPS   C1A11583  11.026   6.033   6.185 -0.1528  0.1498 -0.1193
  786POPS   D2A11584  10.820   5.855   6.547  0.1378  0.2345 -0.0352
  786POPS   C3A11585  11.027   5.876   6.958 -0.0994 -0.2913 -0.1025
  786POPS   C4A11586  11.295   5.659   7.256 -0.1186  0.3688 -0.0372
  786POPS   C1B11587  11.305   5.675   6.370  0.2159  0.1183  0.2020
  786POPS   C2B11588  11.356   5.509   6.757  0.1853  0.4573  0.1152
  786POPS   C3B11589  11.502   5.207   6.991 -0.2701 -0.2223 -0.0206
  786POPS   C4B11590  11.462   4.858   7.262 -0.0652  0.1857 -0.0762
  787POPS   CNO11591   1.354   6.618   5.560 -0.0643 -0.0002  0.1093
  787POPS   PO411592   1.108   6.977   5.641  0.1504  0.1111  0.0380
  787POPS   GL111593   0.966   6.612   5.972  0.4284  0.0465  0.0436
  787POPS   GL211594   0.566   6.530   6.118  0.1351  0.0222 -0.2179
  787POPS   C1A11595   1.232   6.523   6.333 -0.0398 -0.0979  0.2944
  787POPS   D2A11596   1.292   6.794   6.589 -0.0974  0.1137  0.3143
  787POPS   C3A11597   1.034   7.103   6.612 -0.0874  0.0604  0.4060
  787POPS   C4A11598   0.616   7.217   6.741  0.2983 -0.3356 -0.2324
  787POPS   C1B11599   0.762   6.608   6.556  0.1588  0.1203  0.2989
  787POPS   C2B11600   0.996   6.406   6.901  0.2277 -0.0469  0.0347
  787POPS   C3B11601   1.242   6.269   7.147  0.2619  0.0999  0.0449
  787POPS   C4B11602   1.412   5.828   7.253 -0.1560  0.0303 -0.2153
  788POPS   CNO11603   6.467   5.188   4.919 -0.2507  0.3086  0.0019
  788POPS   PO411604   6.566   5.443   5.059 -0.1165 -0.2882 -0.1769
  788POPS   GL111605   6.487   5.579   5.470 -0.2406 -0.2714 -0.0741
  788POPS   GL211606   6.468   5.337   5.585  0.1268 -0.0855 -0.1093
  788POPS   C1A11607   6.223   5.802   5.907  0.0604  0.2678  0.0262
  788POPS   D2A11608   5.993   6.058   6.231  0.0026  0.0461 -0.0523
  788POPS   C3A11609   6.210   6.287   6.560 -0.1605  0.1464 -0.2069
  788POPS   C4A11610   6.570   6.291   6.767 -0.2262  0.0893  0.1391
  788POPS   C1B11611   6.300   5.307   5.978 -0.2409  0.1073  0.1501
  788POPS   C2B11612   6.250   5.418   6.347  0.0570 -0.0631  0.2293
  788POPS   C3B11613   6.292   5.407   6.747  0.0820  0.1843 -0.2580
  788POPS   C4B11614   5.841   5.450   7.003 -0.1968  0.0289  0.2860
  789POPS   CNO11615   8.634  13.098   5.401  0.1774 -0.3961  0.4353
  789POPS   PO411616   9.013  13.084   5.508 -0.0944 -0.0039  0.0399
  789POPS   GL111617   9.151  13.349   5.866 -0.2074  0.2100 -0.1278
  789POPS   GL211618   9.249  13.710   5.965 -0.1494 -0.2286 -0.1672
  789POPS   C1A11619   9.201  13.135   6.286  0.0428 -0.0694  0.0411
  789POPS   D2A11620   9.483  13.079   6.668  0.0943  0.0140  0.0714
  789POPS   C3A11621   9.426  13.065   7.064 -0.3245 -0.0778 -0.1639
  789POPS   C4A11622   9.287  13.234   7.463 -0.2567  0.1869 -0.0631
  789POPS   C1B11623   9.342  13.662   6.309  0.2520 -0.2145  0.0236
  789POPS   C2B11624   9.456  13.611   6.724  0.0393  0.1792 -0.3005
  789POPS   C3B11625   9.402  13.680   7.165 -0.1100  0.0082 -0.3709
  789POPS   C4B11626   9.223  13.731   7.456  0.0497  0.1085 -0.0895
  790POPS   CNO11627   9.892   0.574   5.652  0.1072 -0.0359  0.0657
  790POPS   PO411628   9.581   0.878   5.491 -0.0405  0.1794  0.3196
  790POPS   GL111629   9.473   0.947   5.910  0.1385  0.0671 -0.2567
  790POPS   GL211630   9.323   0.709   6.057 -0.0106  0.1945  0.2639
  790POPS   C1A11631   9.450   1.114   6.355 -0.3144  0.1299 -0.1185
  790POPS   D2A11632   9.621   1.552   6.546 -0.2796 -0.1511  0.1736
  790POPS   C3A11633   9.721   1.493   6.885 -0.1416 -0.0252 -0.0014
  790POPS   C4A11634   9.448   1.414   7.245 -0.0494  0.0354 -0.1245
  790POPS   C1B11635   9.338   0.522   6.503  0.2394 -0.2442  0.1433
  790POPS   C2B11636   9.138   0.203   6.677 -0.2640 -0.1564 -0.0756
  790POPS   C3B11637   8.961  -0.007   7.003  0.1984 -0.1934  0.2161
  790POPS   C4B11638   8.822  -0.450   7.186  0.2287 -0.0740 -0.1834
  791POPS   CNO11639  16.747   5.863   5.716  0.1950 -0.3920 -0.3232
  791POPS   PO411640  17.179   5.755   5.919 -0.0021  0.3513  0.3743
  791POPS   GL111641  16.941   5.492   6.097  0.0213 -0.0212 -0.0476
  791POPS   GL211642  17.070   5.312   6.204  0.0798  0.2584  0.1011
  791POPS   C1A11643  16.625   5.785   6.393  0.0191  0.0475 -0.1386
  791POPS   D2A11644  16.718   6.015   6.733  0.3276 -0.1482 -0.0329
  791POPS   C3A11645  16.850   5.768   7.021 -0.2161  0.2151  0.1901
  791POPS   C4A11646  16.953   5.519   7.375  0.2893 -0.1173  0.0726
  791POPS   C1B11647  17.124   5.668   6.537 -0.0319 -0.1376  0.0197
  791POPS   C2B11648  17.292   5.763   6.902  0.1881  0.0857  0.1249
  791POPS   C3B11649  17.640   5.948   7.026  0.0145  0.2812  0.1750
  791POPS   C4B11650  17.898   6.235   7.336  0.1906 -0.1451  0.0626
  792POPS   CNO11651   8.623  18.757   5.151 -0.3041  0.1513 -0.0185
  792POPS   PO411652   8.723  19.018   5.360  0.1233  0.1949  0.1631
  792POPS   GL111653   9.037  19.012   5.690  0.2714 -0.1609 -0.0378
  792POPS   GL211654   8.802  18.924   5.927 -0.1729  0.0239 -0.3042
  792POPS   C1A11655   9.253  19.034   6.074 -0.0219  0.2003  0.1218
  792POPS   D2A11656   9.548  19.142   6.258 -0.0413 -0.1232 -0.0999
  792POPS   C3A11657   9.669  19.192   6.671  0.0006  0.1233 -0.0399
  792POPS   C4A11658   9.550  19.622   6.929  0.2992  0.1754  0.0207
  792POPS   C1B11659   8.617  18.962   6.388 -0.0596  0.3344 -0.0302
  792POPS   C2B11660   8.641  19.291   6.607  0.0318 -0.2252 -0.3597
  792POPS   C3B11661   8.559  19.419   7.088  0.0102  0.4521  0.2158
  792POPS   C4B11662   8.728  19.286   7.485 -0.2488 -0.0120  0.0942
  793POPS   CNO11663  13.218  18.415   5.314 -0.0417 -0.0695  0.0882
  793POPS   PO411664  13.411  18.123   5.583 -0.2042 -0.2244 -0.0322
  793POPS   GL111665  13.548  18.246   5.912 -0.2841  0.0454 -0.0438
  793POPS   GL211666  13.348  18.197   6.165 -0.0436 -0.2339  0.0371
  793POPS   C1A11667  13.892  18.581   6.152  0.0447 -0.1989 -0.1811
  793POPS   D2A11668  14.012  18.982   6.242  0.4262  0.0045 -0.0560
  793POPS   C3A11669  13.952  19.238   6.649  0.1670 -0.3132  0.0881
  793POPS   C4A11670  14.089  19.129   7.136 -0.2026 -0.0054 -0.0341
  793POPS   C1B11671  13.393  18.184   6.441 -0.0589  0.0318 -0.2508
  793POPS   C2B11672  13.542  17.991   6.853 -0.2302 -0.5221  0.3706
  793POPS   C3B11673  13.782  17.963   7.260 -0.1016  0.1298  0.1122
  793POPS   C4B11674  13.949  18.278   7.527 -0.0157 -0.0719 -0.0257
  794POPS   CNO11675  17.304  16.523   5.970  0.2397  0.1343 -0.1564
  794POPS   PO411676  16.899  16.442   5.921  0.0250  0.0355 -0.0520
  794POPS   GL111677  17.017  16.283   6.352  0.0947 -0.0439  0.0782
  794POPS   GL211678  16.942  15.961   6.433  0.0855  0.0013 -0.3987
  794POPS   C1A11679  17.278  16.283   6.725 -0.1244  0.1003  0.2540
  794POPS   D2A11680  17.434  16.497   7.206 -0.1762 -0.4070 -0.1739
  794POPS   C3A11681  17.722  16.553   7.312  0.1300 -0.3344  0.0938
  794POPS   C4A11682  18.061  16.234   7.258  0.1342  0.4267  0.0879
  794POPS   C1B11683  17.041  15.739   6.681  0.0727 -0.2463 -0.1727
  794POPS   C2B11684  16.981  15.291   6.835 -0.2314  0.0193 -0.2718
  794POPS   C3B11685  16.808  15.109   7.217  0.1729  0.2475 -0.1896
  794POPS   C4B11686  16.859  14.899   7.495 -0.0301  0.1610 -0.1725
  795POPS   CNO11687   6.923   5.801   5.267 -0.0983 -0.5430 -0.1292
  795POPS   PO411688   6.815   6.248   5.398  0.3737 -0.0508  0.1265
  795POPS   GL111689   6.957   6.222   5.931  0.2739  0.0002  0.0989
  795POPS   GL211690   7.244   6.176   6.025  0.1291  0.3341  0.1865
  795POPS   C1A11691   6.985   6.409   6.356  0.2131 -0.1448 -0.0630
  795POPS   D2A11692   6.944   6.607   6.774  0.1878 -0.0023 -0.1994
  795POPS   C3A11693   7.300   6.928   6.922 -0.3252 -0.1317  0.0519
  795POPS   C4A11694   7.638   7.180   7.020  0.0297  0.0575 -0.0722
  795POPS   C1B11695   7.041   5.869   6.317  0.0840 -0.2249  0.1629
  795POPS   C2B11696   6.936   5.858   6.625 -0.2673 -0.1609 -0.1636
  795POPS   C3B11697   6.976   5.603   6.938 -0.1829 -0.0897  0.2763
  795POPS   C4B11698   7.127   5.260   7.149 -0.0407  0.0303 -0.3047
  796POPS   CNO11699   0.008  12.367   5.681 -0.0391  0.0449 -0.1305
  796POPS   PO411700  -0.394  12.512   5.685  0.2236 -0.1769  0.1318
  796POPS   GL111701  -0.590  12.728   5.989 -0.4672 -0.0547  0.1781
  796POPS   GL211702  -0.461  13.037   6.008  0.0701  0.3850 -0.3001
  796POPS   C1A11703  -0.638  12.789   6.481 -0.0882  0.0971  0.1017
  796POPS   D2A11704  -0.496  12.744   6.981 -0.0273  0.0945  0.1321
  796POPS   C3A11705  -0.653  12.484   7.223 -0.1734 -0.2793  0.0413
  796POPS   C4A11706  -0.510  12.154   7.544 -0.1181  0.0370  0.1769
  796POPS   C1B11707  -0.166  13.070   6.366  0.0783 -0.0227 -0.1409
  796POPS   C2B11708  -0.207  13.105   6.786  0.3173  0.1220 -0.2431
  796POPS   C3B11709  -0.314  13.176   7.174  0.1286 -0.1848  0.0978
  796POPS   C4B11710  -0.675  13.069   7.350  0.2397 -0.0637  0.5592
  797POPS   CNO11711  18.114  14.982   5.783 -0.2498 -0.3783  0.2120
  797POPS   PO411712  18.002  15.419   5.656  0.3107 -0.1480 -0.1933
  797POPS   GL111713  18.110  15.349   6.116 -0.1053 -0.2186 -0.0144
  797POPS   GL211714  17.970  15.547   6.415 -0.0931 -0.0052  0.0841
  797POPS   C1A11715  18.222  15.052   6.385 -0.0012 -0.0032  0.0394
  797POPS   D2A11716  18.332  14.785   6.703 -0.3129  0.2139  0.2286
  797POPS   C3A11717  18.375  14.817   7.117  0.0903 -0.0661 -0.3189
  797POPS   C4A11718  18.479  14.920   7.479 -0.0841  0.0206  0.2746
  797POPS   C1B11719  18.202  15.343   6.788 -0.2380  0.3350  0.1342
  797POPS   C2B11720  18.200  15.327   7.302  0.0561 -0.0784  0.0882
  797POPS   C3B11721  18.306  15.317   7.809  0.2064  0.2631 -0.2303
  797POPS   C4B11722  18.408  15.597   8.118 -0.1579  0.1278 -0.0863
  798POPS   CNO11723  15.324   0.629   5.381  0.1138  0.3869  0.1278
  798POPS   PO411724  15.269   0.258   5.769  0.1429  0.2682  0.0993
  798POPS   GL111725  15.468   0.478   6.114 -0.0683 -0.1125 -0.1302
  798POPS   GL211726  15.496   0.132   6.260 -0.1333  0.0044 -0.1190
  798POPS   C1A11727  15.329   0.668   6.390  0.0933 -0.0501  0.1634
  798POPS   D2A11728  14.997   0.860   6.578  0.0493 -0.2120 -0.1935
  798POPS   C3A11729  15.024   1.130   6.975 -0.1169  0.0283  0.0572
  798POPS   C4A11730  14.886   1.500   7.085  0.1522 -0.0224  0.1265
  798POPS   C1B11731  15.361   0.280   6.702 -0.1772  0.1411  0.0810
  798POPS   C2B11732  15.364   0.706   6.891 -0.4266 -0.0070  0.2549
  798POPS   C3B11733  15.400   0.890   7.263 -0.0387 -0.2304  0.1708
  798POPS   C4B11734  15.047   1.058   7.461  0.1489 -0.2584 -0.1323
  799POPS   CNO11735  10.433   6.743   5.399 -0.3100 -0.2940  0.0056
  799POPS   PO411736  10.147   6.430   5.305 -0.1468 -0.2790 -0.1169
  799POPS   GL111737  10.086   6.685   5.728 -0.0146  0.0097 -0.1486
  799POPS   GL211738  10.158   6.932   5.940  0.0587 -0.1753 -0.0381
  799POPS   C1A11739   9.879   6.503   5.967  0.5166 -0.0402 -0.2422
  799POPS   D2A11740   9.887   6.369   6.409  0.1292  0.1410  0.1924
  799POPS   C3A11741   9.614   6.590   6.616  0.1187  0.1394  0.2108
  799POPS   C4A11742   9.236   6.532   6.793 -0.0712  0.1127 -0.0640
  799POPS   C1B11743  10.053   6.861   6.406 -0.0655 -0.0052 -0.2098
  799POPS   C2B11744  10.151   6.852   6.804  0.0896 -0.0651  0.2341
  799POPS   C3B11745   9.844   6.901   7.019  0.0020 -0.0049 -0.2817
  799POPS   C4B11746   9.658   7.084   7.346 -0.1042 -0.1860 -0.0431
  800POPS   CNO11747   8.296   6.544   5.453 -0.0725  0.0761 -0.0812
  800POPS   PO411748   7.847   6.302   5.307 -0.1744  0.3012  0.0851
  800POPS   GL111749   7.690   6.527   5.628  0.1282 -0.0771  0.1476
  800POPS   GL211750   7.846   6.535   5.810  0.1263  0.5802  0.0966
  800POPS   C1A11751   7.325   6.690   5.953 -0.1829  0.2994  0.2702
  800POPS   D2A11752   7.206   6.887   6.392  0.0105  0.0230  0.1501
  800POPS   C3A11753   7.304   7.281   6.557  0.2281 -0.1328  0.2458
  800POPS   C4A11754   7.231   7.577   6.936 -0.3556  0.1798  0.1221
  800POPS   C1B11755   8.012   6.540   6.190 -0.2576 -0.2007  0.0797
  800POPS   C2B11756   8.316   6.500   6.508  0.0443 -0.0392  0.0697
  800POPS   C3B11757   8.699   6.601   6.795  0.0528  0.0512 -0.0836
  800POPS   C4B11758   8.791   6.770   7.221  0.4176  0.1621  0.0439
  801POPS   CNO11759  18.207  18.177   5.557  0.0461  0.4987 -0.0901
  801POPS   PO411760  18.491  18.485   5.411  0.3560 -0.3363 -0.0901
  801POPS   GL111761  18.429  18.543   5.974  0.2232  0.2113  0.3991
  801POPS   GL211762  18.682  18.604   6.106 -0.0070  0.0140  0.0227
  801POPS   C1A11763  18.213  18.592   6.291  0.1771  0.1451 -0.3283
  801POPS   D2A11764  18.168  18.613   6.705 -0.1425  0.1470 -0.2495
  801POPS   C3A11765  18.391  18.961   7.030 -0.1633 -0.0854  0.0420
  801POPS   C4A11766  18.731  19.322   6.961  0.1385 -0.2277 -0.1378
  801POPS   C1B11767  18.657  18.526   6.536  0.0224 -0.1818  0.0302
  801POPS   C2B11768  18.563  18.456   7.005  0.1802  0.0330  0.1617
  801POPS   C3B11769  18.549  18.685   7.434  0.1959 -0.4156 -0.4221
  801POPS   C4B11770  18.917  18.636   7.810  0.1501 -0.1955  0.2753
  802POPS   CNO11771   7.180   1.422   5.075  0.0275  0.0398  0.1962
  802POPS   PO411772   7.266   1.162   5.407 -0.0190  0.0588 -0.1366
  802POPS   GL111773   7.009   1.088   5.765  0.3403  0.0508  0.1038
  802POPS   GL211774   6.938   1.324   5.939 -0.1871 -0.1471 -0.1733
  802POPS   C1A11775   7.076   0.793   6.070  0.2973 -0.0421  0.2137
  802POPS   D2A11776   6.928   0.729   6.560  0.2066 -0.0860  0.1083
  802POPS   C3A11777   6.683   0.587   6.865  0.0418 -0.1494 -0.2248
  802POPS   C4A11778   6.391   0.765   7.062 -0.2457 -0.0990 -0.2019
  802POPS   C1B11779   6.889   1.192   6.332  0.0977  0.1334 -0.3499
  802POPS   C2B11780   6.876   1.196   6.738  0.2054  0.1388  0.0857
  802POPS   C3B11781   6.792   1.316   7.164  0.2870  0.2003  0.0447
  802POPS   C4B11782   6.689   1.015   7.431  0.0256  0.0953 -0.1427
  803POPS   CNO11783   8.750  17.732   5.148  0.0379  0.0383  0.3891
  803POPS   PO411784   8.358  17.727   5.406  0.3088 -0.2683 -0.0648
  803POPS   GL111785   8.140  17.822   5.814  0.2098  0.2770 -0.1068
  803POPS   GL211786   7.966  17.631   5.888 -0.1855  0.0524  0.1481
  803POPS   C1A11787   8.102  18.158   6.045  0.0734 -0.0760 -0.1691
  803POPS   D2A11788   8.071  18.320   6.567 -0.0722  0.2290  0.2595
  803POPS   C3A11789   8.276  18.694   6.640 -0.3655  0.0531 -0.3059
  803POPS   C4A11790   8.360  18.833   6.982  0.3882  0.1562 -0.0574
  803POPS   C1B11791   8.293  17.367   5.971 -0.1055 -0.2255  0.0963
  803POPS   C2B11792   8.408  16.924   5.915  0.6494  0.0147 -0.2126
  803POPS   C3B11793   8.568  16.528   6.114  0.1575  0.0817 -0.2344
  803POPS   C4B11794   8.956  16.462   6.142  0.0411  0.1076 -0.3479
  804POPS   CNO11795  17.922   9.043   5.168  0.0969 -0.2140  0.0358
  804POPS   PO411796  17.963   8.962   5.573  0.1487  0.0340  0.1979
  804POPS   GL111797  17.859   9.076   5.911  0.0004  0.0998  0.0315
  804POPS   GL211798  18.135   9.360   5.947  0.1426 -0.2865 -0.1251
  804POPS   C1A11799  18.149   8.915   6.203 -0.1468  0.2161  0.1345
  804POPS   D2A11800  18.582   8.919   6.382 -0.1992 -0.1941 -0.0749
  804POPS   C3A11801  18.766   8.753   6.740 -0.1985  0.0628 -0.0206
  804POPS   C4A11802  18.769   8.640   7.213 -0.1453  0.1497 -0.0356
  804POPS   C1B11803  18.177   9.408   6.462  0.0842 -0.0200  0.1438
  804POPS   C2B11804  18.315   9.067   6.798  0.0434  0.2554  0.2071
  804POPS   C3B11805  18.492   9.078   7.137 -0.0550 -0.0915 -0.2797
  804POPS   C4B11806  18.547   8.924   7.593  0.1237  0.1731 -0.1890
  805POPS   CNO11807   4.312   5.013   4.943 -0.0151  0.1750 -0.0508
  805POPS   PO411808   4.281   5.139   5.199  0.1651 -0.0693  0.0395
  805POPS   GL111809   4.206   5.242   5.659 -0.0901  0.2712  0.1430
  805POPS   GL211810   4.431   5.291   5.781  0.2088 -0.1751 -0.1520
  805POPS   C1A11811   3.878   5.290   5.920  0.2225  0.0780  0.2725
  805POPS   D2A11812   3.586   5.534   6.133 -0.0762 -0.1698  0.2551
  805POPS   C3A11813   3.128   5.526   6.205  0.2133  0.2641  0.0048
  805POPS   C4A11814   2.841   5.661   6.425 -0.2832  0.0067 -0.2293
  805POPS   C1B11815   4.278   5.270   6.225  0.0401 -0.0533 -0.2336
  805POPS   C2B11816   4.350   5.469   6.574  0.2449 -0.1194 -0.2512
  805POPS   C3B11817   4.304   5.607   6.987 -0.0832  0.1392 -0.0174
  805POPS   C4B11818   4.498   5.738   7.384 -0.2063 -0.0822  0.0789
  806POPS   CNO11819   7.637   9.449   4.888  0.2088 -0.0520  0.0336
  806POPS   PO411820   7.758   9.865   5.155  0.1444 -0.0527  0.0151
  806POPS   GL111821   7.694   9.882   5.549  0.1906 -0.0677 -0.0925
  806POPS   GL211822   7.493  10.086   5.618 -0.1125  0.2651  0.1604
  806POPS   C1A11823   7.960   9.931   5.859 -0.2099 -0.0104 -0.1032
  806POPS   D2A11824   8.097   9.798   6.305 -0.0378 -0.2890  0.0114
  806POPS   C3A11825   7.946   9.456   6.427  0.0209 -0.1299  0.2773
  806POPS   C4A11826   8.108   9.061   6.252 -0.0782  0.0197  0.0120
  806POPS   C1B11827   7.545  10.195   6.092 -0.1632 -0.1331 -0.0474
  806POPS   C2B11828   7.632  10.339   6.542 -0.1016  0.1323 -0.1900
  806POPS   C3B11829   7.506  10.389   6.968 -0.0516  0.0256  0.0621
  806POPS   C4B11830   7.723  10.310   7.375  0.1044  0.1679  0.2669
  807POPS   CNO11831  16.656  13.382   5.616  0.2014 -0.2771  0.1060
  807POPS   PO411832  16.206  13.268   5.504  0.0205  0.4442 -0.1713
  807POPS   GL111833  16.233  13.551   5.977 -0.1072 -0.0754 -0.1602
  807POPS   GL211834  16.513  13.429   6.182  0.4420  0.2454 -0.0977
  807POPS   C1A11835  16.078  13.812   6.268  0.1880  0.0259  0.1637
  807POPS   D2A11836  15.766  13.858   6.516 -0.4234  0.0829 -0.0465
  807POPS   C3A11837  15.544  13.680   6.906 -0.2223  0.1215  0.2279
  807POPS   C4A11838  15.193  13.547   6.945  0.1712  0.2716 -0.0000
  807POPS   C1B11839  16.537  13.385   6.625  0.0081 -0.0901 -0.2421
  807POPS   C2B11840  16.658  13.078   6.953  0.0209  0.0318  0.1275
  807POPS   C3B11841  16.552  13.082   7.420  0.2531  0.3656  0.0242
  807POPS   C4B11842  16.396  12.925   7.794 -0.1942 -0.0486  0.0269
  808POPS   CNO11843   7.492  17.827   5.053  0.1756 -0.0165 -0.1798
  808POPS   PO411844   7.279  17.726   5.369 -0.0816 -0.0670  0.0834
  808POPS   GL111845   7.263  17.871   5.690  0.4628 -0.1505  0.1300
  808POPS   GL211846   6.851  18.000   5.735  0.0720 -0.1063  0.2379
  808POPS   C1A11847   7.277  17.994   6.208 -0.3985  0.0279  0.1044
  808POPS   D2A11848   7.593  18.143   6.454 -0.1583  0.3571  0.1061
  808POPS   C3A11849   7.560  18.008   6.900 -0.0392  0.2023 -0.1070
  808POPS   C4A11850   7.857  17.823   7.143  0.0860 -0.0452 -0.0146
  808POPS   C1B11851   6.882  18.275   6.046  0.4712  0.0591  0.0384
  808POPS   C2B11852   6.693  18.213   6.532 -0.2919  0.0412 -0.0877
  808POPS   C3B11853   6.525  18.366   6.965  0.0512 -0.2631 -0.1530
  808POPS   C4B11854   6.326  18.221   7.381  0.0798 -0.2350  0.0500
  809POPS   CNO11855   0.647  18.360   5.439 -0.0111  0.2626  0.2424
  809POPS   PO411856   0.965  18.413   5.711 -0.1433 -0.0611  0.0921
  809POPS   GL111857   0.951  18.383   6.124 -0.3203  0.3585  0.2014
  809POPS   GL211858   1.171  18.082   6.141  0.1426 -0.4812  0.3625
  809POPS   C1A11859   1.038  18.401   6.548 -0.1388 -0.4062  0.2726
  809POPS   D2A11860   1.071  18.635   6.894 -0.1734 -0.1366  0.1233
  809POPS   C3A11861   0.872  18.761   7.388 -0.1149  0.1784  0.0058
  809POPS   C4A11862   0.902  18.570   7.780 -0.0423  0.2809  0.0331
  809POPS   C1B11863   0.772  18.012   6.446 -0.2317  0.0938  0.0694
  809POPS   C2B11864   0.492  17.889   6.712  0.3951 -0.0241 -0.2708
  809POPS   C3B11865   0.379  17.961   7.096  0.5202  0.0035  0.3725
  809POPS   C4B11866   0.512  17.805   7.500 -0.2280  0.1123 -0.0184
  810POPS   CNO11867  13.865  13.226   5.516  0.1056 -0.0394 -0.0830
  810POPS   PO411868  14.205  13.315   5.754 -0.1308  0.1959  0.2104
  810POPS   GL111869  14.521  13.299   6.067  0.0394  0.1519  0.1841
  810POPS   GL211870  14.640  13.049   5.940 -0.1976 -0.1752  0.3059
  810POPS   C1A11871  14.903  13.125   6.399  0.2325  0.1153  0.3160
  810POPS   D2A11872  14.947  13.061   6.843 -0.1519 -0.0387 -0.2074
  810POPS   C3A11873  15.099  13.105   7.246 -0.0327  0.0216  0.1476
  810POPS   C4A11874  15.290  12.848   7.498  0.1547  0.2997 -0.1202
  810POPS   C1B11875  14.753  12.695   6.276 -0.0244 -0.2601 -0.1723
  810POPS   C2B11876  14.557  12.764   6.714  0.0460  0.0898  0.2238
  810POPS   C3B11877  14.166  12.777   6.904 -0.0691  0.3803 -0.0938
  810POPS   C4B11878  14.022  13.159   7.015  0.0710  0.1021  0.2070
  811YOPS   CNO11879   4.713  12.556   5.931  0.0262 -0.1428  0.1829
  811YOPS   PO411880   4.875  12.809   5.698  0.0655  0.0018  0.1405
  811YOPS   GL111881   4.885  13.120   5.959 -0.2588 -0.1058 -0.0622
  811YOPS   GL211882   5.293  13.233   6.101  0.2868 -0.2823  0.1621
  811YOPS   C1A11883   4.968  13.047   6.404 -0.1114 -0.0254  0.0191
  811YOPS   D2A11884   5.098  13.111   6.806  0.2637  0.0530  0.2667
  811YOPS   C3A11885   5.345  13.125   7.096  0.0252  0.0589 -0.0596
  811YOPS   C4A11886   5.352  13.392   7.474  0.1841 -0.1163 -0.0123
  811YOPS   C1B11887   5.492  13.205   6.482 -0.1476  0.3191  0.0315
  811YOPS   C2B11888   5.693  13.278   6.812  0.0963 -0.0420  0.1037
  811YOPS   D3B11889   5.762  13.387   7.245  0.3335  0.0395 -0.0041
  811YOPS   C4B11890   6.077  13.366   7.360 -0.1546  0.1068 -0.0569
  812YOPS   CNO11891  18.015   8.562   5.874 -0.0180  0.2194  0.3592
  812YOPS   PO411892  17.754   8.296   5.798  0.2581  0.3375  0.0786
  812YOPS   GL111893  17.744   8.215   6.261  0.0357  0.1729 -0.1348
  812YOPS   GL211894  17.516   8.018   6.391  0.1595 -0.0950  0.1180
  812YOPS   C1A11895  17.946   8.124   6.639  0.2300 -0.3138  0.1077
  812YOPS   D2A11896  17.881   8.286   7.027 -0.0646 -0.1111  0.0634
  812YOPS   C3A11897  17.623   8.326   7.384  0.4081 -0.0290  0.0315
  812YOPS   C4A11898  17.571   8.569   7.820  0.2402  0.1315 -0.0971
  812YOPS   C1B11899  17.370   8.266   6.651  0.2161  0.1229 -0.0046
  812YOPS   C2B11900  17.387   8.556   6.979  0.0864 -0.2090 -0.3575
  812YOPS   D3B11901  17.204   8.472   7.289 -0.1925  0.0627  0.1093
  812YOPS   C4B11902  16.875   8.311   7.206 -0.0163 -0.0960 -0.0296
  813YOPS   CNO11903   5.173  16.815   4.949  0.2020  0.0943 -0.3058
  813YOPS   PO411904   5.378  16.601   5.283  0.0282  0.0877  0.0431
  813YOPS   GL111905   5.155  16.381   5.652 -0.1331 -0.0244 -0.2063
  813YOPS   GL211906   5.285  16.029   5.711 -0.1089 -0.0538  0.0440
  813YOPS   C1A11907   5.108  16.337   6.118 -0.0715 -0.1979 -0.2749
  813YOPS   D2A11908   5.091  16.676   6.431  0.0549  0.2457  0.0430
  813YOPS   C3A11909   5.151  16.554   6.780  0.2000 -0.0102 -0.2608
  813YOPS   C4A11910   4.811  16.753   7.074 -0.3788  0.1134 -0.1378
  813YOPS   C1B11911   5.228  15.888   6.208 -0.1561  0.2928  0.0505
  813YOPS   C2B11912   5.081  16.062   6.605 -0.0647  0.0038  0.0756
  813YOPS   D3B11913   4.868  16.182   6.975 -0.2466  0.3206 -0.0653
  813YOPS   C4B11914   4.615  15.865   7.171  0.2643 -0.1555  0.1092
  814YOPS   CNO11915   2.040   7.596   5.779  0.0951 -0.1749 -0.0553
  814YOPS   PO411916   2.307   7.757   5.443 -0.0058 -0.5970 -0.1487
  814YOPS   GL111917   2.546   7.407   5.699  0.0427 -0.2343 -0.1981
  814YOPS   GL211918   2.863   7.266   5.700  0.1794 -0.0573 -0.2230
  814YOPS   C1A11919   2.514   7.466   6.089  0.2011 -0.0895 -0.1162
  814YOPS   D2A11920   2.137   7.612   6.291  0.0219  0.2920  0.0186
  814YOPS   C3A11921   2.045   7.397   6.689  0.6262 -0.0175  0.2273
  814YOPS   C4A11922   1.847   7.539   7.152  0.3693 -0.1141 -0.0312
  814YOPS   C1B11923   3.068   7.204   6.055  0.0735  0.0216  0.2219
  814YOPS   C2B11924   3.138   7.252   6.547 -0.0132  0.1582  0.2366
  814YOPS   D3B11925   3.277   6.850   6.797  0.2501 -0.3859  0.1254
  814YOPS   C4B11926   3.332   6.772   7.160  0.0536 -0.1236 -0.0982
  815YOPS   CNO11927  17.989   2.489   5.350  0.0586  0.2359 -0.0497
  815YOPS   PO411928  18.019   2.595   5.703  0.0537  0.0959 -0.1566
  815YOPS   GL111929  17.958   2.403   6.098 -0.2972 -0.1434 -0.3645
  815YOPS   GL211930  17.771   2.511   6.217 -0.0363  0.1184 -0.0892
  815YOPS   C1A11931  18.270   2.448   6.427  0.2814 -0.4763 -0.4470
  815YOPS   D2A11932  18.150   2.584   6.902 -0.0834 -0.1484 -0.0365
  815YOPS   C3A11933  18.371   2.589   7.201  0.0695  0.1132 -0.2983
  815YOPS   C4A11934  18.508   2.226   7.160 -0.0008 -0.2641 -0.1563
  815YOPS   C1B11935  17.640   2.555   6.609 -0.3371 -0.1659  0.0156
  815YOPS   C2B11936  17.662   2.634   7.064 -0.0753  0.2931  0.1597
  815YOPS   D3B11937  17.941   2.322   7.441  0.1532  0.1857 -0.1956
  815YOPS   C4B11938  18.323   2.398   7.665 -0.3104 -0.0624 -0.1949
  816YOPS   CNO11939   1.443   8.839   5.227  0.1607 -0.0601  0.0574
  816YOPS   PO411940   1.568   8.778   5.675 -0.0032 -0.0259  0.4219
  816YOPS   GL111941   1.449   8.838   6.143 -0.0728  0.1774  0.1255
  816YOPS   GL211942   1.264   8.633   6.273 -0.0484  0.1698 -0.1811
  816YOPS   C1A11943   1.535   8.873   6.581 -0.1113  0.2105  0.1481
  816YOPS   D2A11944   1.415   8.761   6.913  0.2122 -0.0223 -0.0202
  816YOPS   C3A11945   1.056   8.713   7.144 -0.1299 -0.0341 -0.0712
  816YOPS   C4A11946   1.001   8.259   7.422 -0.0390 -0.0876 -0.1670
  816YOPS   C1B11947   1.070   8.355   6.589  0.2219 -0.2963 -0.2486
  816YOPS   C2B11948   1.055   8.062   6.804  0.0666  0.0795 -0.1353
  816YOPS   D3B11949   0.669   7.706   6.890 -0.0443 -0.3171 -0.1919
  816YOPS   C4B11950   0.800   7.378   7.199  0.0182 -0.1716 -0.1163
  817YOPS   CNO11951   7.053   3.754   5.508 -0.2771 -0.0157 -0.2828
  817YOPS   PO411952   7.054   3.565   5.942  0.0691 -0.2602 -0.0716
  817YOPS   GL111953   7.118   3.686   6.357  0.0948  0.1320  0.0924
  817YOPS   GL211954   7.399   3.680   6.265  0.3248  0.3145  0.1004
  817YOPS   C1A11955   7.326   3.702   6.728  0.4269  0.2202  0.0698
  817YOPS   D2A11956   7.438   3.316   6.930  0.1933  0.3847  0.0630
  817YOPS   C3A11957   7.764   3.020   7.124 -0.0489 -0.0244  0.1159
  817YOPS   C4A11958   7.616   2.871   7.493  0.1776 -0.1803 -0.0477
  817YOPS   C1B11959   7.767   3.642   6.510  0.0366 -0.2663  0.0859
  817YOPS   C2B11960   7.995   3.267   6.707  0.0459 -0.2330  0.1785
  817YOPS   D3B11961   8.306   3.087   6.964  0.0381  0.0162 -0.0966
  817YOPS   C4B11962   8.224   3.037   7.375  0.0104 -0.0379 -0.0840
  818YOPS   CNO11963   6.138   9.764   5.184 -0.1136  0.0037 -0.0770
  818YOPS   PO411964   5.905   9.491   5.295  0.0980  0.3113  0.2171
  818YOPS   GL111965   5.827   9.205   5.697 -0.2460  0.0343 -0.2596
  818YOPS   GL211966   5.878   8.947   5.849  0.1012  0.0809 -0.0247
  818YOPS   C1A11967   5.656   9.271   6.096  0.1541  0.1983 -0.4111
  818YOPS   D2A11968   5.920   9.205   6.530 -0.2345  0.2483  0.0810
  818YOPS   C3A11969   6.119   9.123   6.901  0.1056  0.0279  0.0942
  818YOPS   C4A11970   6.397   9.419   7.077 -0.5321  0.1411 -0.1330
  818YOPS   C1B11971   5.952   8.812   6.270 -0.0607  0.0995 -0.0007
  818YOPS   C2B11972   6.146   8.530   6.587 -0.2785 -0.3069  0.0531
  818YOPS   D3B11973   6.190   8.636   7.056 -0.1605 -0.0580 -0.2839
  818YOPS   C4B11974   5.855   8.771   7.224 -0.3298 -0.0595  0.3749
  819YOPS   CNO11975   3.878  14.276   5.073 -0.0755  0.1005  0.1684
  819YOPS   PO411976   4.054  14.276   5.512  0.1008  0.0214  0.0747
  819YOPS   GL111977   4.118  14.221   6.025  0.1348 -0.2214  0.1502
  819YOPS   GL211978   3.839  14.238   6.278 -0.2155 -0.0315 -0.3397
  819YOPS   C1A11979   4.389  14.071   6.344  0.1522 -0.5176  0.2418
  819YOPS   D2A11980   4.539  14.041   6.686 -0.0433 -0.0708 -0.0613
  819YOPS   C3A11981   4.741  14.098   7.121  0.1570  0.1229  0.0572
  819YOPS   C4A11982   5.057  13.782   7.307 -0.1692  0.3310 -0.0718
  819YOPS   C1B11983   4.024  14.350   6.648 -0.2113 -0.0066  0.1472
  819YOPS   C2B11984   3.921  14.051   7.052 -0.0440 -0.0567 -0.0305
  819YOPS   D3B11985   4.046  13.889   7.521  0.1088 -0.1747  0.2350
  819YOPS   C4B11986   4.453  13.876   7.498 -0.0605  0.2936 -0.2024
  820YOPS   CNO11987   2.654   4.808   4.863 -0.5866 -0.1715 -0.0664
  820YOPS   PO411988   2.874   4.866   5.264 -0.2652  0.1575  0.3013
  820YOPS   GL111989   2.644   4.919   5.640  0.0546 -0.1727  0.0582
  820YOPS   GL211990   2.823   4.770   5.888 -0.0101 -0.0881  0.2941
  820YOPS   C1A11991   2.339   4.840   5.978 -0.0745  0.0527  0.3352
  820YOPS   D2A11992   2.024   4.815   6.336  0.1372  0.0819  0.0362
  820YOPS   C3A11993   1.800   4.831   6.694  0.2708  0.1258  0.0307
  820YOPS   C4A11994   1.989   4.910   7.128 -0.0765  0.1088 -0.0967
  820YOPS   C1B11995   2.762   5.097   6.264  0.0374 -0.0488  0.1745
  820YOPS   C2B11996   2.752   5.188   6.598  0.2873  0.1844  0.0515
  820YOPS   D3B11997   2.559   5.083   7.073  0.0860 -0.0364  0.0839
  820YOPS   C4B11998   2.429   4.765   7.310  0.1307  0.3298 -0.1239
  821YOPS   CNO11999   6.736  12.547   5.887 -0.2826  0.0677 -0.2221
  821YOPS   PO412000   6.920  12.894   5.873 -0.0630 -0.0956 -0.0535
  821YOPS   GL112001   7.163  12.695   6.124 -0.0712  0.1427  0.1928
  821YOPS   GL212002   7.419  12.501   6.102  0.3641 -0.1931  0.3346
  821YOPS   C1A12003   7.213  12.711   6.529  0.0038 -0.1758  0.1814
  821YOPS   D2A12004   7.340  12.385   6.933  0.1074 -0.1001  0.0119
  821YOPS   C3A12005   7.433  12.197   7.245 -0.0539 -0.0198 -0.1694
  821YOPS   C4A12006   7.623  12.363   7.667  0.0781  0.2740  0.1577
  821YOPS   C1B12007   7.720  12.538   6.471  0.1715 -0.1486 -0.3436
  821YOPS   C2B12008   8.079  12.691   6.663  0.4434 -0.0184 -0.1549
  821YOPS   D3B12009   8.225  12.736   7.047 -0.1514  0.1530 -0.0420
  821YOPS   C4B12010   8.481  12.520   7.144 -0.0006  0.1895  0.0509
  822YOPS   CNO12011  10.901  14.209   5.633  0.1897  0.0645 -0.0964
  822YOPS   PO412012  10.579  13.954   5.549 -0.3109  0.2258 -0.0132
  822YOPS   GL112013  10.520  13.878   5.926  0.0050  0.0532 -0.1199
  822YOPS   GL212014  10.264  13.695   6.073  0.0301 -0.0187  0.2933
  822YOPS   C1A12015  10.742  13.817   6.343  0.1232 -0.1920  0.0948
  822YOPS   D2A12016  11.002  13.857   6.637 -0.2748  0.4703  0.2016
  822YOPS   C3A12017  11.005  13.640   7.069  0.0121 -0.0919 -0.1834
  822YOPS   C4A12018  10.888  13.574   7.565 -0.4777 -0.0078  0.1180
  822YOPS   C1B12019  10.266  13.567   6.470  0.0075  0.1861 -0.0463
  822YOPS   C2B12020  10.469  13.539   6.826  0.2864  0.0675 -0.0265
  822YOPS   D3B12021  10.327  13.527   7.294 -0.1649 -0.0890  0.0642
  822YOPS   C4B12022  10.365  13.804   7.535  0.3109 -0.2279 -0.2500
  823YOPS   CNO12023  18.689  10.145   5.481  0.2856  0.0108  0.1635
  823YOPS   PO412024  18.834  10.249   5.911 -0.1044 -0.1512 -0.1106
  823YOPS   GL112025  18.446  10.345   6.302  0.0736 -0.3544  0.0396
  823YOPS   GL212026  18.726  10.517   6.535  0.2329 -0.0067  0.1165
  823YOPS   C1A12027  18.225  10.451   6.615  0.2700 -0.0311 -0.3040
  823YOPS   D2A12028  18.186  10.674   6.967 -0.1134  0.2329  0.0906
  823YOPS   C3A12029  17.947  10.703   7.401 -0.0625  0.0170 -0.0700
  823YOPS   C4A12030  17.963  10.373   7.697  0.4113 -0.1318 -0.1273
  823YOPS   C1B12031  18.693  10.593   6.880  0.0812 -0.0634 -0.2249
  823YOPS   C2B12032  19.054  10.554   7.117  0.0856 -0.2790  0.1752
  823YOPS   D3B12033  19.470  10.509   7.052  0.1910  0.3343 -0.0958
  823YOPS   C4B12034  19.743  10.473   6.740 -0.2974 -0.1951  0.0507
  824YOPS   CNO12035  14.402  12.137   4.854  0.0589  0.2374 -0.1832
  824YOPS   PO412036  14.700  12.160   5.157 -0.4471 -0.0430 -0.1663
  824YOPS   GL112037  14.823  12.084   5.536 -0.0280 -0.3216 -0.1264
  824YOPS   GL212038  14.528  11.966   5.662 -0.2736  0.2057 -0.3923
  824YOPS   C1A12039  14.808  12.214   6.048 -0.0032 -0.2914  0.2624
  824YOPS   D2A12040  14.711  12.232   6.554 -0.0203 -0.0267  0.0945
  824YOPS   C3A12041  14.802  12.290   7.069  0.1802  0.0913  0.2582
  824YOPS   C4A12042  14.772  12.175   7.433 -0.1411 -0.1468 -0.0042
  824YOPS   C1B12043  14.355  11.847   6.179 -0.1360  0.1631 -0.0660
  824YOPS   C2B12044  14.085  11.656   6.483 -0.2095 -0.1973 -0.0015
  824YOPS   D3B12045  14.066  11.565   6.895 -0.5103  0.1626  0.0536
  824YOPS   C4B12046  13.789  11.648   7.103  0.0940 -0.0515 -0.1471
  825YOPS   CNO12047  10.225  10.292   5.313  0.0954 -0.1509  0.3325
  825YOPS   PO412048   9.734  10.286   5.315 -0.3962 -0.4121  0.1493
  825YOPS   GL112049   9.906  10.440   5.725  0.0605  0.0530 -0.1513
  825YOPS   GL212050   9.622  10.462   5.908  0.3444 -0.0889 -0.0366
  825YOPS   C1A12051  10.096  10.577   6.046  0.1184 -0.1689 -0.0672
  825YOPS   D2A12052  10.004  10.389   6.378 -0.0851  0.2727 -0.0070
  825YOPS   C3A12053  10.084  10.042   6.616 -0.2700  0.3019 -0.0158
  825YOPS   C4A12054  10.062   9.683   6.377 -0.2169 -0.0407  0.0422
  825YOPS   C1B12055   9.544  10.572   6.378 -0.0919  0.3090  0.2172
  825YOPS   C2B12056   9.590  10.504   6.750  0.1709 -0.0323  0.0466
  825YOPS   D3B12057   9.819  10.272   6.977 -0.1361 -0.2477 -0.0180
  825YOPS   C4B12058   9.846   9.924   7.007 -0.1082  0.1632 -0.0956
  826YOPS   CNO12059   3.619  14.562   5.622  0.0326  0.1452 -0.1899
  826YOPS   PO412060   3.131  14.319   5.748 -0.0847 -0.3511  0.1657
  826YOPS   GL112061   3.124  14.274   6.155 -0.3126 -0.1139 -0.3204
  826YOPS   GL212062   3.374  14.010   6.322 -0.1682  0.1831 -0.0373
  826YOPS   C1A12063   3.309  14.456   6.555 -0.1401  0.0272  0.3884
  826YOPS   D2A12064   3.510  14.613   6.933  0.1060 -0.0358  0.3239
  826YOPS   C3A12065   3.677  14.683   7.335 -0.0723  0.3959 -0.2814
  826YOPS   C4A12066   3.853  14.386   7.386 -0.1385  0.1785  0.0760
  826YOPS   C1B12067   3.451  13.926   6.678 -0.1560 -0.2389 -0.0561
  826YOPS   C2B12068   3.481  13.928   7.155 -0.1398 -0.1421  0.0941
  826YOPS   D3B12069   3.566  13.728   7.557 -0.2410  0.0096 -0.0473
  826YOPS   C4B12070   3.811  13.547   7.924  0.1262  0.2197 -0.0200
  827YOPS   CNO12071  11.930   7.223   5.404 -0.3724 -0.0208  0.1561
  827YOPS   PO412072  12.385   7.354   5.346 -0.0342 -0.0058  0.0115
  827YOPS   GL112073  12.545   7.223   5.678 -0.3093 -0.3314 -0.1238
  827YOPS   GL212074  12.226   7.233   5.838  0.0795  0.2373 -0.0330
  827YOPS   C1A12075  12.638   6.941   5.972  0.1999  0.0702 -0.1446
  827YOPS   D2A12076  12.866   6.700   6.141 -0.1859 -0.1433  0.1875
  827YOPS   C3A12077  13.237   6.640   6.373 -0.0595  0.1882 -0.0307
  827YOPS   C4A12078  13.440   6.392   6.566  0.0255 -0.1759 -0.2781
  827YOPS   C1B12079  11.965   7.389   6.236 -0.0318 -0.1074  0.2218
  827YOPS   C2B12080  11.955   7.376   6.544  0.0326  0.0322  0.4016
  827YOPS   D3B12081  11.999   7.277   6.919  0.1267 -0.0160 -0.3092
  827YOPS   C4B12082  11.622   7.171   7.139  0.0222 -0.1682 -0.1093
  828YOPS   CNO12083   5.241   7.400   4.582 -0.4157  0.2254 -0.0435
  828YOPS   PO412084   5.394   7.356   4.996 -0.1457  0.3344 -0.0867
  828YOPS   GL112085   5.323   7.505   5.376  0.0349 -0.0591  0.0547
  828YOPS   GL212086   5.011   7.660   5.604 -0.0998 -0.2028 -0.2528
  828YOPS   C1A12087   5.531   7.489   5.799 -0.1402 -0.1021 -0.0062
  828YOPS   D2A12088   5.408   7.343   6.197  0.2668 -0.0027 -0.2175
  828YOPS   C3A12089   5.407   7.434   6.612  0.0930 -0.1188 -0.0015
  828YOPS   C4A12090   5.100   7.693   6.861  0.3270 -0.1118 -0.0601
  828YOPS   C1B12091   5.034   7.547   6.037  0.0241  0.0168  0.1539
  828YOPS   C2B12092   4.837   7.615   6.470 -0.2516  0.0855 -0.0917
  828YOPS   D3B12093   4.799   7.347   6.790  0.1441 -0.2300 -0.2277
  828YOPS   C4B12094   4.736   7.469   7.238 -0.2289 -0.1195 -0.1122
  829YOPS   CNO12095   1.448   2.707   5.774  0.2932  0.1657 -0.0772
  829YOPS   PO412096   1.056   2.716   5.507 -0.0474  0.0030  0.0318
  829YOPS   GL112097   0.884   2.821   6.001  0.0913 -0.4285  0.0484
  829YOPS   GL212098   1.192   2.916   6.161 -0.1086  0.0163  0.2183
  829YOPS   C1A12099   0.786   2.509   6.239 -0.2598 -0.0336  0.0075
  829YOPS   D2A12100   0.822   2.131   6.246  0.1794  0.0768 -0.0375
  829YOPS   C3A12101   0.857   1.957   6.686 -0.1996  0.2418  0.4131
  829YOPS   C4A12102   1.076   2.251   6.939  0.1320  0.4528  0.1156
  829YOPS   C1B12103   1.010   2.936   6.554 -0.0970 -0.4517 -0.0683
  829YOPS   C2B12104   0.854   2.643   6.796  0.1078  0.0269 -0.1555
  829YOPS   D3B12105   0.571   2.318   6.923 -0.0827 -0.1354  0.1364
  829YOPS   C4B12106   0.656   2.013   7.207 -0.1828  0.2054 -0.0251
  830YOPS   CNO12107   4.681   6.759   4.961 -0.2150  0.2515  0.0333
  830YOPS   PO412108   4.429   6.411   5.098  0.0306  0.2135 -0.1283
  830YOPS   GL112109   4.235   6.606   5.491  0.1661  0.1769 -0.1022
  830YOPS   GL212110   3.899   6.340   5.476 -0.0411  0.0756  0.2252
  830YOPS   C1A12111   4.163   6.423   5.932 -0.0199  0.3467  0.0300
  830YOPS   D2A12112   3.933   6.215   6.319  0.2941  0.0117  0.4016
  830YOPS   C3A12113   4.008   5.743   6.452  0.0142 -0.0606 -0.0237
  830YOPS   C4A12114   3.874   5.461   6.738  0.2727  0.3593  0.0098
  830YOPS   C1B12115   3.587   6.358   5.795 -0.4836 -0.2461 -0.0139
  830YOPS   C2B12116   3.499   6.020   6.120 -0.2586 -0.2941 -0.1144
  830YOPS   D3B12117   3.503   5.824   6.589 -0.1382  0.0153  0.0937
  830YOPS   C4B12118   3.962   6.003   6.842 -0.0379  0.0443  0.1479
  831YOPS   CNO12119   4.804  10.473   5.257 -0.1045  0.0107  0.2864
  831YOPS   PO412120   4.429  10.693   5.217 -0.1412 -0.1242 -0.2574
  831YOPS   GL112121   4.471  10.719   5.647 -0.2284  0.0138 -0.1304
  831YOPS   GL212122   4.742  10.926   5.785 -0.1119  0.0088 -0.0524
  831YOPS   C1A12123   4.328  10.399   5.895 -0.0071  0.2070  0.0343
  831YOPS   D2A12124   4.056  10.031   6.066 -0.0144 -0.1221 -0.0693
  831YOPS   C3A12125   3.838   9.777   6.326  0.1130  0.5128 -0.0858
  831YOPS   C4A12126   3.686   9.885   6.762 -0.1655 -0.1676  0.2982
  831YOPS   C1B12127   4.602  10.744   6.148  0.1584 -0.0376  0.0511
  831YOPS   C2B12128   4.318  10.576   6.510 -0.3249 -0.4122  0.2602
  831YOPS   D3B12129   4.083  10.704   6.764  0.0885  0.1722 -0.1188
  831YOPS   C4B12130   4.106  11.053   6.700  0.0973  0.0553 -0.0935
  832YOPS   CNO12131   2.953   5.688   5.107  0.3707 -0.0172  0.0321
  832YOPS   PO412132   2.687   5.894   5.451 -0.0693  0.2749 -0.1612
  832YOPS   GL112133   2.858   6.165   5.752 -0.3399  0.0768 -0.0456
  832YOPS   GL212134   2.954   5.989   6.011  0.0152  0.1741  0.1506
  832YOPS   C1A12135   2.949   6.512   5.987 -0.0714 -0.0627  0.2978
  832YOPS   D2A12136   2.969   6.786   6.379  0.0575  0.0046  0.1887
  832YOPS   C3A12137   2.818   6.910   6.703  0.2244  0.1490  0.2490
  832YOPS   C4A12138   2.921   7.113   7.096  0.0587  0.1100  0.1410
  832YOPS   C1B12139   2.601   5.871   6.107  0.3189 -0.1789  0.3047
  832YOPS   C2B12140   2.165   5.809   6.057  0.0073 -0.0213  0.1876
  832YOPS   D3B12141   1.836   5.621   6.281  0.0917  0.2415  0.1735
  832YOPS   C4B12142   1.453   5.671   6.639 -0.0259 -0.4350 -0.4468
  833YOPS   CNO12143  17.972  12.760   5.290  0.1332 -0.4069  0.0301
  833YOPS   PO412144  17.937  13.180   5.428  0.1251  0.3147  0.2061
  833YOPS   GL112145  17.938  12.949   5.773 -0.0531 -0.0908 -0.1550
  833YOPS   GL212146  18.008  13.194   5.922  0.1264 -0.2168 -0.1093
  833YOPS   C1A12147  17.932  12.885   6.270  0.4206  0.4103 -0.2800
  833YOPS   D2A12148  17.788  12.855   6.711 -0.1701 -0.1208  0.2598
  833YOPS   C3A12149  17.927  12.764   7.078  0.0691  0.2047  0.0732
  833YOPS   C4A12150  17.873  12.330   7.278 -0.2760 -0.1956  0.1506
  833YOPS   C1B12151  17.927  13.462   6.278 -0.1735 -0.0376  0.2918
  833YOPS   C2B12152  17.976  13.753   6.505  0.0865  0.0164 -0.1887
  833YOPS   D3B12153  18.160  13.848   6.870  0.0385  0.0620 -0.0830
  833YOPS   C4B12154  18.430  14.347   6.951 -0.0351  0.0075  0.0412
  834YOPS   CNO12155   6.570  12.260   5.332  0.1430 -0.1001 -0.2186
  834YOPS   PO412156   6.823  12.154   5.631 -0.1151  0.1728  0.2222
  834YOPS   GL112157   6.894  12.090   6.048 -0.0723  0.0571 -0.1677
  834YOPS   GL212158   7.155  12.116   6.066 -0.3168 -0.1297 -0.1323
  834YOPS   C1A12159   6.881  11.910   6.370 -0.3594  0.0083  0.0208
  834YOPS   D2A12160   6.760  11.829   6.726  0.2220  0.0801 -0.0390
  834YOPS   C3A12161   6.701  11.688   7.121  0.3589  0.1164  0.1411
  834YOPS   C4A12162   7.035  11.690   7.468  0.0552 -0.1969  0.1798
  834YOPS   C1B12163   7.249  12.237   6.490  0.3081  0.3510 -0.0367
  834YOPS   C2B12164   7.207  11.898   6.858 -0.0226 -0.0056 -0.1111
  834YOPS   D3B12165   7.365  11.595   7.121 -0.1707  0.1920  0.1411
  834YOPS   C4B12166   7.635  11.777   7.483 -0.4207 -0.2684  0.2053
  835YOPS   CNO12167  11.843   4.455   4.901 -0.0370 -0.0716 -0.1087
  835YOPS   PO412168  12.054   4.256   5.261  0.2419  0.1144 -0.1309
  835YOPS   GL112169  12.152   4.031   5.610  0.2351 -0.2485  0.0679
  835YOPS   GL212170  11.851   4.087   5.685 -0.0825 -0.1753  0.0480
  835YOPS   C1A12171  12.156   3.841   5.998 -0.1869 -0.3464  0.2398
  835YOPS   D2A12172  12.169   3.812   6.407 -0.0227  0.0705  0.0596
  835YOPS   C3A12173  12.051   3.821   6.757 -0.0493 -0.3371 -0.2442
  835YOPS   C4A12174  12.278   3.814   6.997 -0.2402  0.2077  0.0868
  835YOPS   C1B12175  11.877   4.242   6.060  0.1703 -0.0729 -0.1075
  835YOPS   C2B12176  11.614   4.503   6.247 -0.0677  0.1444  0.0072
  835YOPS   D3B12177  11.290   4.665   6.307  0.0175  0.2982 -0.3229
  835YOPS   C4B12178  10.876   4.476   6.328  0.2432  0.2171 -0.0717
  836YOPS   CNO12179   8.633   5.399   4.838 -0.1866  0.2222  0.1102
  836YOPS   PO412180   8.603   5.778   5.085 -0.4492 -0.2260 -0.1537
  836YOPS   GL112181   8.599   6.131   5.464  0.4716 -0.0217  0.2998
  836YOPS   GL212182   8.309   6.021   5.641  0.0446  0.1462 -0.1310
  836YOPS   C1A12183   8.801   6.250   5.829  0.2120 -0.5403 -0.0547
  836YOPS   D2A12184   8.665   6.275   6.252 -0.1569  0.1449 -0.0228
  836YOPS   C3A12185   8.758   6.156   6.716  0.2937  0.1368  0.1270
  836YOPS   C4A12186   9.023   5.961   6.943  0.0383  0.1003 -0.0693
  836YOPS   C1B12187   8.175   6.111   6.026 -0.2743  0.3695  0.2984
  836YOPS   C2B12188   8.209   5.966   6.364 -0.0883 -0.0567 -0.1698
  836YOPS   D3B12189   8.270   5.918   6.820  0.0729  0.3244 -0.0055
  836YOPS   C4B12190   8.655   5.692   7.132  0.1185 -0.3399  0.2167
  837YOPS   CNO12191   7.560   5.256   5.059  0.3684  0.0910 -0.0976
  837YOPS   PO412192   7.375   5.449   5.409 -0.0191 -0.0493  0.1365
  837YOPS   GL112193   7.547   5.361   5.830  0.2731  0.1338  0.1509
  837YOPS   GL212194   7.420   5.075   5.991 -0.1099 -0.0402 -0.1574
  837YOPS   C1A12195   7.377   5.457   6.285 -0.0040 -0.3571 -0.0123
  837YOPS   D2A12196   7.370   5.406   6.723 -0.1511 -0.2345  0.0005
  837YOPS   C3A12197   7.680   5.219   7.029  0.2455  0.2068 -0.0200
  837YOPS   C4A12198   7.932   5.242   7.367 -0.2050  0.0859  0.1810
  837YOPS   C1B12199   7.386   4.979   6.476  0.1736 -0.2467 -0.0833
  837YOPS   C2B12200   7.275   4.918   6.833 -0.2940 -0.0405  0.1442
  837YOPS   D3B12201   6.973   4.639   7.051 -0.2318  0.1987 -0.0648
  837YOPS   C4B12202   6.773   4.757   7.379 -0.3275  0.2711 -0.0995
  838YOPS   CNO12203   1.794   6.439   5.190 -0.3550  0.0763  0.2406
  838YOPS   PO412204   1.694   6.130   5.349 -0.0193  0.0943  0.0634
  838YOPS   GL112205   1.876   6.326   5.710  0.1996  0.0571 -0.1833
  838YOPS   GL212206   1.882   6.637   5.633  0.1114  0.4853 -0.2256
  838YOPS   C1A12207   1.787   6.184   6.146 -0.2427 -0.0897 -0.1114
  838YOPS   D2A12208   1.973   6.127   6.490 -0.4426  0.2257 -0.1063
  838YOPS   C3A12209   2.322   6.022   6.516 -0.1225 -0.0598 -0.2072
  838YOPS   C4A12210   2.362   5.636   6.783  0.1719 -0.0064  0.1866
  838YOPS   C1B12211   1.728   6.707   6.102 -0.0636 -0.0754  0.1438
  838YOPS   C2B12212   1.702   6.548   6.507  0.2349  0.1166  0.0604
  838YOPS   D3B12213   1.781   6.574   6.987  0.1188 -0.1380 -0.3540
  838YOPS   C4B12214   1.953   6.988   7.245  0.2999  0.1687 -0.0311
  839YOPS   CNO12215  13.115   9.324   5.489  0.0370 -0.0894 -0.3471
  839YOPS   PO412216  12.717   9.461   5.634 -0.2317 -0.0424 -0.2124
  839YOPS   GL112217  12.522   9.713   5.968 -0.0433 -0.1426 -0.0731
  839YOPS   GL212218  12.225   9.728   5.955 -0.0358 -0.2757  0.5747
  839YOPS   C1A12219  12.425   9.922   6.356  0.2334 -0.0370  0.0815
  839YOPS   D2A12220  12.267  10.286   6.609  0.0373  0.1410  0.2041
  839YOPS   C3A12221  12.037  10.342   6.965 -0.1189  0.1097 -0.1985
  839YOPS   C4A12222  12.112  10.146   7.368 -0.0483 -0.2570 -0.1169
  839YOPS   C1B12223  12.428   9.412   6.314  0.0181  0.2424 -0.2695
  839YOPS   C2B12224  12.330   9.275   6.714  0.0796  0.0973 -0.0252
  839YOPS   D3B12225  12.109   9.437   7.015 -0.3097 -0.1567  0.2119
  839YOPS   C4B12226  12.322   9.619   7.359 -0.1742 -0.1811  0.0471
  840YOPS   CNO12227   5.092   0.925   5.638 -0.1727  0.0705  0.1164
  840YOPS   PO412228   5.463   1.183   5.665 -0.1945 -0.1971 -0.1245
  840YOPS   GL112229   5.735   1.228   5.921  0.1646  0.0210 -0.0924
  840YOPS   GL212230   5.975   1.459   5.824 -0.1286  0.3509 -0.0385
  840YOPS   C1A12231   5.806   1.191   6.438 -0.1498 -0.0899  0.0256
  840YOPS   D2A12232   5.733   1.508   6.820 -0.1449  0.1149  0.3717
  840YOPS   C3A12233   5.611   1.347   7.271 -0.3701  0.1843  0.1576
  840YOPS   C4A12234   5.580   1.050   7.464 -0.1267  0.3065 -0.0130
  840YOPS   C1B12235   6.071   1.469   6.203 -0.1754 -0.0515  0.1558
  840YOPS   C2B12236   6.202   1.571   6.533  0.0818 -0.0610 -0.3238
  840YOPS   D3B12237   6.132   1.778   6.839 -0.2515  0.1466  0.1602
  840YOPS   C4B12238   5.911   1.797   7.253 -0.0983  0.0461 -0.3795
  841POPE   NH312239  13.854   3.449   5.442 -0.1927 -0.1681  0.2006
  841POPE   PO412240  13.522   3.769   5.254 -0.2068 -0.0317  0.1697
  841POPE   GL112241  13.393   3.583   5.657 -0.2664 -0.2452 -0.2641
  841POPE   GL212242  13.157   3.644   5.872  0.3151 -0.2636  0.0202
  841POPE   C1A12243  13.618   3.505   6.093 -0.3046 -0.1081  0.0353
  841POPE   D2A12244  13.711   3.689   6.489  0.1962 -0.0206  0.0013
  841POPE   C3A12245  13.796   3.408   6.891 -0.0455 -0.0293 -0.2263
  841POPE   C4A12246  13.698   3.247   7.238 -0.1835  0.0952  0.0328
  841POPE   C1B12247  13.179   3.805   6.285 -0.0730 -0.1565 -0.0936
  841POPE   C2B12248  13.327   3.934   6.638  0.0938  0.0794 -0.2161
  841POPE   C3B12249  13.599   4.193   6.775 -0.1518  0.1964  0.1370
  841POPE   C4B12250  13.706   4.439   7.155 -0.0009  0.1329  0.3308
  842POPE   NH312251  18.074  11.472   5.476 -0.0441 -0.1078  0.3291
  842POPE   PO412252  18.224  11.036   5.449  0.0616 -0.0771  0.2320
  842POPE   GL112253  18.301  11.185   5.866 -0.0456 -0.0250  0.0702
  842POPE   GL212254  18.158  11.525   5.977  0.0066 -0.1532 -0.1782
  842POPE   C1A12255  18.532  11.296   6.260  0.0352  0.2263  0.2017
  842POPE   D2A12256  18.835  11.562   6.413  0.0506 -0.3110 -0.1288
  842POPE   C3A12257  18.784  11.696   6.799  0.1541 -0.2504 -0.0357
  842POPE   C4A12258  18.658  11.678   7.241  0.0052  0.4729 -0.0383
  842POPE   C1B12259  17.988  11.410   6.328 -0.0707  0.2571  0.1455
  842POPE   C2B12260  17.836  11.220   6.695  0.1860 -0.4158 -0.0172
  842POPE   C3B12261  17.844  11.050   7.096  0.0582  0.0243 -0.1482
  842POPE   C4B12262  17.591  11.046   7.434  0.1441  0.0206  0.2444
  843POPE   NH312263  13.679  14.548   5.248  0.1397 -0.1653  0.1938
  843POPE   PO412264  14.064  14.580   5.426 -0.0257 -0.0097  0.0978
  843POPE   GL112265  14.167  14.897   5.729  0.0146  0.1776  0.0460
  843POPE   GL212266  14.492  14.875   5.858 -0.3729  0.1304 -0.0528
  843POPE   C1A12267  14.082  14.885   6.193 -0.1136 -0.1460  0.1508
  843POPE   D2A12268  13.986  14.921   6.762  0.0177 -0.1834  0.1917
  843POPE   C3A12269  13.677  15.201   6.879 -0.2884 -0.0639  0.2835
  843POPE   C4A12270  13.643  15.442   6.661 -0.3848  0.1657 -0.0412
  843POPE   C1B12271  14.539  14.963   6.246  0.0409 -0.3775  0.0698
  843POPE   C2B12272  14.466  14.858   6.769  0.1099  0.1037  0.0858
  843POPE   C3B12273  14.308  14.690   7.135 -0.3100 -0.1019 -0.0271
  843POPE   C4B12274  14.297  14.396   7.493 -0.1203 -0.2396  0.3282
  844POPE   NH312275  17.039   5.362   5.630 -0.1396  0.0976  0.2292
  844POPE   PO412276  17.413   5.199   5.858  0.0213  0.2461  0.3274
  844POPE   GL112277  17.593   5.469   6.133 -0.1384  0.0300  0.2727
  844POPE   GL212278  17.503   5.661   6.219  0.2116  0.0242  0.0573
  844POPE   C1A12279  17.705   5.578   6.678 -0.0094 -0.1432 -0.3199
  844POPE   D2A12280  17.894   5.551   7.155  0.0408  0.1915 -0.1449
  844POPE   C3A12281  17.658   5.811   7.526 -0.5780 -0.0479 -0.1414
  844POPE   C4A12282  17.222   5.940   7.351  0.2167  0.0848  0.0758
  844POPE   C1B12283  17.568   6.056   6.492 -0.0395 -0.2470  0.2561
  844POPE   C2B12284  17.319   6.299   6.858 -0.0610  0.2260  0.0508
  844POPE   C3B12285  17.351   6.439   7.285 -0.0170  0.1915  0.1997
  844POPE   C4B12286  17.133   6.379   7.689  0.1351  0.2811  0.3291
  845POPE   NH312287  12.182   0.611   5.445 -0.1774 -0.2443  0.3073
  845POPE   PO412288  11.880   0.896   5.395  0.1719 -0.1361 -0.2230
  845POPE   GL112289  11.699   0.917   5.710  0.2899  0.0163 -0.2500
  845POPE   GL212290  11.481   1.208   5.740 -0.2497  0.0726 -0.1575
  845POPE   C1A12291  11.665   0.911   6.199 -0.3753 -0.0887 -0.1658
  845POPE   D2A12292  11.639   1.094   6.607  0.0585  0.1351 -0.4262
  845POPE   C3A12293  11.804   0.996   7.012  0.2629  0.2839 -0.0132
  845POPE   C4A12294  12.081   0.828   7.220  0.1023  0.0794  0.2213
  845POPE   C1B12295  11.414   1.360   6.137 -0.0498 -0.0215 -0.0822
  845POPE   C2B12296  11.235   1.357   6.525  0.1529 -0.1027  0.0475
  845POPE   C3B12297  11.318   1.212   7.028  0.1403  0.1174  0.2387
  845POPE   C4B12298  11.165   1.073   7.434  0.1607  0.2031 -0.2613
  846POPE   NH312299  16.250   0.460   5.759 -0.1086  0.1324  0.0893
  846POPE   PO412300  15.879   0.261   5.870  0.0597 -0.3988  0.1280
  846POPE   GL112301  16.004   0.637   6.121  0.0819 -0.3239  0.1086
  846POPE   GL212302  15.924   0.434   6.411 -0.1634  0.2160 -0.2826
  846POPE   C1A12303  16.083   1.103   6.184 -0.0605 -0.0329  0.0412
  846POPE   D2A12304  16.093   1.533   6.448  0.1266 -0.3174 -0.1665
  846POPE   C3A12305  15.825   1.669   6.566 -0.1238 -0.0880 -0.2979
  846POPE   C4A12306  15.793   1.829   6.955  0.2989  0.0352  0.1275
  846POPE   C1B12307  15.775   0.783   6.622 -0.0461 -0.0944  0.3148
  846POPE   C2B12308  15.992   1.163   6.766  0.1923  0.1726 -0.1755
  846POPE   C3B12309  16.118   1.457   7.005 -0.1607 -0.0295  0.2944
  846POPE   C4B12310  16.018   1.769   7.411 -0.3827  0.1568 -0.1375
  847POPE   NH312311  11.335  14.762   4.887  0.0806 -0.0230 -0.1985
  847POPE   PO412312  11.241  15.075   5.149  0.1605  0.1169  0.0356
  847POPE   GL112313  11.536  14.941   5.391 -0.1360  0.0564 -0.0817
  847POPE   GL212314  11.648  15.345   5.495 -0.3146  0.1538 -0.3938
  847POPE   C1A12315  11.669  14.675   5.738  0.0580  0.1090 -0.2032
  847POPE   D2A12316  12.162  14.655   5.958 -0.1070  0.3722  0.0764
  847POPE   C3A12317  12.223  14.387   6.247  0.0640  0.1993 -0.4191
  847POPE   C4A12318  11.891  14.393   6.669  0.0921 -0.1017  0.0590
  847POPE   C1B12319  11.642  15.152   5.885 -0.0071 -0.1443  0.2694
  847POPE   C2B12320  11.814  15.223   6.270  0.0211  0.2640 -0.0933
  847POPE   C3B12321  11.789  14.956   6.521  0.2729 -0.2292  0.0937
  847POPE   C4B12322  11.829  14.878   7.045  0.1469  0.2422 -0.1714
  848POPE   NH312323  11.521   6.476   4.842 -0.0734 -0.0246  0.1782
  848POPE   PO412324  11.160   6.625   5.133 -0.0794 -0.1600  0.0431
  848POPE   GL112325  11.361   6.632   5.657  0.1353 -0.1012  0.0839
  848POPE   GL212326  11.551   6.460   5.679  0.1670 -0.3661  0.0852
  848POPE   C1A12327  11.148   6.569   6.083  0.0931 -0.1644  0.2729
  848POPE   D2A12328  10.976   6.791   6.469 -0.1330 -0.4754 -0.0595
  848POPE   C3A12329  10.683   6.694   6.628  0.1577  0.0275 -0.2789
  848POPE   C4A12330  10.542   6.512   6.973  0.3194 -0.1356 -0.0962
  848POPE   C1B12331  11.581   6.339   6.137  0.0305 -0.0489 -0.3515
  848POPE   C2B12332  11.380   6.271   6.534 -0.0013  0.0465  0.1332
  848POPE   C3B12333  11.188   6.365   6.965  0.0756 -0.1925  0.1943
  848POPE   C4B12334  10.984   6.304   7.364 -0.2889 -0.0976  0.1493
  849POPE   NH312335  10.321  16.454   5.331  0.0405  0.0100 -0.1613
  849POPE   PO412336  10.457  16.236   5.606  0.2006 -0.1624 -0.2004
  849POPE   GL112337  10.705  16.226   5.914  0.2274 -0.2172  0.0238
  849POPE   GL212338  10.756  16.541   5.969  0.0001 -0.0116 -0.0436
  849POPE   C1A12339  10.723  16.175   6.344 -0.0589 -0.1580 -0.1280
  849POPE   D2A12340  10.783  15.887   6.778 -0.2449  0.0551  0.2088
  849POPE   C3A12341  10.986  15.986   7.203 -0.0185  0.1123 -0.2426
  849POPE   C4A12342  11.173  15.824   7.557 -0.0736 -0.1261  0.1280
  849POPE   C1B12343  10.924  16.619   6.312  0.1160 -0.2921  0.1260
  849POPE   C2B12344  11.019  16.807   6.843  0.2720 -0.0667 -0.1604
  849POPE   C3B12345  11.241  16.703   7.191 -0.0310  0.0738 -0.1586
  849POPE   C4B12346  11.592  16.998   7.402 -0.2517  0.2446  0.0213
  850POPE   NH312347  17.771   6.808   5.741 -0.0655  0.1720 -0.1215
  850POPE   PO412348  17.580   7.305   5.697 -0.0257  0.0424 -0.2800
  850POPE   GL112349  17.817   7.278   6.122 -0.3511 -0.0317 -0.0757
  850POPE   GL212350  17.520   7.053   6.259  0.0786 -0.1724  0.0920
  850POPE   C1A12351  17.931   7.119   6.566  0.1102  0.0194  0.0195
  850POPE   D2A12352  17.852   7.091   6.974  0.0387 -0.0573  0.2978
  850POPE   C3A12353  17.654   7.437   7.247  0.2571  0.1060  0.5712
  850POPE   C4A12354  17.330   7.558   7.569 -0.1129 -0.2006  0.2099
  850POPE   C1B12355  17.573   7.555   6.592  0.1119  0.3050  0.2402
  850POPE   C2B12356  17.535   7.782   6.903 -0.0572 -0.0909  0.0428
  850POPE   C3B12357  17.870   7.882   7.283  0.0601 -0.0547 -0.0388
  850POPE   C4B12358  18.134   7.986   7.664 -0.2516 -0.0599 -0.0907
  851POPE   NH312359  18.272   1.077   5.723 -0.0965  0.1958 -0.2686
  851POPE   PO412360  18.757   0.937   5.633  0.3230 -0.1805  0.2058
  851POPE   GL112361  18.789   1.260   5.812 -0.0686 -0.1849 -0.0371
  851POPE   GL212362  18.553   1.256   6.074  0.1584 -0.2250  0.1181
  851POPE   C1A12363  18.691   1.766   6.137 -0.2603  0.2033  0.0434
  851POPE   D2A12364  18.452   1.970   6.476  0.0982  0.0256  0.1110
  851POPE   C3A12365  18.630   1.899   6.779 -0.1370  0.1243 -0.0611
  851POPE   C4A12366  18.729   1.789   7.216  0.0813 -0.0011 -0.0253
  851POPE   C1B12367  18.746   1.324   6.468  0.3343  0.1155 -0.1963
  851POPE   C2B12368  18.780   1.383   6.818  0.0329  0.0371  0.1318
  851POPE   C3B12369  19.033   1.340   7.145 -0.1204  0.4753 -0.0510
  851POPE   C4B12370  19.497   1.364   7.097 -0.1937 -0.1895  0.0443
  852POPE   NH312371   5.940  16.637   5.300 -0.3205  0.1104  0.1176
  852POPE   PO412372   6.258  16.928   5.284 -0.1795  0.1256 -0.2198
  852POPE   GL112373   6.062  16.781   5.754 -0.1059  0.1174 -0.1498
  852POPE   GL212374   6.119  16.483   5.823 -0.1538  0.2133 -0.2056
  852POPE   C1A12375   6.123  16.853   6.218  0.5882  0.1994 -0.1028
  852POPE   D2A12376   5.965  16.668   6.547  0.3992 -0.1450 -0.0425
  852POPE   C3A12377   6.061  16.855   6.945 -0.3458 -0.2450  0.1132
  852POPE   C4A12378   5.989  16.899   7.325  0.1265 -0.0665 -0.0656
  852POPE   C1B12379   6.230  16.333   6.242 -0.1898  0.0209 -0.1082
  852POPE   C2B12380   6.095  16.164   6.597  0.0638 -0.3277 -0.0578
  852POPE   C3B12381   5.908  15.909   6.772  0.0724  0.1689 -0.1994
  852POPE   C4B12382   5.948  15.518   7.044  0.0860  0.3107 -0.1650
  853POPE   NH312383  12.169  18.321   5.661 -0.3921  0.2191 -0.2690
  853POPE   PO412384  11.685  18.458   5.622  0.2224 -0.2236  0.2191
  853POPE   GL112385  11.645  18.129   5.839  0.0544  0.1471 -0.2431
  853POPE   GL212386  11.385  18.084   5.815 -0.0061 -0.0474  0.0250
  853POPE   C1A12387  11.307  17.935   6.233 -0.0832  0.0386  0.2027
  853POPE   D2A12388  11.022  17.899   6.655 -0.0551  0.1110 -0.0382
  853POPE   C3A12389  10.796  17.804   6.922 -0.2131  0.3536  0.1457
  853POPE   C4A12390  10.505  17.651   7.170  0.2408  0.0554 -0.1956
  853POPE   C1B12391  11.050  18.408   5.964 -0.0502 -0.1867 -0.4117
  853POPE   C2B12392  10.892  18.466   6.351 -0.0419  0.0686 -0.0723
  853POPE   C3B12393  10.754  18.278   6.867  0.1269 -0.0579 -0.1164
  853POPE   C4B12394  10.336  18.206   7.006  0.0244 -0.0219 -0.0543
  854POPE   NH312395  15.418  14.404   5.339 -0.0655 -0.4301  0.0213
  854POPE   PO412396  14.938  14.277   5.439  0.0453 -0.0099 -0.2985
  854POPE   GL112397  14.839  14.026   5.795  0.1834  0.0792  0.1469
  854POPE   GL212398  15.102  14.111   5.984 -0.3052  0.2715  0.1190
  854POPE   C1A12399  14.574  14.058   6.153 -0.2643 -0.1963 -0.0379
  854POPE   D2A12400  14.378  14.445   6.251  0.0022 -0.1794  0.4886
  854POPE   C3A12401  14.182  14.513   6.620  0.1430  0.1115  0.0487
  854POPE   C4A12402  13.910  14.474   7.045  0.1917 -0.1499 -0.0042
  854POPE   C1B12403  15.229  14.040   6.467  0.1408 -0.0110  0.0589
  854POPE   C2B12404  15.039  14.021   6.880 -0.2320  0.0174 -0.1787
  854POPE   C3B12405  15.239  14.221   7.279 -0.2808 -0.2550 -0.0937
  854POPE   C4B12406  15.516  14.049   7.506  0.0233  0.0908  0.2317
  855POPE   NH312407   1.832   4.920   5.367 -0.1782  0.2185  0.1167
  855POPE   PO412408   2.148   5.224   5.242  0.0421  0.1321  0.2461
  855POPE   GL112409   2.218   5.223   5.631 -0.3400 -0.2468  0.0512
  855POPE   GL212410   1.961   5.099   5.832  0.2011 -0.2312  0.0474
  855POPE   C1A12411   2.302   5.341   6.003  0.2082 -0.0458  0.0725
  855POPE   D2A12412   2.325   5.392   6.367 -0.0011 -0.0401 -0.0541
  855POPE   C3A12413   1.929   5.329   6.678  0.0411 -0.3393  0.2063
  855POPE   C4A12414   1.723   5.292   6.989  0.1235  0.2023  0.2926
  855POPE   C1B12415   1.723   5.143   6.121  0.2531 -0.0041 -0.0780
  855POPE   C2B12416   1.440   5.153   6.447 -0.0708 -0.2009 -0.1178
  855POPE   C3B12417   1.056   5.054   6.625 -0.0370 -0.3231 -0.0624
  855POPE   C4B12418   0.725   5.110   6.876  0.3660  0.1513  0.0596
  856POPE   NH312419  14.889   1.826   5.450 -0.1589  0.0060 -0.1776
  856POPE   PO412420  14.738   2.227   5.580 -0.1086  0.0234 -0.1181
  856POPE   GL112421  14.461   2.425   5.887 -0.0767 -0.0670  0.0217
  856POPE   GL212422  14.148   2.414   5.776  0.1250 -0.3628 -0.0759
  856POPE   C1A12423  14.214   2.436   6.267 -0.1210  0.0026  0.1609
  856POPE   D2A12424  14.218   2.209   6.651 -0.2403  0.0894  0.1960
  856POPE   C3A12425  14.537   2.182   6.950  0.1561  0.2144 -0.1559
  856POPE   C4A12426  14.473   2.134   7.371 -0.0658 -0.1202  0.2837
  856POPE   C1B12427  14.199   1.972   5.967  0.3803 -0.0662  0.3691
  856POPE   C2B12428  14.040   1.820   6.274  0.2078  0.1233 -0.2415
  856POPE   C3B12429  14.032   1.692   6.810  0.0916  0.0715 -0.1598
  856POPE   C4B12430  14.041   1.891   7.126 -0.0108  0.0540 -0.1736
  857POPE   NH312431   3.211   2.585   5.288  0.0621 -0.2362 -0.1105
  857POPE   PO412432   2.784   2.800   5.397  0.0093  0.0148  0.0022
  857POPE   GL112433   2.826   2.651   5.782  0.0935 -0.2339  0.2680
  857POPE   GL212434   3.078   2.370   5.883 -0.0458 -0.2314 -0.1984
  857POPE   C1A12435   2.710   2.240   6.130  0.1969 -0.1355 -0.3356
  857POPE   D2A12436   2.664   2.515   6.424  0.1472 -0.0356 -0.1024
  857POPE   C3A12437   2.634   2.956   6.252 -0.1237 -0.0990 -0.1175
  857POPE   C4A12438   2.996   3.018   6.072 -0.1369 -0.0650  0.3579
  857POPE   C1B12439   3.188   2.537   6.288 -0.2052 -0.0593  0.1325
  857POPE   C2B12440   3.205   2.678   6.757 -0.3548  0.1629  0.1069
  857POPE   C3B12441   3.167   2.688   7.151  0.0819  0.0451 -0.0019
  857POPE   C4B12442   3.522   2.817   7.524  0.2176  0.3231 -0.2213
  858POPE   NH312443  15.180   9.354   5.199  0.0819  0.0425  0.0618
  858POPE   PO412444  15.521   9.766   5.315  0.2302 -0.1449 -0.1302
  858POPE   GL112445  15.750   9.686   5.651  0.2470 -0.2413 -0.1818
  858POPE   GL212446  15.885   9.886   5.904  0.0346  0.0924 -0.3195
  858POPE   C1A12447  15.716   9.472   6.131  0.0320 -0.0705 -0.1485
  858POPE   D2A12448  15.547   9.487   6.471  0.5920  0.0293 -0.1780
  858POPE   C3A12449  15.489   9.863   6.686  0.0040  0.1798  0.0234
  858POPE   C4A12450  15.702  10.079   6.841  0.0851 -0.2929  0.4125
  858POPE   C1B12451  15.727  10.092   6.273 -0.1354 -0.0113 -0.2972
  858POPE   C2B12452  15.402  10.338   6.541 -0.1190  0.4002  0.0164
  858POPE   C3B12453  15.645  10.586   6.735  0.3654 -0.2354 -0.1786
  858POPE   C4B12454  15.882  10.736   7.182  0.1195  0.0829 -0.2704
  859POPE   NH312455   3.260   1.036   4.865 -0.2183 -0.0544 -0.2458
  859POPE   PO412456   3.334   0.819   5.308  0.2604 -0.1788 -0.2263
  859POPE   GL112457   3.469   0.748   5.731 -0.0297  0.1049  0.0553
  859POPE   GL212458   3.337   1.113   5.793  0.1024 -0.0882  0.1684
  859POPE   C1A12459   3.782   0.734   6.121 -0.0307 -0.0999 -0.0887
  859POPE   D2A12460   4.013   0.846   6.354 -0.0784 -0.3968 -0.0386
  859POPE   C3A12461   3.915   0.826   6.808 -0.0337  0.0684 -0.0020
  859POPE   C4A12462   3.661   0.871   7.085  0.5065  0.4320 -0.0471
  859POPE   C1B12463   3.322   0.928   6.155  0.1626 -0.0804  0.1752
  859POPE   C2B12464   3.021   0.983   6.488  0.0666  0.4205 -0.1967
  859POPE   C3B12465   2.815   1.177   6.830 -0.2787  0.1839 -0.0641
  859POPE   C4B12466   2.717   1.251   7.216 -0.3872 -0.2946 -0.0833
  860POPE   NH312467   4.501  18.982   5.396  0.0156 -0.0783  0.1891
  860POPE   PO412468   4.042  18.898   5.491 -0.0415  0.0285  0.1456
  860POPE   GL112469   4.136  19.040   5.902 -0.0586  0.1726  0.1688
  860POPE   GL212470   4.367  18.992   5.922 -0.0906 -0.3478  0.2647
  860POPE   C1A12471   3.876  19.098   6.177  0.0775 -0.0120 -0.0144
  860POPE   D2A12472   3.869  19.425   6.473  0.3040 -0.2300  0.3043
  860POPE   C3A12473   3.626  19.405   6.986  0.1123  0.1739  0.1128
  860POPE   C4A12474   3.545  19.347   7.455 -0.0019  0.1025 -0.0965
  860POPE   C1B12475   4.311  18.894   6.396  0.0932 -0.0181 -0.1016
  860POPE   C2B12476   4.294  18.629   6.696 -0.0211  0.0230 -0.1697
  860POPE   C3B12477   4.320  18.352   7.073  0.1454  0.1121 -0.1080
  860POPE   C4B12478   4.441  18.056   7.322 -0.0009 -0.0549  0.2496
  861POPE   NH312479  12.979   3.858   5.266 -0.0756 -0.1181 -0.3336
  861POPE   PO412480  12.886   4.404   5.194 -0.1249 -0.0175 -0.3553
  861POPE   GL112481  12.868   4.297   5.643 -0.2020  0.2254 -0.1165
  861POPE   GL212482  13.135   4.163   5.826  0.3302 -0.2098 -0.0724
  861POPE   C1A12483  12.476   4.294   5.932 -0.0204 -0.0998 -0.0905
  861POPE   D2A12484  12.349   4.241   6.323 -0.3989 -0.1525  0.2017
  861POPE   C3A12485  12.469   4.266   6.715 -0.0357 -0.1798  0.2129
  861POPE   C4A12486  12.476   4.216   7.200  0.0576 -0.4147  0.1545
  861POPE   C1B12487  12.871   4.201   6.177  0.0820 -0.1473 -0.2065
  861POPE   C2B12488  12.945   4.250   6.525  0.2402  0.0621  0.1034
  861POPE   C3B12489  13.132   4.340   6.891 -0.0675 -0.3343 -0.1884
  861POPE   C4B12490  13.082   4.159   7.167 -0.0750  0.3417 -0.0399
  862POPE   NH312491  14.037   9.804   5.768 -0.2585 -0.0020  0.0742
  862POPE   PO412492  13.994   9.396   5.995 -0.0207  0.3589  0.0142
  862POPE   GL112493  13.656   9.500   6.273  0.0002 -0.0433 -0.1354
  862POPE   GL212494  13.762   9.772   6.234  0.1807 -0.1461  0.3877
  862POPE   C1A12495  13.492   9.642   6.622  0.6656 -0.0936  0.3361
  862POPE   D2A12496  13.275   9.870   6.931 -0.1515  0.1245 -0.1121
  862POPE   C3A12497  13.073   9.830   7.360 -0.1879  0.0368 -0.0274
  862POPE   C4A12498  13.121   9.867   7.696 -0.1252 -0.4591 -0.3778
  862POPE   C1B12499  13.464  10.111   6.388  0.0274 -0.1462 -0.3452
  862POPE   C2B12500  13.349  10.399   6.765 -0.1194 -0.2414  0.3258
  862POPE   C3B12501  13.503  10.739   7.019 -0.1142  0.2227 -0.0510
  862POPE   C4B12502  13.862  10.954   7.008  0.1048  0.0954 -0.2252
  863POPE   NH312503  10.563   7.677   5.586  0.0246 -0.2280 -0.2257
  863POPE   PO412504  10.484   8.114   5.393  0.0057  0.1815  0.3539
  863POPE   GL112505  10.283   8.027   5.851 -0.2193 -0.3185  0.0588
  863POPE   GL212506  10.631   8.127   5.972  0.2933 -0.2840  0.4252
  863POPE   C1A12507  10.224   8.212   6.299 -0.1250 -0.2789 -0.2443
  863POPE   D2A12508  10.338   8.285   6.696  0.0311  0.3410  0.1317
  863POPE   C3A12509  10.587   8.041   7.018 -0.4041 -0.0755 -0.0117
  863POPE   C4A12510  10.826   7.802   7.284 -0.1595 -0.0710 -0.0983
  863POPE   C1B12511  10.745   8.118   6.320  0.1291 -0.1830  0.1440
  863POPE   C2B12512  10.700   7.863   6.574 -0.1254 -0.1482 -0.0626
  863POPE   C3B12513  10.589   7.567   6.940 -0.3968  0.1904  0.4111
  863POPE   C4B12514  10.220   7.392   6.978  0.0458 -0.1245  0.2165
  864POPE   NH312515   1.170   9.076   5.570  0.1333 -0.0469 -0.0404
  864POPE   PO412516   1.057   9.515   5.508  0.3271  0.0680 -0.4614
  864POPE   GL112517   1.127   9.378   5.966  0.1047 -0.2682  0.0035
  864POPE   GL212518   1.446   9.328   5.923 -0.1511  0.0708 -0.0007
  864POPE   C1A12519   1.124   9.130   6.373 -0.4879 -0.0566  0.0471
  864POPE   D2A12520   1.272   9.355   6.798 -0.2276  0.0624  0.0034
  864POPE   C3A12521   1.261   9.221   7.150  0.2104  0.2609 -0.1546
  864POPE   C4A12522   1.311   9.393   7.526 -0.2942  0.1286 -0.2260
  864POPE   C1B12523   1.540   9.417   6.374  0.1484 -0.1260  0.0261
  864POPE   C2B12524   1.494   9.856   6.667  0.3617  0.1023 -0.3014
  864POPE   C3B12525   1.671  10.044   7.001 -0.1218  0.2669 -0.4927
  864POPE   C4B12526   1.708  10.009   7.413  0.1007  0.1104  0.1904
  865POPE   NH312527   6.329  10.293   5.314 -0.2044  0.0643 -0.2754
  865POPE   PO412528   6.409  10.725   5.262 -0.1095 -0.1227 -0.1329
  865POPE   GL112529   6.234  10.674   5.735 -0.1045 -0.1064  0.0644
  865POPE   GL212530   5.959  10.719   5.949  0.1585 -0.2063  0.0340
  865POPE   C1A12531   6.382  10.857   6.184  0.2759  0.2577 -0.2952
  865POPE   D2A12532   6.318  10.935   6.571  0.0019  0.2069 -0.1460
  865POPE   C3A12533   5.997  10.986   6.706  0.2352  0.0123 -0.1607
  865POPE   C4A12534   5.708  10.695   6.384 -0.0764  0.2487 -0.0305
  865POPE   C1B12535   5.843  11.219   6.296 -0.0704  0.0371 -0.2355
  865POPE   C2B12536   5.688  11.415   6.586  0.0122  0.0680 -0.0685
  865POPE   C3B12537   5.725  11.350   6.904  0.5436  0.2472 -0.0525
  865POPE   C4B12538   5.757  11.253   7.378 -0.0015 -0.0516 -0.0255
  866POPE   NH312539   2.184  16.108   5.921 -0.0092 -0.1534  0.0295
  866POPE   PO412540   2.575  15.981   5.695  0.4851 -0.0327 -0.2353
  866POPE   GL112541   2.688  16.254   6.044 -0.1180  0.2124 -0.0481
  866POPE   GL212542   2.993  16.108   6.037 -0.1593 -0.0386 -0.1360
  866POPE   C1A12543   2.836  16.502   6.328 -0.2569 -0.0034 -0.1887
  866POPE   D2A12544   2.795  16.559   6.810  0.0180  0.2325  0.0999
  866POPE   C3A12545   3.035  16.627   7.079  0.2108  0.0846 -0.0030
  866POPE   C4A12546   3.214  16.826   7.368  0.3154  0.1353 -0.0572
  866POPE   C1B12547   2.878  15.989   6.416  0.0306 -0.2572  0.1166
  866POPE   C2B12548   2.849  15.845   6.856 -0.3559 -0.1670  0.3771
  866POPE   C3B12549   2.743  16.089   7.157  0.3538  0.1910  0.0518
  866POPE   C4B12550   2.810  16.336   7.448 -0.1393  0.1781 -0.0379
  867POPE   NH312551   1.673  12.773   5.574 -0.0646  0.2385  0.1115
  867POPE   PO412552   1.301  12.616   5.770 -0.0460 -0.1250  0.1559
  867POPE   GL112553   1.295  12.718   6.201  0.2090 -0.0990  0.0619
  867POPE   GL212554   1.324  13.074   6.118 -0.0463  0.0550 -0.0020
  867POPE   C1A12555   1.079  12.539   6.631  0.1546 -0.2032 -0.4271
  867POPE   D2A12556   1.091  12.545   7.117  0.0592  0.2705  0.0724
  867POPE   C3A12557   0.804  12.589   7.396  0.0281  0.3035 -0.0943
  867POPE   C4A12558   0.549  12.501   7.759  0.0623  0.1232  0.0367
  867POPE   C1B12559   1.409  13.161   6.470  0.3505  0.1293 -0.0384
  867POPE   C2B12560   1.352  13.012   6.810  0.2943 -0.1029  0.1540
  867POPE   C3B12561   1.534  13.064   7.200 -0.2258 -0.1176 -0.0616
  867POPE   C4B12562   1.663  13.312   7.492  0.0318 -0.2555  0.0057
  868POPE   NH312563  15.736  18.329   6.128  0.0323 -0.0005  0.0473
  868POPE   PO412564  15.373  18.398   5.935 -0.1654  0.3273  0.3241
  868POPE   GL112565  15.248  18.627   6.161  0.0402 -0.1563  0.1608
  868POPE   GL212566  15.423  18.614   6.414  0.0753 -0.0069  0.0384
  868POPE   C1A12567  15.054  19.025   6.262  0.0963 -0.3120  0.2157
  868POPE   D2A12568  14.824  19.447   6.445 -0.2961  0.1105  0.3570
  868POPE   C3A12569  14.950  19.485   6.865 -0.2485  0.1583 -0.1343
  868POPE   C4A12570  14.819  19.733   7.079 -0.2872  0.0174 -0.0505
  868POPE   C1B12571  15.118  18.774   6.783 -0.1798  0.0706  0.0468
  868POPE   C2B12572  15.077  19.039   7.119  0.2982  0.1520 -0.2708
  868POPE   C3B12573  15.177  19.030   7.624  0.2068 -0.0406 -0.1632
  868POPE   C4B12574  15.037  18.815   8.068  0.0491  0.3015  0.0434
  869POPE   NH312575  11.336   4.508   4.984  0.2856 -0.1614  0.0946
  869POPE   PO412576  11.404   4.175   5.323  0.2702  0.1703  0.0973
  869POPE   GL112577  11.166   4.022   5.621 -0.1928  0.1979 -0.2511
  869POPE   GL212578  10.837   4.159   5.637  0.2853  0.0059  0.1894
  869POPE   C1A12579  11.169   3.667   5.854 -0.2458  0.1145 -0.1193
  869POPE   D2A12580  11.162   3.331   6.069 -0.0414 -0.0167 -0.1316
  869POPE   C3A12581  11.313   3.345   6.558 -0.3705 -0.0087 -0.0665
  869POPE   C4A12582  11.408   3.087   6.953 -0.0301  0.2900 -0.0533
  869POPE   C1B12583  10.657   3.968   6.009  0.0079  0.1077 -0.0062
  869POPE   C2B12584  10.490   3.768   6.407  0.1008  0.2382  0.1986
  869POPE   C3B12585  10.599   3.607   6.741 -0.0490 -0.2931 -0.2190
  869POPE   C4B12586  10.849   3.286   6.834 -0.2929 -0.1624  0.0692
  870POPE   NH312587  13.552  12.983   5.154 -0.3583 -0.1168  0.0935
  870POPE   PO412588  13.833  12.769   5.280  0.3738 -0.2477 -0.0480
  870POPE   GL112589  13.890  12.732   5.751 -0.3537  0.0159 -0.1346
  870POPE   GL212590  14.142  12.920   5.991 -0.0602  0.4069 -0.2297
  870POPE   C1A12591  13.597  12.527   6.106 -0.1605  0.3970 -0.0160
  870POPE   D2A12592  13.276  12.702   6.346  0.0969  0.2367 -0.2938
  870POPE   C3A12593  13.327  12.773   6.791  0.1252  0.0646  0.1866
  870POPE   C4A12594  13.654  12.686   7.070 -0.1636 -0.0210 -0.2888
  870POPE   C1B12595  14.279  12.986   6.400  0.2609 -0.0350 -0.3251
  870POPE   C2B12596  14.434  13.266   6.686 -0.0062  0.2591 -0.3734
  870POPE   C3B12597  14.505  13.658   6.941  0.1470 -0.3050  0.1192
  870POPE   C4B12598  14.429  13.950   7.285  0.1471 -0.2012  0.0635
  871YOPE   NH312599  13.343  15.393   5.555  0.2810  0.2506 -0.1634
  871YOPE   PO412600  13.021  15.031   5.391 -0.1357 -0.1204 -0.2305
  871YOPE   GL112601  13.037  14.865   5.752 -0.0596 -0.2704 -0.2731
  871YOPE   GL212602  13.370  14.987   5.849  0.0284  0.0785 -0.1358
  871YOPE   C1A12603  13.033  14.907   6.178  0.1496 -0.0203 -0.2151
  871YOPE   D2A12604  13.040  14.877   6.622  0.0637 -0.0561  0.1033
  871YOPE   C3A12605  12.716  15.070   6.779  0.2312  0.1941 -0.0396
  871YOPE   C4A12606  12.807  15.362   7.158  0.2418 -0.0934  0.0060
  871YOPE   C1B12607  13.343  15.432   6.154  0.0302 -0.0980  0.2248
  871YOPE   C2B12608  13.455  15.824   6.379 -0.1390  0.0091 -0.0111
  871YOPE   D3B12609  13.368  16.009   6.838 -0.1084  0.2592  0.1721
  871YOPE   C4B12610  13.127  16.280   7.068  0.1186 -0.0599  0.0784
  872YOPE   NH312611  14.702   6.985   5.469  0.0495 -0.3277 -0.1765
  872YOPE   PO412612  14.383   7.108   5.760  0.6159 -0.0349 -0.1281
  872YOPE   GL112613  14.618   6.694   5.911 -0.1139  0.0055  0.0512
  872YOPE   GL212614  14.901   6.686   5.966  0.2576  0.3210  0.0584
  872YOPE   C1A12615  14.755   6.452   6.330  0.1030  0.0579 -0.1048
  872YOPE   D2A12616  14.850   6.608   6.694 -0.0200 -0.1560  0.1373
  872YOPE   C3A12617  14.622   6.830   6.921  0.2559 -0.1193 -0.0327
  872YOPE   C4A12618  14.638   7.200   7.148  0.0192  0.0971 -0.3161
  872YOPE   C1B12619  15.261   6.587   6.174 -0.0125  0.3937 -0.2331
  872YOPE   C2B12620  15.398   6.610   6.579  0.1206 -0.5668 -0.1947
  872YOPE   D3B12621  15.511   6.613   6.997  0.2822  0.0067 -0.1205
  872YOPE   C4B12622  15.388   6.665   7.395 -0.0489 -0.2401 -0.2289
  873YOPE   NH312623  13.633   2.777   5.315 -0.1560  0.0380 -0.0129
  873YOPE   PO412624  14.059   2.871   5.413  0.0161 -0.0464  0.1093
  873YOPE   GL112625  14.007   2.995   5.778 -0.4312  0.1789 -0.3469
  873YOPE   GL212626  14.120   3.275   5.846 -0.1432  0.0895  0.0610
  873YOPE   C1A12627  13.738   3.070   6.125 -0.1604  0.0861 -0.3239
  873YOPE   D2A12628  13.875   3.063   6.535  0.1903 -0.1040 -0.0964
  873YOPE   C3A12629  14.256   3.201   6.764  0.0514 -0.0515 -0.2651
  873YOPE   C4A12630  14.659   3.137   6.774  0.0303  0.1682 -0.2058
  873YOPE   C1B12631  14.096   3.417   6.261 -0.3625 -0.0475  0.0341
  873YOPE   C2B12632  14.193   3.667   6.667 -0.1497  0.3187  0.0611
  873YOPE   D3B12633  14.011   3.914   6.985  0.1494 -0.0152 -0.1707
  873YOPE   C4B12634  13.957   4.014   7.288 -0.2342  0.0489  0.3009
  874YOPE   NH312635   9.326  10.572   5.485 -0.1986  0.0124  0.0199
  874YOPE   PO412636   9.620  10.816   5.395  0.1450  0.0051  0.0983
  874YOPE   GL112637   9.868  10.936   5.807 -0.1834  0.2407 -0.1579
  874YOPE   GL212638  10.220  11.121   5.829  0.4120 -0.0679 -0.0415
  874YOPE   C1A12639   9.827  10.956   6.243  0.0800  0.3273  0.0167
  874YOPE   D2A12640   9.743  10.994   6.664  0.0991 -0.2401 -0.0237
  874YOPE   C3A12641   9.996  10.816   7.055  0.2011 -0.3567  0.0730
  874YOPE   C4A12642   9.647  10.590   7.359 -0.1759  0.0858  0.5424
  874YOPE   C1B12643  10.227  11.379   6.206  0.0942  0.1330  0.0422
  874YOPE   C2B12644   9.858  11.428   6.500  0.1508 -0.0222  0.2862
  874YOPE   D3B12645   9.522  11.401   6.862 -0.1869 -0.1850  0.0144
  874YOPE   C4B12646   9.485  11.042   7.069 -0.1806  0.1006 -0.1641
  875YOPE   NH312647  17.759  11.888   5.657 -0.0441  0.0641  0.0327
  875YOPE   PO412648  17.630  11.393   5.653 -0.1364 -0.0419 -0.3926
  875YOPE   GL112649  17.612  11.549   6.088  0.3135  0.0229  0.0103
  875YOPE   GL212650  17.751  11.827   6.139  0.0991 -0.0997 -0.0462
  875YOPE   C1A12651  17.397  11.569   6.407  0.0879  0.0480 -0.0134
  875YOPE   D2A12652  17.301  11.851   6.670 -0.1631  0.1854  0.1721
  875YOPE   C3A12653  17.003  11.791   6.914 -0.2106 -0.0986 -0.2775
  875YOPE   C4A12654  16.870  11.826   7.276  0.1927 -0.0496  0.1552
  875YOPE   C1B12655  17.864  11.794   6.570  0.1363  0.1728 -0.0588
  875YOPE   C2B12656  17.704  11.889   6.962 -0.0571  0.0496 -0.2045
  875YOPE   D3B12657  17.363  12.006   7.248 -0.2095 -0.3349  0.0438
  875YOPE   C4B12658  17.061  12.214   7.577  0.2716 -0.1992 -0.3426
  876YOPE   NH312659   8.027   2.823   5.505 -0.0487 -0.1562 -0.0293
  876YOPE   PO412660   8.176   3.263   5.640 -0.1074  0.0229  0.1129
  876YOPE   GL112661   8.476   3.247   5.886 -0.1047 -0.0662 -0.1707
  876YOPE   GL212662   8.809   3.087   5.852  0.2311  0.0600 -0.2355
  876YOPE   C1A12663   8.522   2.865   6.270  0.0863 -0.2987  0.2577
  876YOPE   D2A12664   8.633   2.704   6.734  0.0028  0.0398 -0.0786
  876YOPE   C3A12665   9.061   2.587   7.063  0.1283 -0.1859  0.1449
  876YOPE   C4A12666   9.436   2.487   7.326 -0.2442  0.3193  0.0093
  876YOPE   C1B12667   9.011   3.324   6.268  0.0695  0.2327 -0.0486
  876YOPE   C2B12668   9.157   3.431   6.678 -0.0273  0.3305 -0.1047
  876YOPE   D3B12669   9.073   3.315   7.169  0.1039 -0.0624  0.1170
  876YOPE   C4B12670   9.054   3.738   7.486 -0.2080  0.1584 -0.2199
  877YOPE   NH312671  18.965  18.775   5.659 -0.2094  0.1425 -0.1637
  877YOPE   PO412672  19.153  19.074   5.336  0.2458  0.0692 -0.1916
  877YOPE   GL112673  19.329  19.143   5.785 -0.0975 -0.1552 -0.1922
  877YOPE   GL212674  19.546  19.339   5.859  0.3010  0.0971 -0.2103
  877YOPE   C1A12675  19.268  18.873   6.195 -0.0035 -0.1750  0.1265
  877YOPE   D2A12676  19.316  18.750   6.600  0.1900 -0.0350 -0.0568
  877YOPE   C3A12677  19.023  18.936   6.720  0.4974 -0.0900  0.1426
  877YOPE   C4A12678  18.901  18.887   7.131  0.3553  0.1686  0.1419
  877YOPE   C1B12679  19.713  19.424   6.222 -0.1693  0.0031  0.0128
  877YOPE   C2B12680  19.816  19.573   6.608 -0.1851 -0.0008 -0.2869
  877YOPE   D3B12681  19.956  19.567   7.000  0.0965 -0.2663  0.0654
  877YOPE   C4B12682  20.245  19.680   7.235  0.0731  0.2774  0.1838
  878YOPE   NH312683  16.227  18.964   5.688 -0.3378  0.0613 -0.2064
  878YOPE   PO412684  16.627  19.140   5.594 -0.1439  0.1057  0.0666
  878YOPE   GL112685  16.632  19.276   6.049 -0.1890 -0.2882 -0.0711
  878YOPE   GL212686  16.394  19.292   6.208  0.0150  0.1223 -0.2177
  878YOPE   C1A12687  16.836  19.347   6.433 -0.0792  0.2169  0.1251
  878YOPE   D2A12688  16.795  19.273   6.839  0.0721 -0.0328 -0.0551
  878YOPE   C3A12689  16.881  19.174   7.247  0.0596  0.3253  0.0174
  878YOPE   C4A12690  17.132  19.046   7.680  0.1995  0.0499 -0.0663
  878YOPE   C1B12691  16.353  19.051   6.637 -0.2889 -0.1257 -0.0402
  878YOPE   C2B12692  16.224  18.786   6.874  0.3729  0.0137 -0.2332
  878YOPE   D3B12693  16.110  18.325   6.877  0.1496 -0.2891 -0.2002
  878YOPE   C4B12694  16.105  17.844   7.029  0.1021 -0.3417 -0.0553
  879YOPE   NH312695   2.345  18.202   5.654  0.1455  0.2128  0.2754
  879YOPE   PO412696   2.358  18.547   5.382  0.0017 -0.2492 -0.1929
  879YOPE   GL112697   2.403  18.710   5.817  0.0074 -0.1194  0.2875
  879YOPE   GL212698   2.647  18.595   5.875 -0.0319 -0.0116  0.2647
  879YOPE   C1A12699   2.561  18.922   6.238 -0.1207 -0.0052  0.0433
  879YOPE   D2A12700   2.735  18.802   6.453  0.0744  0.0570  0.4384
  879YOPE   C3A12701   2.838  18.989   6.887 -0.0457 -0.3262  0.0086
  879YOPE   C4A12702   2.831  19.280   7.103 -0.1569  0.1280 -0.0860
  879YOPE   C1B12703   2.961  18.858   5.979  0.0464 -0.0505 -0.1649
  879YOPE   C2B12704   3.135  19.051   6.352  0.1553 -0.2578  0.2212
  879YOPE   D3B12705   3.291  18.991   6.730  0.0997 -0.1860 -0.0706
  879YOPE   C4B12706   3.288  19.068   7.151  0.0767 -0.3393 -0.0726
  880YOPE   NH312707  10.027  15.551   5.559 -0.3431  0.0615  0.1267
  880YOPE   PO412708   9.657  15.855   5.434 -0.0890 -0.2951  0.2582
  880YOPE   GL112709   9.674  15.890   5.864  0.2454 -0.1402 -0.0504
  880YOPE   GL212710   9.571  15.595   5.900  0.3002 -0.1625  0.0110
  880YOPE   C1A12711   9.705  15.998   6.294  0.1903  0.2280  0.1309
  880YOPE   D2A12712   9.652  16.169   6.718 -0.1216  0.1549 -0.1260
  880YOPE   C3A12713   9.458  16.566   6.773 -0.2948 -0.3431  0.2804
  880YOPE   C4A12714   9.292  16.625   7.061 -0.1002  0.1050 -0.0961
  880YOPE   C1B12715   9.503  15.596   6.316 -0.1496  0.0621  0.0919
  880YOPE   C2B12716   9.429  15.698   6.639  0.2117  0.1547  0.1326
  880YOPE   D3B12717   9.204  16.074   6.935 -0.0309 -0.1895  0.1844
  880YOPE   C4B12718   8.975  16.199   7.269  0.2052 -0.0210 -0.0061
  881YOPE   NH312719   7.700   5.785   5.588  0.1818 -0.0827  0.2159
  881YOPE   PO412720   7.949   5.477   5.507 -0.3164  0.2973 -0.1246
  881YOPE   GL112721   8.247   5.589   5.885 -0.2758 -0.0004  0.0859
  881YOPE   GL212722   7.933   5.651   5.994 -0.1749  0.1302 -0.0505
  881YOPE   C1A12723   8.584   5.676   6.255 -0.2745  0.1153 -0.1211
  881YOPE   D2A12724   8.628   5.643   6.621  0.1344 -0.3723 -0.2464
  881YOPE   C3A12725   8.985   5.482   6.796 -0.1871  0.2258 -0.1038
  881YOPE   C4A12726   9.234   5.175   6.610 -0.2021  0.1138 -0.2739
  881YOPE   C1B12727   7.691   5.995   6.264  0.1127  0.4990 -0.3018
  881YOPE   C2B12728   7.508   6.406   6.434 -0.0710  0.2793 -0.1569
  881YOPE   D3B12729   7.366   6.310   6.822  0.1177 -0.1101 -0.3990
  881YOPE   C4B12730   6.961   6.175   7.056  0.2901 -0.0834 -0.0213
  882YOPE   NH312731  10.722  15.172   5.331  0.1932  0.0114  0.0963
  882YOPE   PO412732  10.549  14.790   5.498  0.4380  0.2320  0.2940
  882YOPE   GL112733  10.557  14.530   5.787 -0.1169  0.1771  0.2319
  882YOPE   GL212734  10.439  14.697   5.984 -0.1172  0.1962  0.0508
  882YOPE   C1A12735  10.749  14.252   6.125  0.2157 -0.0053 -0.0810
  882YOPE   D2A12736  10.707  14.257   6.595  0.0044  0.1064 -0.3832
  882YOPE   C3A12737  10.714  14.476   6.946 -0.0792 -0.0027 -0.1385
  882YOPE   C4A12738  10.554  14.513   7.415 -0.0218  0.1475  0.2834
  882YOPE   C1B12739  10.642  14.748   6.353  0.1041 -0.2490 -0.1470
  882YOPE   C2B12740  11.001  14.712   6.580  0.1307  0.0082  0.0722
  882YOPE   D3B12741  11.269  15.024   6.706 -0.1860 -0.2066 -0.3505
  882YOPE   C4B12742  11.597  15.248   6.890  0.1284 -0.4198  0.2691
  883YOPE   NH312743   7.304   2.242   5.451 -0.0402  0.0547 -0.0475
  883YOPE   PO412744   6.907   2.099   5.521 -0.1332  0.0316  0.0220
  883YOPE   GL112745   7.164   2.023   5.921 -0.2367  0.0432  0.0643
  883YOPE   GL212746   6.990   1.854   6.002 -0.2192  0.0492 -0.4379
  883YOPE   C1A12747   7.394   2.228   6.218 -0.1573  0.0114 -0.3998
  883YOPE   D2A12748   7.378   2.013   6.636 -0.2494 -0.1195 -0.0679
  883YOPE   C3A12749   7.439   2.093   7.149  0.0710  0.1740  0.3678
  883YOPE   C4A12750   7.155   2.373   7.392 -0.2331 -0.0805  0.3977
  883YOPE   C1B12751   6.799   2.139   6.362  0.2412 -0.2342 -0.1915
  883YOPE   C2B12752   6.679   2.162   6.721  0.2330 -0.0186 -0.0117
  883YOPE   D3B12753   6.368   2.199   7.144  0.2176  0.1166  0.0614
  883YOPE   C4B12754   6.035   2.269   7.335  0.0847 -0.2173  0.0020
  884YOPE   NH312755  11.606  12.303   5.267  0.0712  0.0927  0.1763
  884YOPE   PO412756  11.603  12.062   5.584 -0.0838  0.1948 -0.0697
  884YOPE   GL112757  11.371  11.878   5.793  0.3471  0.1819 -0.2844
  884YOPE   GL212758  11.070  11.978   5.810 -0.1261  0.2808  0.2793
  884YOPE   C1A12759  11.207  11.508   6.069 -0.1959 -0.1226  0.1802
  884YOPE   D2A12760  11.073  11.278   6.300 -0.0014  0.2012 -0.1818
  884YOPE   C3A12761  11.247  11.338   6.690  0.3088  0.0334 -0.1099
  884YOPE   C4A12762  11.315  11.667   7.020  0.0324  0.2739  0.0209
  884YOPE   C1B12763  11.028  11.950   6.247 -0.1094  0.1013 -0.1041
  884YOPE   C2B12764  11.042  11.961   6.691 -0.0931  0.1703 -0.1610
  884YOPE   D3B12765  10.917  12.038   7.144 -0.2386 -0.1847 -0.0618
  884YOPE   C4B12766  10.818  12.180   7.471  0.2689 -0.0217 -0.2105
  885YOPE   NH312767  12.753   7.010   5.251  0.2020  0.0430  0.1943
  885YOPE   PO412768  13.224   6.798   5.218  0.2321  0.1338 -0.1711
  885YOPE   GL112769  13.342   6.972   5.636 -0.2812 -0.1038 -0.2262
  885YOPE   GL212770  13.322   6.857   5.955  0.1210  0.2724  0.1857
  885YOPE   C1A12771  13.033   7.293   5.777  0.1664 -0.3399  0.0991
  885YOPE   D2A12772  12.981   7.677   5.857 -0.2213 -0.2080 -0.0020
  885YOPE   C3A12773  12.960   7.847   6.262 -0.1522 -0.2381 -0.0498
  885YOPE   C4A12774  12.846   7.832   6.587  0.2273  0.0450 -0.1525
  885YOPE   C1B12775  13.128   7.173   6.224  0.3003  0.1702 -0.2513
  885YOPE   C2B12776  13.070   7.366   6.712  0.4470 -0.0134 -0.1445
  885YOPE   D3B12777  13.263   7.382   7.108  0.3677 -0.1641 -0.4363
  885YOPE   C4B12778  13.212   7.444   7.573 -0.1881  0.0036  0.2702
  886YOPE   NH312779  17.722  15.694   5.994  0.0737  0.0948  0.1899
  886YOPE   PO412780  17.456  15.639   5.633 -0.1564  0.2341  0.1090
  886YOPE   GL112781  17.225  15.536   5.995 -0.0119 -0.1274  0.0317
  886YOPE   GL212782  17.292  15.634   6.247 -0.1340 -0.3939  0.0005
  886YOPE   C1A12783  16.854  15.505   6.357 -0.1166  0.0356  0.2080
  886YOPE   D2A12784  16.506  15.157   6.490  0.2712  0.1490  0.0024
  886YOPE   C3A12785  16.351  14.970   6.941  0.0973  0.0042 -0.1593
  886YOPE   C4A12786  16.526  14.636   7.208 -0.1856 -0.2297 -0.0489
  886YOPE   C1B12787  17.333  15.253   6.519 -0.1506  0.2934  0.3640
  886YOPE   C2B12788  17.431  15.073   6.901 -0.1200  0.2635 -0.0169
  886YOPE   D3B12789  17.283  14.996   7.308  0.0146 -0.0871 -0.0926
  886YOPE   C4B12790  17.199  15.227   7.631 -0.0663 -0.1651  0.2563
  887YOPE   NH312791  14.741   8.723   5.722  0.2785 -0.3612  0.0380
  887YOPE   PO412792  15.158   8.576   5.720  0.3105 -0.0773  0.1635
  887YOPE   GL112793  15.016   8.746   6.134 -0.0089  0.0900  0.0051
  887YOPE   GL212794  14.898   8.515   6.191  0.0428  0.2728 -0.0703
  887YOPE   C1A12795  15.117   8.935   6.459  0.1648 -0.1257 -0.0148
  887YOPE   D2A12796  15.047   8.883   6.792  0.3067 -0.2471  0.0416
  887YOPE   C3A12797  14.794   9.151   7.093  0.0102 -0.1481  0.4481
  887YOPE   C4A12798  14.449   9.118   7.282  0.4558  0.1751 -0.2204
  887YOPE   C1B12799  14.860   8.469   6.618  0.0519  0.1260 -0.0570
  887YOPE   C2B12800  14.766   8.256   6.907 -0.3055 -0.2821  0.0749
  887YOPE   D3B12801  14.842   8.225   7.330 -0.0020 -0.0825 -0.0501
  887YOPE   C4B12802  14.960   7.857   7.663 -0.0627 -0.0989 -0.4050
  888YOPE   NH312803   3.567  12.643   5.675  0.2556  0.0299 -0.0760
  888YOPE   PO412804   3.194  12.845   5.753 -0.2191 -0.2518  0.1897
  888YOPE   GL112805   3.417  12.727   6.156 -0.1211 -0.0335 -0.0680
  888YOPE   GL212806   3.468  12.991   6.301  0.1038  0.2116  0.0401
  888YOPE   C1A12807   3.429  12.488   6.546 -0.1197  0.3405  0.5259
  888YOPE   D2A12808   3.332  12.251   6.872  0.1402 -0.2707  0.1516
  888YOPE   C3A12809   3.651  12.122   7.288 -0.0222 -0.2405 -0.0726
  888YOPE   C4A12810   3.938  12.016   7.574  0.1983 -0.1449 -0.2045
  888YOPE   C1B12811   3.422  12.994   6.683 -0.0802 -0.0269  0.2620
  888YOPE   C2B12812   3.204  12.701   6.866 -0.1299  0.4092 -0.3212
  888YOPE   D3B12813   3.102  12.409   7.287 -0.0472  0.3205 -0.2724
  888YOPE   C4B12814   3.129  12.048   7.360 -0.2873  0.2378 -0.0920
  889YOPE   NH312815  17.136   6.207   5.671  0.2440 -0.2264 -0.0652
  889YOPE   PO412816  17.443   6.459   5.584 -0.1510 -0.0209 -0.1047
  889YOPE   GL112817  17.370   6.533   6.050  0.0494  0.1160  0.0993
  889YOPE   GL212818  17.176   6.287   6.173  0.2312  0.1174  0.0900
  889YOPE   C1A12819  17.493   6.645   6.503  0.1309  0.0369 -0.1193
  889YOPE   D2A12820  17.663   6.637   6.874  0.1939 -0.2980  0.0024
  889YOPE   C3A12821  17.470   6.942   7.224 -0.2669  0.0069  0.0473
  889YOPE   C4A12822  17.578   7.082   7.664  0.0832  0.0733 -0.0804
  889YOPE   C1B12823  16.998   6.530   6.565 -0.0481  0.0343  0.3953
  889YOPE   C2B12824  17.013   6.721   7.074  0.2516  0.1379 -0.0999
  889YOPE   D3B12825  16.660   6.613   7.396  0.0879 -0.0912 -0.2056
  889YOPE   C4B12826  16.687   6.658   7.803 -0.0615 -0.3125 -0.2151
  890YOPE   NH312827   8.518   7.040   5.298 -0.0622  0.0983 -0.1764
  890YOPE   PO412828   8.255   7.089   4.993 -0.0259  0.0453  0.0227
  890YOPE   GL112829   8.089   7.416   5.302 -0.1782 -0.1533  0.3227
  890YOPE   GL212830   8.117   7.264   5.513 -0.1728 -0.1495 -0.0031
  890YOPE   C1A12831   8.116   7.815   5.566 -0.1537  0.0104  0.0132
  890YOPE   D2A12832   8.082   8.116   5.894 -0.0120 -0.1926 -0.1612
  890YOPE   C3A12833   7.849   8.022   6.219 -0.1992 -0.1352 -0.1106
  890YOPE   C4A12834   8.082   7.911   6.594 -0.0006  0.0511  0.0468
  890YOPE   C1B12835   8.080   6.980   5.824  0.2419 -0.2104  0.0618
  890YOPE   C2B12836   8.237   6.958   6.197 -0.0341 -0.3767 -0.0332
  890YOPE   D3B12837   8.399   7.009   6.578 -0.3686 -0.2265  0.0256
  890YOPE   C4B12838   8.388   7.104   6.975 -0.0801 -0.0375 -0.3171
  891YOPE   NH312839  14.500  17.640   5.140 -0.1159  0.2849 -0.0643
  891YOPE   PO412840  14.124  17.475   5.224 -0.0579 -0.2241 -0.0844
  891YOPE   GL112841  14.153  17.782   5.474  0.1158  0.1680 -0.0144
  891YOPE   GL212842  13.881  18.011   5.568  0.0395 -0.0352  0.0580
  891YOPE   C1A12843  14.304  17.692   5.870 -0.0301  0.1929  0.1225
  891YOPE   D2A12844  14.662  17.718   6.160  0.2768  0.0186 -0.1470
  891YOPE   C3A12845  14.806  17.872   6.594  0.0305 -0.0797  0.0531
  891YOPE   C4A12846  14.686  17.768   7.056  0.1730 -0.1932 -0.1068
  891YOPE   C1B12847  14.148  18.226   5.909 -0.1199 -0.2062 -0.1670
  891YOPE   C2B12848  14.351  18.390   6.198 -0.2037  0.0904  0.1018
  891YOPE   D3B12849  14.487  18.266   6.659  0.3940 -0.0273  0.0895
  891YOPE   C4B12850  14.213  18.106   6.982  0.4003 -0.2766 -0.2245
  892YOPE   NH312851   2.954   3.082   4.935  0.2174 -0.0553  0.1232
  892YOPE   PO412852   3.334   3.103   5.151  0.1563 -0.0415 -0.1336
  892YOPE   GL112853   3.433   3.364   5.469  0.3744 -0.2210  0.2015
  892YOPE   GL212854   3.652   3.231   5.687  0.2366 -0.2763 -0.1490
  892YOPE   C1A12855   3.164   3.380   5.809 -0.1593  0.1061 -0.2754
  892YOPE   D2A12856   2.796   3.547   6.040 -0.1795 -0.4607  0.1254
  892YOPE   C3A12857   2.603   3.421   6.445 -0.0241 -0.1239  0.0226
  892YOPE   C4A12858   2.520   3.298   6.839 -0.1041 -0.3068  0.0413
  892YOPE   C1B12859   3.598   3.042   6.104 -0.2169 -0.2224  0.2974
  892YOPE   C2B12860   3.500   3.060   6.547 -0.3386 -0.1918  0.1499
  892YOPE   D3B12861   3.544   3.451   6.866  0.1028 -0.1162 -0.3490
  892YOPE   C4B12862   3.418   3.788   7.122 -0.0745 -0.3113 -0.0607
  893YOPE   NH312863  13.548   0.377   5.600 -0.0217  0.0593 -0.1710
  893YOPE   PO412864  13.375  -0.007   5.497  0.2906  0.3024  0.0518
  893YOPE   GL112865  13.630  -0.068   5.896 -0.1200 -0.0695 -0.1202
  893YOPE   GL212866  13.438  -0.257   6.045 -0.0778  0.1524  0.1103
  893YOPE   C1A12867  13.580   0.173   6.303 -0.0863  0.1530 -0.1458
  893YOPE   D2A12868  13.443   0.181   6.720  0.3164 -0.0434 -0.2876
  893YOPE   C3A12869  13.648  -0.056   7.081  0.1779 -0.0364  0.1152
  893YOPE   C4A12870  13.632  -0.379   7.414 -0.0294 -0.2502  0.0107
  893YOPE   C1B12871  13.509  -0.288   6.472  0.1634 -0.1683 -0.0713
  893YOPE   C2B12872  13.643  -0.419   6.746 -0.0534 -0.1646 -0.1575
  893YOPE   D3B12873  13.842  -0.561   7.023 -0.2186  0.1201  0.0491
  893YOPE   C4B12874  14.200  -0.426   7.189 -0.0143 -0.1438 -0.0730
  894YOPE   NH312875   8.218  10.174   4.854 -0.2412 -0.0698 -0.1436
  894YOPE   PO412876   8.546  10.068   5.076  0.0682 -0.0674 -0.1240
  894YOPE   GL112877   8.530  10.293   5.490  0.1237  0.0452  0.2799
  894YOPE   GL212878   8.583   9.940   5.691  0.3271 -0.1742  0.0470
  894YOPE   C1A12879   8.602  10.405   5.923 -0.0557 -0.2542 -0.0307
  894YOPE   D2A12880   8.704  10.484   6.320 -0.1797  0.1272  0.2845
  894YOPE   C3A12881   8.913  10.525   6.800  0.0584 -0.3839  0.0652
  894YOPE   C4A12882   9.269  10.515   7.075 -0.1420  0.1082  0.0393
  894YOPE   C1B12883   8.592   9.888   6.095 -0.0216  0.0124  0.2030
  894YOPE   C2B12884   8.594   9.847   6.521  0.1698  0.0049  0.1940
  894YOPE   D3B12885   8.301   9.876   6.757  0.1790 -0.1314 -0.2974
  894YOPE   C4B12886   7.983  10.168   7.018 -0.0916 -0.1220  0.1450
  895YOPE   NH312887   0.250   8.888   5.727 -0.0832 -0.1820 -0.0999
  895YOPE   PO412888   0.120   9.297   5.545 -0.1360  0.0704 -0.3239
  895YOPE   GL112889   0.018   9.359   6.069  0.0295  0.3051  0.0195
  895YOPE   GL212890  -0.020   9.028   6.122  0.1836 -0.0449 -0.0063
  895YOPE   C1A12891   0.139   9.563   6.404 -0.1459 -0.1327 -0.1280
  895YOPE   D2A12892   0.089   9.631   6.891 -0.1506 -0.3212  0.1848
  895YOPE   C3A12893   0.430   9.700   7.206 -0.1260  0.1461  0.0720
  895YOPE   C4A12894   0.737   9.591   7.513 -0.2168 -0.0749  0.3456
  895YOPE   C1B12895   0.130   9.053   6.484 -0.1422 -0.1032 -0.1519
  895YOPE   C2B12896   0.227   8.756   6.747 -0.3099  0.0613 -0.1430
  895YOPE   D3B12897   0.299   8.669   7.168  0.3652 -0.1882 -0.0700
  895YOPE   C4B12898   0.508   8.614   7.576 -0.1225 -0.0177  0.2012
  896YOPE   NH312899  16.512  17.813   5.726  0.0004  0.0633 -0.0224
  896YOPE   PO412900  16.159  18.043   6.015 -0.3528 -0.0719  0.2454
  896YOPE   GL112901  16.179  17.897   6.284  0.3368  0.2185  0.0875
  896YOPE   GL212902  15.927  17.955   6.438  0.2442  0.3424 -0.2094
  896YOPE   C1A12903  16.413  17.917   6.663  0.0585  0.2145  0.0505
  896YOPE   D2A12904  16.637  18.293   6.928  0.1073 -0.1687  0.0454
  896YOPE   C3A12905  16.755  18.163   7.360 -0.1104  0.1057  0.1708
  896YOPE   C4A12906  17.139  18.207   7.598  0.2146  0.1083 -0.0309
  896YOPE   C1B12907  15.582  17.866   6.812 -0.2732 -0.3620 -0.1497
  896YOPE   C2B12908  15.222  17.929   7.108  0.1938  0.2262  0.0907
  896YOPE   D3B12909  14.968  17.958   7.424  0.2006 -0.0028 -0.0266
  896YOPE   C4B12910  14.675  17.974   7.727 -0.1319  0.0934 -0.3692
  897YOPE   NH312911   7.865  10.978   5.198  0.1685  0.1266  0.1819
  897YOPE   PO412912   8.039  10.653   4.911 -0.0628  0.0269  0.0867
  897YOPE   GL112913   8.342  10.768   5.314  0.0224 -0.1494  0.0018
  897YOPE   GL212914   8.221  10.805   5.554 -0.4990  0.0758 -0.0184
  897YOPE   C1A12915   8.734  10.759   5.589 -0.0162 -0.0955 -0.0356
  897YOPE   D2A12916   9.070  10.626   5.937 -0.1559  0.0036 -0.0869
  897YOPE   C3A12917   9.420  10.892   6.009 -0.1844 -0.1371  0.1612
  897YOPE   C4A12918   9.433  11.225   6.309  0.0080 -0.1502  0.0628
  897YOPE   C1B12919   8.481  10.854   6.039  0.2922  0.0198 -0.1891
  897YOPE   C2B12920   8.491  10.892   6.567 -0.2787 -0.0916  0.0667
  897YOPE   D3B12921   8.669  10.973   6.886  0.1500  0.2228  0.1533
  897YOPE   C4B12922   8.849  10.858   7.136  0.0590  0.0598  0.0579
  898YOPE   NH312923   0.078  11.328   5.691  0.2544 -0.0082 -0.0832
  898YOPE   PO412924   0.116  11.864   5.646 -0.1058  0.2802 -0.0142
  898YOPE   GL112925   0.021  11.924   6.101  0.1813  0.2158 -0.0359
  898YOPE   GL212926  -0.244  12.085   6.081 -0.1902  0.1511  0.1302
  898YOPE   C1A12927   0.055  12.031   6.497  0.2378  0.0164 -0.0101
  898YOPE   D2A12928   0.397  11.926   6.850  0.1882  0.4982  0.2782
  898YOPE   C3A12929   0.182  11.683   7.172 -0.2404 -0.1124 -0.1598
  898YOPE   C4A12930  -0.038  11.640   7.657 -0.1436  0.1990  0.0990
  898YOPE   C1B12931  -0.409  12.209   6.503  0.1271  0.1127  0.0828
  898YOPE   C2B12932  -0.369  12.138   6.956 -0.2163  0.0638 -0.1344
  898YOPE   D3B12933  -0.077  12.063   7.198 -0.1186 -0.1418 -0.2544
  898YOPE   C4B12934   0.080  12.153   7.620  0.3714 -0.0371  0.1345
  899YOPE   NH312935  14.191   4.425   5.560 -0.1816 -0.0928 -0.0883
  899YOPE   PO412936  14.574   4.379   5.521 -0.1691 -0.2217  0.1803
  899YOPE   GL112937  14.495   4.080   5.732  0.0390 -0.2356 -0.3086
  899YOPE   GL212938  14.660   3.892   5.927  0.2228 -0.1375  0.2876
  899YOPE   C1A12939  14.533   4.325   6.190 -0.0590 -0.3454 -0.1901
  899YOPE   D2A12940  14.518   4.112   6.620 -0.3737  0.0327  0.1023
  899YOPE   C3A12941  14.689   4.358   6.998 -0.0798 -0.0666  0.4088
  899YOPE   C4A12942  14.762   4.575   7.325 -0.2071 -0.0807  0.2270
  899YOPE   C1B12943  14.993   4.090   6.147 -0.0023 -0.2612 -0.1184
  899YOPE   C2B12944  15.153   4.223   6.557  0.0454 -0.3647 -0.3961
  899YOPE   D3B12945  15.591   4.342   6.730  0.1777  0.0023  0.0952
  899YOPE   C4B12946  15.899   4.232   6.571  0.0567  0.1864 -0.0044
  900YOPE   NH312947  17.758  16.660   5.953 -0.2555  0.0774  0.0923
  900YOPE   PO412948  17.644  17.065   6.197  0.0029  0.0281  0.0061
  900YOPE   GL112949  17.704  16.867   6.530 -0.2409 -0.1997  0.0443
  900YOPE   GL212950  17.645  16.602   6.423  0.0924  0.0629 -0.1645
  900YOPE   C1A12951  17.839  16.928   6.992 -0.1684  0.0030  0.0362
  900YOPE   D2A12952  17.826  16.966   7.489  0.0365  0.0130  0.0124
  900YOPE   C3A12953  18.126  17.134   7.700 -0.1613  0.4053  0.3879
  900YOPE   C4A12954  18.434  17.186   7.922 -0.0385  0.1206 -0.0181
  900YOPE   C1B12955  17.746  16.334   6.864 -0.1569 -0.0055  0.0886
  900YOPE   C2B12956  17.575  16.032   7.181 -0.0739  0.0783 -0.4079
  900YOPE   D3B12957  17.331  15.682   7.125  0.2716  0.1401  0.2140
  900YOPE   C4B12958  16.904  15.615   7.229 -0.0916 -0.2499 -0.1268
  901YOPE   NH312959   4.061  18.437   5.118 -0.2183  0.0771 -0.2749
  901YOPE   PO412960   4.099  17.898   5.068 -0.1577 -0.1440  0.1805
  901YOPE   GL112961   4.026  17.935   5.485  0.3295  0.0368 -0.1455
  901YOPE   GL212962   4.245  17.898   5.735  0.1206  0.2293 -0.1225
  901YOPE   C1A12963   3.724  18.177   5.780  0.0842 -0.4238 -0.2011
  901YOPE   D2A12964   3.479  18.256   6.118  0.0536 -0.1827 -0.1233
  901YOPE   C3A12965   3.532  18.077   6.453 -0.0445 -0.0918 -0.1776
  901YOPE   C4A12966   3.759  17.739   6.641  0.4112  0.2730 -0.1619
  901YOPE   C1B12967   4.316  17.556   6.010  0.0898  0.0176 -0.0281
  901YOPE   C2B12968   4.287  17.091   6.065  0.4107 -0.3198 -0.1329
  901YOPE   D3B12969   4.525  16.964   6.413 -0.1931  0.0350 -0.3074
  901YOPE   C4B12970   4.866  17.016   6.669  0.2976 -0.0560 -0.1550
  902YOPE   NH312971  16.401  16.220   5.794  0.1731  0.1979 -0.2283
  902YOPE   PO412972  16.503  16.629   5.698 -0.1424 -0.1577  0.1566
  902YOPE   GL112973  16.303  16.562   6.162  0.1590 -0.1958 -0.4867
  902YOPE   GL212974  16.459  16.271   6.351 -0.2918 -0.0878 -0.2624
  902YOPE   C1A12975  15.967  16.414   6.419 -0.0943 -0.1541  0.2491
  902YOPE   D2A12976  15.717  16.590   6.728 -0.0957 -0.1253 -0.0187
  902YOPE   C3A12977  15.433  16.451   6.994 -0.1664 -0.1423 -0.1552
  902YOPE   C4A12978  15.197  16.291   7.234 -0.1385 -0.1294  0.1364
  902YOPE   C1B12979  16.657  16.205   6.753 -0.0432  0.1265  0.0229
  902YOPE   C2B12980  16.916  16.119   7.049 -0.1836  0.0052  0.0635
  902YOPE   D3B12981  17.131  16.172   7.403 -0.0140 -0.0558 -0.0345
  902YOPE   C4B12982  17.465  16.274   7.655  0.3866 -0.3146 -0.0618
  903YOPE   NH312983  18.717   6.341   5.901  0.0942  0.1384 -0.1495
  903YOPE   PO412984  18.316   6.608   5.888  0.2574  0.0755  0.1054
  903YOPE   GL112985  18.152   6.843   6.193  0.0739 -0.0682  0.1127
  903YOPE   GL212986  18.366   7.087   6.142  0.0720 -0.0056 -0.1125
  903YOPE   C1A12987  18.196   6.704   6.624 -0.1550  0.0667 -0.0518
  903YOPE   D2A12988  18.258   6.618   7.026 -0.0229 -0.1038  0.1036
  903YOPE   C3A12989  18.592   6.588   7.371  0.0586 -0.1204  0.2738
  903YOPE   C4A12990  18.646   6.897   7.758  0.1944  0.3829 -0.1051
  903YOPE   C1B12991  18.397   7.265   6.464  0.1288 -0.1394 -0.1597
  903YOPE   C2B12992  18.379   7.208   6.943  0.0303 -0.4416  0.0014
  903YOPE   D3B12993  18.259   7.050   7.333 -0.0788  0.2368  0.0410
  903YOPE   C4B12994  18.062   7.059   7.778  0.1195  0.2180 -0.1717
  904YOPE   NH312995   3.575  15.551   5.547 -0.0272 -0.1349  0.4515
  904YOPE   PO412996   3.949  15.457   5.582 -0.0200 -0.0105 -0.0808
  904YOPE   GL112997   3.849  15.447   6.010 -0.0147 -0.1210  0.1315
  904YOPE   GL212998   3.973  15.149   6.130 -0.1003 -0.2347 -0.0656
  904YOPE   C1A12999   3.921  15.720   6.349  0.0741  0.0549 -0.3215
  904YOPE   D2A13000   3.950  15.864   6.741 -0.1104  0.1681  0.1488
  904YOPE   C3A13001   4.038  15.817   7.126  0.0448 -0.1271 -0.2232
  904YOPE   C4A13002   4.224  15.991   7.458 -0.0713 -0.3809  0.0849
  904YOPE   C1B13003   3.760  15.365   6.597  0.3122  0.2189 -0.0003
  904YOPE   C2B13004   3.964  15.379   6.941 -0.1491 -0.0529 -0.1816
  904YOPE   D3B13005   3.999  15.159   7.298 -0.3260 -0.2026 -0.0248
  904YOPE   C4B13006   4.059  14.952   7.612  0.1035  0.0278 -0.0424
  905YOPE   NH313007   7.904   1.920   5.407  0.0743  0.0739 -0.2868
  905YOPE   PO413008   7.771   2.387   5.382  0.0438  0.1052 -0.0832
  905YOPE   GL113009   7.697   2.449   5.896  0.1082  0.1018  0.0316
  905YOPE   GL213010   7.661   2.738   5.879 -0.2676 -0.5542 -0.1718
  905YOPE   C1A13011   7.904   2.206   6.297  0.3175  0.0545  0.2253
  905YOPE   D2A13012   7.869   2.074   6.729  0.0136 -0.6012  0.1389
  905YOPE   C3A13013   8.299   2.106   6.960  0.0962 -0.1132  0.1028
  905YOPE   C4A13014   8.503   1.924   7.331  0.1383  0.3308  0.0754
  905YOPE   C1B13015   7.489   2.692   6.272  0.1152 -0.0307 -0.0707
  905YOPE   C2B13016   7.572   2.483   6.710 -0.0527 -0.1864 -0.1823
  905YOPE   D3B13017   7.833   2.463   7.171 -0.2521 -0.1181  0.2342
  905YOPE   C4B13018   7.949   2.552   7.541 -0.0467  0.2478 -0.0465
  906YOPE   NH313019   3.672  13.156   5.868 -0.2026  0.0479 -0.0597
  906YOPE   PO413020   3.520  13.547   5.696  0.0601  0.2546 -0.0565
  906YOPE   GL113021   3.589  13.561   6.193  0.0884 -0.0592  0.3479
  906YOPE   GL213022   3.883  13.766   6.370 -0.2736 -0.3490  0.1325
  906YOPE   C1A13023   3.411  13.467   6.517  0.4304  0.1558  0.0818
  906YOPE   D2A13024   3.381  13.491   6.926  0.3267  0.0081  0.1941
  906YOPE   C3A13025   3.388  13.133   7.180  0.0711  0.0370 -0.0514
  906YOPE   C4A13026   3.310  13.266   7.504  0.0696  0.1082 -0.0081
  906YOPE   C1B13027   3.873  13.662   6.768  0.0505 -0.0240 -0.0350
  906YOPE   C2B13028   3.875  13.490   7.192  0.0219 -0.2278 -0.3490
  906YOPE   D3B13029   3.833  13.294   7.499 -0.3529 -0.2630  0.2083
  906YOPE   C4B13030   3.899  13.080   7.755 -0.1878  0.0338 -0.0366
  907YOPE   NH313031  12.630   5.403   5.206  0.0503 -0.3425 -0.1632
  907YOPE   PO413032  12.225   5.285   5.007 -0.3573 -0.1153  0.2993
  907YOPE   GL113033  12.092   5.176   5.525 -0.0233  0.4430 -0.0912
  907YOPE   GL213034  12.342   5.447   5.735 -0.0695 -0.0396 -0.0580
  907YOPE   C1A13035  12.108   4.970   5.846 -0.2443  0.1599 -0.2007
  907YOPE   D2A13036  12.123   4.702   6.173 -0.2188  0.6333 -0.0984
  907YOPE   C3A13037  12.256   4.713   6.551 -0.2630 -0.0731 -0.1861
  907YOPE   C4A13038  12.145   5.163   6.702 -0.1368 -0.0465  0.2934
  907YOPE   C1B13039  12.262   5.351   6.149  0.0540  0.1711  0.1570
  907YOPE   C2B13040  12.151   5.569   6.373 -0.1746 -0.2317 -0.0849
  907YOPE   D3B13041  12.318   6.066   6.544 -0.1777  0.1104 -0.1318
  907YOPE   C4B13042  11.999   6.482   6.573 -0.2833  0.2568  0.0259
  908YOPE   NH313043   3.816   9.359   5.050  0.2210 -0.0315  0.1083
  908YOPE   PO413044   4.023   9.037   5.327 -0.4127  0.0769 -0.1348
  908YOPE   GL113045   4.020   8.803   5.641  0.0695  0.0719  0.4122
  908YOPE   GL213046   3.730   8.639   5.876  0.0699 -0.0172 -0.0180
  908YOPE   C1A13047   4.177   8.821   6.131 -0.3246  0.1918  0.0512
  908YOPE   D2A13048   4.211   8.710   6.604  0.0672  0.3031  0.1673
  908YOPE   C3A13049   4.398   8.703   6.994  0.0643  0.0928  0.2988
  908YOPE   C4A13050   4.495   8.550   7.457 -0.2262  0.2260 -0.1972
  908YOPE   C1B13051   3.742   8.732   6.311  0.0424  0.0145 -0.0645
  908YOPE   C2B13052   3.711   8.698   6.769 -0.2895 -0.0142 -0.2233
  908YOPE   D3B13053   3.915   8.684   7.073  0.2255 -0.0812 -0.0535
  908YOPE   C4B13054   4.010   8.688   7.622 -0.0853 -0.0835 -0.1287
  909YOPE   NH313055   1.481  18.333   5.664 -0.0074 -0.2101 -0.2246
  909YOPE   PO413056   1.862  18.188   5.574  0.1954 -0.2610 -0.2958
  909YOPE   GL113057   1.882  18.615   5.713 -0.2096 -0.2191  0.0002
  909YOPE   GL213058   1.681  18.821   5.501  0.0646 -0.0251 -0.0467
  909YOPE   C1A13059   1.905  18.824   6.048  0.0263 -0.2817  0.4434
  909YOPE   D2A13060   2.066  19.021   6.420 -0.2329 -0.1191 -0.1294
  909YOPE   C3A13061   1.910  19.234   6.798  0.2022  0.1622  0.3266
  909YOPE   C4A13062   1.593  19.329   7.106  0.0247 -0.1813 -0.0445
  909YOPE   C1B13063   1.658  19.250   5.745 -0.2563 -0.1663 -0.1861
  909YOPE   C2B13064   1.655  19.258   6.273 -0.1634 -0.1519 -0.1498
  909YOPE   D3B13065   1.440  19.091   6.699  0.0212 -0.0514  0.1646
  909YOPE   C4B13066   1.515  18.828   7.088  0.2453 -0.2341 -0.0841
  910YOPE   NH313067   5.350   4.930   4.801 -0.0382  0.3051  0.1090
  910YOPE   PO413068   5.180   5.361   4.977  0.3773 -0.0945  0.3593
  910YOPE   GL113069   5.186   5.387   5.486  0.2676  0.0057 -0.0163
  910YOPE   GL213070   5.010   5.185   5.709 -0.0208 -0.1320 -0.2866
  910YOPE   C1A13071   5.419   5.236   5.927 -0.1389 -0.0378 -0.2856
  910YOPE   D2A13072   5.396   5.164   6.361  0.1656 -0.3162 -0.0358
  910YOPE   C3A13073   5.408   5.367   6.734  0.1649 -0.0516  0.2108
  910YOPE   C4A13074   5.432   5.783   6.946  0.0225 -0.0217 -0.3811
  910YOPE   C1B13075   4.810   4.706   5.814  0.4388  0.0308  0.1822
  910YOPE   C2B13076   5.028   4.344   5.959 -0.1265 -0.3390  0.0958
  910YOPE   D3B13077   5.394   4.178   6.162 -0.0081  0.1790 -0.0576
  910YOPE   C4B13078   5.832   4.067   6.083  0.4048 -0.3798 -0.0255
  911YOPE   NH313079   3.111  13.797   5.917  0.0192 -0.2599 -0.0736
  911YOPE   PO413080   2.754  13.952   5.840  0.1571  0.3857  0.3050
  911YOPE   GL113081   2.752  13.886   6.337  0.0955 -0.0665  0.1723
  911YOPE   GL213082   2.837  13.616   6.325  0.0995  0.1886 -0.2795
  911YOPE   C1A13083   2.659  14.156   6.700 -0.2276  0.2426  0.2049
  911YOPE   D2A13084   3.062  14.189   6.918 -0.1886  0.1324 -0.2778
  911YOPE   C3A13085   3.141  14.373   7.342 -0.1696  0.3030  0.0545
  911YOPE   C4A13086   3.419  14.330   7.693  0.3175 -0.0774  0.1090
  911YOPE   C1B13087   2.749  13.721   6.867  0.1283  0.0967 -0.0954
  911YOPE   C2B13088   2.641  13.877   7.160 -0.0511  0.0137  0.0338
  911YOPE   D3B13089   2.444  13.927   7.581 -0.2388 -0.0154 -0.0477
  911YOPE   C4B13090   2.101  13.744   7.831 -0.0481  0.0867 -0.0946
  912YOPE   NH313091   9.380   7.105   5.400  0.1565 -0.1060 -0.1442
  912YOPE   PO413092   9.703   6.829   5.341  0.1594 -0.1205  0.1129
  912YOPE   GL113093   9.618   6.899   5.753 -0.4304 -0.3212 -0.2142
  912YOPE   GL213094   9.672   7.333   5.784  0.0474 -0.1583  0.1586
  912YOPE   C1A13095   9.563   6.876   6.239  0.0398 -0.0964  0.1871
  912YOPE   D2A13096   9.408   7.177   6.394 -0.1489  0.3357  0.1590
  912YOPE   C3A13097   9.279   7.055   6.784 -0.2737  0.4127 -0.3006
  912YOPE   C4A13098   9.084   7.258   7.163 -0.2722 -0.0003 -0.0362
  912YOPE   C1B13099   9.870   7.240   6.195  0.1872  0.6139 -0.3743
  912YOPE   C2B13100   9.858   7.255   6.607 -0.1667  0.1046  0.2493
  912YOPE   D3B13101   9.693   7.424   6.996  0.1240  0.1224 -0.1748
  912YOPE   C4B13102   9.357   7.637   7.211 -0.1522  0.3046  0.2476
  913YOPE   NH313103   6.422   2.077   5.399  0.0499  0.1715 -0.0654
  913YOPE   PO413104   6.400   2.443   5.203  0.0181  0.1029 -0.3909
  913YOPE   GL113105   6.632   2.474   5.620  0.2840  0.1049  0.2391
  913YOPE   GL213106   6.545   2.225   5.891 -0.3087 -0.1977  0.1340
  913YOPE   C1A13107   6.466   2.739   5.960  0.1521 -0.0059  0.0756
  913YOPE   D2A13108   6.148   2.771   6.364 -0.0642 -0.0853  0.0439
  913YOPE   C3A13109   5.731   2.858   6.527  0.1035 -0.1247  0.0182
  913YOPE   C4A13110   5.396   2.683   6.849  0.1149  0.2174 -0.0160
  913YOPE   C1B13111   6.339   2.259   6.297 -0.1299 -0.3487  0.3120
  913YOPE   C2B13112   6.136   2.251   6.617  0.0621 -0.0098 -0.1960
  913YOPE   D3B13113   6.001   2.584   6.851 -0.3855 -0.2254  0.2267
  913YOPE   C4B13114   6.278   2.753   7.209  0.0087  0.2630 -0.1535
  914YOPE   NH313115  14.958  18.167   5.851 -0.1581 -0.0562 -0.1670
  914YOPE   PO413116  15.028  17.724   5.835 -0.1009 -0.2714  0.0250
  914YOPE   GL113117  15.247  17.823   6.153 -0.0074 -0.1304 -0.2043
  914YOPE   GL213118  15.356  18.097   6.384 -0.2010  0.0388 -0.4408
  914YOPE   C1A13119  15.250  17.627   6.545 -0.1365 -0.3629  0.2080
  914YOPE   D2A13120  15.131  17.466   6.943  0.1521 -0.3162  0.0963
  914YOPE   C3A13121  14.965  17.435   7.367  0.0508  0.1450 -0.0489
  914YOPE   C4A13122  14.866  17.015   7.610 -0.0026 -0.1588  0.2874
  914YOPE   C1B13123  15.436  18.345   6.857  0.2650 -0.1010 -0.0237
  914YOPE   C2B13124  15.628  18.270   7.199 -0.3783  0.0026  0.1165
  914YOPE   D3B13125  15.810  17.968   7.471  0.1001 -0.1002  0.1275
  914YOPE   C4B13126  15.901  17.569   7.429 -0.0103  0.1189 -0.3296
  915YOPE   NH313127   2.848   9.331   5.347  0.2127 -0.2124 -0.0653
  915YOPE   PO413128   2.882   8.929   5.521 -0.1336  0.0087  0.0649
  915YOPE   GL113129   2.584   8.796   5.943  0.1552 -0.1379 -0.2139
  915YOPE   GL213130   2.453   8.457   5.905 -0.1193 -0.2399 -0.1756
  915YOPE   C1A13131   2.548   8.714   6.350 -0.0921  0.0718  0.0408
  915YOPE   D2A13132   2.309   8.449   6.534 -0.3019 -0.0591  0.5026
  915YOPE   C3A13133   2.112   8.353   6.797 -0.0398 -0.2005 -0.1070
  915YOPE   C4A13134   1.996   8.054   7.126 -0.1714  0.2103  0.2729
  915YOPE   C1B13135   2.070   8.680   6.169  0.0640 -0.1526 -0.0485
  915YOPE   C2B13136   2.041   8.841   6.678  0.0452  0.0985  0.1676
  915YOPE   D3B13137   1.917   8.691   7.143 -0.0559  0.0015  0.4485
  915YOPE   C4B13138   1.557   8.637   7.349 -0.0360  0.2514 -0.2035
  916YOPE   NH313139  10.943  12.759   5.230 -0.4024  0.1421 -0.2595
  916YOPE   PO413140  10.620  13.087   5.418  0.2203 -0.0273 -0.1460
  916YOPE   GL113141  10.658  12.935   5.896 -0.0160 -0.4158  0.1657
  916YOPE   GL213142  10.881  12.766   6.023  0.0538 -0.0426  0.1378
  916YOPE   C1A13143  10.381  12.902   6.271 -0.1922 -0.1843  0.1513
  916YOPE   D2A13144  10.283  13.043   6.652  0.1037  0.0249  0.1218
  916YOPE   C3A13145   9.946  12.843   6.842 -0.1635 -0.1731  0.1360
  916YOPE   C4A13146   9.866  12.710   7.242 -0.2421  0.0076  0.3753
  916YOPE   C1B13147  11.147  12.962   6.332  0.2683  0.0462 -0.0967
  916YOPE   C2B13148  11.295  13.382   6.566 -0.0737 -0.1390  0.5040
  916YOPE   D3B13149  11.442  13.586   6.900  0.1543 -0.2533 -0.0028
  916YOPE   C4B13150  11.592  13.368   7.379  0.4262  0.2823 -0.0758
  917YOPE   NH313151  10.234   3.889   4.607 -0.0784 -0.1681 -0.0198
  917YOPE   PO413152  10.215   3.620   4.970 -0.1356 -0.0084 -0.0070
  917YOPE   GL113153  10.061   3.659   5.468  0.0582  0.0878 -0.1449
  917YOPE   GL213154   9.751   3.799   5.666  0.0708  0.1632  0.0132
  917YOPE   C1A13155  10.190   3.770   5.897  0.0537 -0.1137  0.0333
  917YOPE   D2A13156  10.074   4.041   6.298  0.3205  0.2089 -0.1807
  917YOPE   C3A13157  10.122   4.089   6.767 -0.1768  0.2437 -0.2614
  917YOPE   C4A13158  10.446   3.969   6.973 -0.1010 -0.3453 -0.2770
  917YOPE   C1B13159   9.833   4.160   5.770 -0.0720  0.0395 -0.2246
  917YOPE   C2B13160   9.711   4.341   6.147  0.0848 -0.0090 -0.1648
  917YOPE   D3B13161   9.827   4.446   6.592 -0.3230  0.1987 -0.4431
  917YOPE   C4B13162   9.880   4.390   7.044  0.2402  0.0914  0.2369
  918YOPE   NH313163  18.808   5.593   5.656 -0.2741 -0.1846  0.0172
  918YOPE   PO413164  18.890   6.006   5.550 -0.4124  0.2784  0.1350
  918YOPE   GL113165  18.959   5.901   6.027  0.1346  0.1927  0.3043
  918YOPE   GL213166  19.212   6.176   6.018 -0.2246 -0.0579 -0.2769
  918YOPE   C1A13167  19.001   5.788   6.423  0.1234 -0.3102 -0.1969
  918YOPE   D2A13168  19.181   5.883   6.803  0.0615  0.2239 -0.0943
  918YOPE   C3A13169  19.600   5.960   6.745  0.2229 -0.0522 -0.1784
  918YOPE   C4A13170  19.818   6.171   6.388 -0.0355  0.0153  0.0348
  918YOPE   C1B13171  19.304   6.190   6.446  0.2807 -0.3031 -0.1295
  918YOPE   C2B13172  19.451   6.498   6.875 -0.0093  0.1361 -0.0165
  918YOPE   D3B13173  19.613   6.500   7.282 -0.0005 -0.2188 -0.1040
  918YOPE   C4B13174  19.990   6.311   7.567  0.0500  0.0178  0.0434
  919YOPE   NH313175   2.957   4.444   5.528  0.2232 -0.4040  0.0341
  919YOPE   PO413176   2.777   4.072   5.610 -0.2835 -0.0380 -0.2469
  919YOPE   GL113177   3.054   3.966   5.811  0.2808 -0.0432  0.2506
  919YOPE   GL213178   3.402   3.816   5.800 -0.0152 -0.0618  0.2706
  919YOPE   C1A13179   3.153   3.981   6.230 -0.1752  0.1741 -0.0096
  919YOPE   D2A13180   3.265   3.888   6.653  0.0678 -0.1827  0.1412
  919YOPE   C3A13181   3.048   3.557   6.912 -0.2431  0.0753 -0.1615
  919YOPE   C4A13182   3.071   3.212   7.135 -0.1696  0.0109  0.2395
  919YOPE   C1B13183   3.482   3.559   6.164  0.3756  0.4096 -0.1483
  919YOPE   C2B13184   3.173   3.416   6.463  0.3928 -0.0372 -0.1903
  919YOPE   D3B13185   2.934   3.075   6.627  0.3396  0.1289  0.2185
  919YOPE   C4B13186   2.676   2.731   6.931 -0.0492 -0.0179 -0.3949
  920YOPE   NH313187  12.409  13.138   5.439 -0.1517  0.0065 -0.1916
  920YOPE   PO413188  12.348  12.657   5.466  0.2110  0.1410  0.0713
  920YOPE   GL113189  12.466  12.468   5.814  0.5544  0.0750  0.1713
  920YOPE   GL213190  12.689  12.218   5.716 -0.1773 -0.1194  0.3126
  920YOPE   C1A13191  12.111  12.297   6.022  0.0125  0.1176  0.0319
  920YOPE   D2A13192  11.895  12.123   6.336 -0.1602  0.1883  0.1262
  920YOPE   C3A13193  11.564  12.004   6.256 -0.2583 -0.0686 -0.1545
  920YOPE   C4A13194  11.450  11.717   6.392  0.0015  0.1899 -0.0834
  920YOPE   C1B13195  12.770  12.466   6.164  0.0990  0.0028 -0.0911
  920YOPE   C2B13196  12.949  12.411   6.586  0.0158 -0.1827 -0.2922
  920YOPE   D3B13197  13.120  12.263   6.832  0.0483  0.0319 -0.0041
  920YOPE   C4B13198  13.244  12.261   7.278 -0.0509  0.1520 -0.0685
  921YOPE   NH313199   0.531   0.411   5.375  0.0091 -0.0655  0.0687
  921YOPE   PO413200   0.327   0.760   5.404  0.2921  0.4642 -0.2661
  921YOPE   GL113201   0.220   1.064   5.791  0.0233 -0.0087 -0.0743
  921YOPE   GL213202   0.466   0.884   5.984 -0.1463  0.0916  0.0594
  921YOPE   C1A13203   0.000   1.004   6.213  0.2048 -0.3292 -0.0922
  921YOPE   D2A13204  -0.134   0.880   6.529  0.0757 -0.1489 -0.0888
  921YOPE   C3A13205  -0.315   0.458   6.506  0.2730  0.3513 -0.0691
  921YOPE   C4A13206  -0.636   0.012   6.534  0.1092  0.0456 -0.1666
  921YOPE   C1B13207   0.531   0.915   6.365  0.0849 -0.0877 -0.2504
  921YOPE   C2B13208   0.709   0.974   6.840 -0.2905  0.1001 -0.3374
  921YOPE   D3B13209   0.890   1.049   7.236 -0.2557 -0.2045 -0.0351
  921YOPE   C4B13210   1.268   1.064   7.423  0.1293  0.1386  0.0034
  922YOPE   NH313211  12.100   2.722   4.669  0.0601 -0.2004 -0.0951
  922YOPE   PO413212  11.948   2.800   5.205 -0.3368 -0.2350  0.2164
  922YOPE   GL113213  11.829   2.744   5.569 -0.1089  0.4674  0.1247
  922YOPE   GL213214  11.494   2.794   5.688 -0.0763  0.0028  0.5297
  922YOPE   C1A13215  11.790   3.105   5.900  0.4421 -0.0220  0.0588
  922YOPE   D2A13216  11.691   3.161   6.314 -0.0481 -0.1548  0.2340
  922YOPE   C3A13217  11.791   3.321   6.691  0.2056  0.0276  0.0960
  922YOPE   C4A13218  11.797   3.594   7.142  0.0761  0.0860  0.0834
  922YOPE   C1B13219  11.435   2.749   6.184 -0.0131  0.0920  0.1606
  922YOPE   C2B13220  11.339   2.696   6.627  0.3091  0.0452  0.2793
  922YOPE   D3B13221  11.529   2.537   7.052 -0.0457 -0.0634 -0.2728
  922YOPE   C4B13222  11.604   2.799   7.372  0.1394  0.0046 -0.0268
  923YOPE   NH313223   0.582   2.005   5.652 -0.1969  0.0503  0.1260
  923YOPE   PO413224   0.245   2.053   5.728 -0.0706 -0.2858 -0.1028
  923YOPE   GL113225   0.251   2.390   6.079 -0.0170 -0.1257  0.1213
  923YOPE   GL213226  -0.032   2.200   6.201  0.1168 -0.2461  0.5764
  923YOPE   C1A13227   0.374   2.488   6.509  0.0146  0.0529 -0.2109
  923YOPE   D2A13228   0.343   2.782   6.732 -0.0588 -0.1173  0.0945
  923YOPE   C3A13229   0.373   2.709   7.149 -0.2668  0.0726  0.4932
  923YOPE   C4A13230   0.652   2.472   7.559  0.2859 -0.1618  0.2008
  923YOPE   C1B13231  -0.103   2.293   6.585  0.1670 -0.1373 -0.1731
  923YOPE   C2B13232  -0.032   2.330   6.984  0.0098 -0.0516 -0.0634
  923YOPE   D3B13233   0.255   2.235   7.350  0.1553  0.2546 -0.3423
  923YOPE   C4B13234   0.206   2.313   7.760 -0.3953 -0.1246  0.1805
  924YOPE   NH313235  18.912  12.895   5.662  0.0356  0.1419 -0.2345
  924YOPE   PO413236  18.803  13.342   5.711  0.1203 -0.3613  0.1642
  924YOPE   GL113237  19.118  13.300   6.003  0.1007 -0.3087  0.0670
  924YOPE   GL213238  19.184  13.575   6.224 -0.1298 -0.0562  0.1790
  924YOPE   C1A13239  19.332  13.053   6.411  0.1200  0.3653  0.2425
  924YOPE   D2A13240  19.285  13.131   6.803 -0.0924 -0.0180  0.0815
  924YOPE   C3A13241  19.567  13.348   7.155 -0.2169 -0.0707  0.2667
  924YOPE   C4A13242  19.367  13.408   7.532  0.1314 -0.0171 -0.3809
  924YOPE   C1B13243  19.042  13.493   6.633  0.0762  0.1062  0.1065
  924YOPE   C2B13244  19.102  13.503   7.080  0.1710  0.2235 -0.0686
  924YOPE   D3B13245  18.920  13.602   7.462 -0.3950  0.1506 -0.2386
  924YOPE   C4B13246  18.974  13.679   7.940  0.0687  0.3339 -0.1199
  925YOPE   NH313247   0.510  16.500   5.697 -0.2615  0.0561 -0.1245
  925YOPE   PO413248   0.555  16.875   5.885  0.0267  0.1330  0.1360
  925YOPE   GL113249   0.633  16.977   6.238 -0.0937  0.3159  0.0481
  925YOPE   GL213250   0.910  17.210   6.266 -0.1173 -0.0344 -0.0721
  925YOPE   C1A13251   0.746  16.763   6.595 -0.0516  0.0077  0.0661
  925YOPE   D2A13252   0.978  16.757   7.032  0.1660 -0.1241  0.1680
  925YOPE   C3A13253   1.029  17.215   7.141  0.0349 -0.1575 -0.2179
  925YOPE   C4A13254   0.941  17.566   7.441 -0.0856 -0.1025 -0.0860
  925YOPE   C1B13255   1.112  17.068   6.620 -0.0639  0.0021  0.2382
  925YOPE   C2B13256   1.406  17.005   6.967 -0.2236 -0.2356 -0.2087
  925YOPE   D3B13257   1.379  16.766   7.330 -0.2331  0.0669 -0.0118
  925YOPE   C4B13258   1.398  16.894   7.781 -0.0569 -0.0457 -0.2158
  926YOPE   NH313259   8.784  14.868   5.277 -0.1786  0.2564 -0.2081
  926YOPE   PO413260   9.048  14.608   5.616  0.0373  0.0867  0.0167
  926YOPE   GL113261   8.666  14.626   5.846 -0.7586 -0.0775 -0.1126
  926YOPE   GL213262   8.645  14.925   5.792  0.1495  0.0057  0.0919
  926YOPE   C1A13263   8.579  14.562   6.324 -0.1149 -0.0957 -0.0308
  926YOPE   D2A13264   8.508  14.527   6.797 -0.1056  0.0386  0.0924
  926YOPE   C3A13265   8.635  14.441   7.200 -0.1494  0.0805 -0.0135
  926YOPE   C4A13266   8.679  14.243   7.549  0.1634  0.0015  0.0116
  926YOPE   C1B13267   8.748  15.025   6.221 -0.0864  0.0751  0.1816
  926YOPE   C2B13268   8.732  15.008   6.647 -0.0613 -0.0726 -0.0106
  926YOPE   D3B13269   8.715  14.899   7.035 -0.1752  0.0260  0.1581
  926YOPE   C4B13270   8.590  14.865   7.467 -0.0736 -0.0214 -0.2463
  927YOPE   NH313271  12.834  12.600   5.444 -0.0661  0.2073  0.0281
  927YOPE   PO413272  12.965  13.025   5.308 -0.1590  0.1759 -0.2282
  927YOPE   GL113273  12.895  13.364   5.686 -0.0412  0.3674  0.0181
  927YOPE   GL213274  13.005  13.255   5.929  0.3686  0.0031 -0.1484
  927YOPE   C1A13275  12.576  13.519   6.060  0.0548 -0.2680 -0.0773
  927YOPE   D2A13276  12.148  13.723   6.258  0.2202  0.1264 -0.2577
  927YOPE   C3A13277  12.225  13.545   6.674  0.0753  0.1638  0.3381
  927YOPE   C4A13278  12.465  13.390   6.996 -0.2077 -0.0917  0.0033
  927YOPE   C1B13279  13.078  13.262   6.390 -0.2691  0.2824  0.1082
  927YOPE   C2B13280  13.003  13.304   6.851  0.1337 -0.4712 -0.1767
  927YOPE   D3B13281  12.913  13.161   7.213 -0.1094 -0.1036  0.1166
  927YOPE   C4B13282  12.828  13.098   7.678 -0.3895 -0.2340 -0.1014
  928YOPE   NH313283   6.834  14.037   5.994  0.2286  0.1008  0.0588
  928YOPE   PO413284   6.752  13.535   5.891  0.0311 -0.0763 -0.0178
  928YOPE   GL113285   6.982  13.538   6.269 -0.1469 -0.1080 -0.0504
  928YOPE   GL213286   7.064  13.299   6.261 -0.0422  0.2575  0.0613
  928YOPE   C1A13287   7.068  13.775   6.735 -0.1478 -0.0740  0.1669
  928YOPE   D2A13288   7.206  13.855   7.194 -0.1474  0.0826 -0.0134
  928YOPE   C3A13289   6.944  13.607   7.514  0.1453 -0.1238 -0.2116
  928YOPE   C4A13290   6.841  13.636   7.922  0.1451 -0.0845 -0.0469
  928YOPE   C1B13291   7.064  13.260   6.674 -0.0470 -0.2398 -0.0762
  928YOPE   C2B13292   7.071  13.298   7.006 -0.1306 -0.3140  0.4224
  928YOPE   D3B13293   7.216  13.226   7.406  0.0780 -0.0325  0.0094
  928YOPE   C4B13294   7.208  13.282   7.812  0.0332  0.0893 -0.2847
  929YOPE   NH313295  13.071  11.607   4.800  0.1308  0.1932 -0.3637
  929YOPE   PO413296  12.771  11.696   4.926 -0.1517  0.1568  0.2939
  929YOPE   GL113297  12.958  11.625   5.324 -0.0950 -0.1780  0.0383
  929YOPE   GL213298  12.939  11.410   5.512  0.0792  0.0636 -0.0460
  929YOPE   C1A13299  13.332  11.683   5.665 -0.1151  0.0689  0.0946
  929YOPE   D2A13300  13.543  11.682   6.037  0.2463 -0.0245 -0.1483
  929YOPE   C3A13301  13.961  11.593   5.933 -0.0307 -0.0108  0.0429
  929YOPE   C4A13302  14.350  11.326   6.134  0.2832 -0.0274  0.1529
  929YOPE   C1B13303  13.146  11.415   6.011 -0.0074 -0.1334  0.1890
  929YOPE   C2B13304  13.060  11.518   6.399  0.0958 -0.0867  0.1012
  929YOPE   D3B13305  12.584  11.456   6.392  0.1360 -0.2665 -0.1737
  929YOPE   C4B13306  12.234  11.622   6.364 -0.2398 -0.0516  0.0231
  930YOPE   NH313307  12.199  14.051   5.714 -0.4446  0.2218 -0.0683
  930YOPE   PO413308  12.548  14.281   5.487 -0.3155 -0.0425 -0.1334
  930YOPE   GL113309  12.855  14.426   5.794 -0.0466 -0.1575  0.1073
  930YOPE   GL213310  12.790  14.174   5.977  0.1061  0.0967  0.1301
  930YOPE   C1A13311  13.116  14.406   6.176  0.0311  0.0764  0.1683
  930YOPE   D2A13312  13.188  14.298   6.572 -0.0827 -0.2703  0.1094
  930YOPE   C3A13313  13.495  14.673   6.772 -0.0384  0.2635 -0.0542
  930YOPE   C4A13314  13.541  15.025   6.429  0.2300 -0.2410 -0.3346
  930YOPE   C1B13315  12.523  14.027   6.302 -0.2419  0.0812 -0.2263
  930YOPE   C2B13316  12.310  14.084   6.699 -0.0546  0.1116  0.0773
  930YOPE   D3B13317  12.134  14.066   7.041  0.2394  0.1060 -0.1291
  930YOPE   C4B13318  11.892  13.713   7.227  0.0269 -0.0147  0.1329
  931YOPE   NH313319  12.013  18.708   5.225 -0.0132 -0.0446 -0.0741
  931YOPE   PO413320  12.149  19.153   5.302  0.0591 -0.2065 -0.1197
  931YOPE   GL113321  12.228  19.250   5.873  0.2601 -0.0656 -0.1835
  931YOPE   GL213322  12.190  19.055   6.123  0.0658 -0.0789  0.2997
  931YOPE   C1A13323  11.973  19.499   6.205  0.2583 -0.2828 -0.1486
  931YOPE   D2A13324  12.066  19.553   6.538  0.0881 -0.0108 -0.0428
  931YOPE   C3A13325  11.850  19.466   6.893 -0.0303 -0.0375  0.2563
  931YOPE   C4A13326  11.776  19.158   7.336 -0.4295  0.0749 -0.2473
  931YOPE   C1B13327  12.117  19.073   6.506  0.0747  0.2432 -0.1288
  931YOPE   C2B13328  12.214  19.131   6.963  0.1478 -0.1903 -0.1292
  931YOPE   D3B13329  12.275  19.376   7.315 -0.1203 -0.2869  0.6022
  931YOPE   C4B13330  12.353  19.389   7.641  0.0540  0.0052 -0.2834
  932YOPE   NH313331  10.627   2.126   5.311 -0.1311  0.0358 -0.1923
  932YOPE   PO413332  10.708   1.598   5.382  0.0290  0.0166 -0.5662
  932YOPE   GL113333  10.445   1.850   5.673 -0.0537 -0.1051 -0.0132
  932YOPE   GL213334  10.345   2.157   5.769 -0.1316 -0.0042  0.1963
  932YOPE   C1A13335  10.264   1.725   6.115  0.1022  0.0001 -0.0403
  932YOPE   D2A13336  10.203   1.690   6.574  0.2162 -0.2185 -0.0146
  932YOPE   C3A13337  10.147   1.286   6.636  0.1672  0.0195  0.4397
  932YOPE   C4A13338   9.835   0.935   6.629  0.0742 -0.2186  0.1417
  932YOPE   C1B13339  10.571   2.136   6.210  0.1901  0.0974 -0.2073
  932YOPE   C2B13340  10.717   1.876   6.543 -0.0747 -0.2913 -0.4535
  932YOPE   D3B13341  10.833   1.749   6.971  0.0375 -0.3062  0.0661
  932YOPE   C4B13342  11.040   1.616   7.271 -0.1853 -0.1041  0.1064
  933YOPE   NH313343  13.813   7.176   5.245 -0.1065  0.0950 -0.1354
  933YOPE   PO413344  14.204   7.505   5.249 -0.0061 -0.1784  0.2589
  933YOPE   GL113345  14.091   7.481   5.602  0.3910  0.1657  0.5962
  933YOPE   GL213346  13.852   7.189   5.816  0.2277  0.3451 -0.0103
  933YOPE   C1A13347  13.968   7.633   6.010  0.0487  0.0344  0.0291
  933YOPE   D2A13348  13.815   7.717   6.340  0.3273 -0.2736 -0.0638
  933YOPE   C3A13349  13.858   7.373   6.717  0.2494  0.2020  0.1095
  933YOPE   C4A13350  13.706   7.093   7.006  0.1735  0.3717  0.0348
  933YOPE   C1B13351  13.771   7.152   6.249 -0.3379  0.4769  0.0480
  933YOPE   C2B13352  13.520   7.025   6.582  0.4506  0.4581 -0.0255
  933YOPE   D3B13353  13.284   6.810   6.883 -0.0807 -0.2793  0.1537
  933YOPE   C4B13354  13.238   6.419   7.156  0.0587 -0.2820  0.1473
  934YOPE   NH313355  13.053   0.976   5.339 -0.1530 -0.0448 -0.4253
  934YOPE   PO413356  13.370   0.875   5.521  0.2600 -0.2857 -0.0036
  934YOPE   GL113357  13.435   0.980   5.874 -0.0959  0.0611  0.2783
  934YOPE   GL213358  13.617   0.700   6.025 -0.0269  0.2972  0.3163
  934YOPE   C1A13359  13.328   1.041   6.281 -0.0014 -0.0121  0.1613
  934YOPE   D2A13360  12.806   0.976   6.367 -0.3954 -0.3739 -0.0356
  934YOPE   C3A13361  12.786   1.099   6.778 -0.1964  0.0541  0.0088
  934YOPE   C4A13362  12.896   1.378   6.960 -0.2507  0.2920 -0.4710
  934YOPE   C1B13363  13.661   0.705   6.537  0.1584  0.3791  0.0241
  934YOPE   C2B13364  13.953   0.697   6.956  0.1006 -0.1766  0.1012
  934YOPE   D3B13365  13.909   0.895   7.386 -0.0962  0.3297 -0.0607
  934YOPE   C4B13366  13.622   1.149   7.485 -0.0728 -0.1450 -0.0069
  935YOPE   NH313367   6.237   8.527   5.183 -0.2359 -0.2441 -0.1081
  935YOPE   PO413368   6.280   8.803   5.524  0.2200 -0.3034 -0.1915
  935YOPE   GL113369   6.333   8.678   5.942  0.1333  0.1151 -0.3721
  935YOPE   GL213370   6.630   8.619   5.882  0.1726  0.1497 -0.0919
  935YOPE   C1A13371   6.223   8.355   6.133  0.0093  0.1114 -0.0119
  935YOPE   D2A13372   6.068   8.046   6.442 -0.0979  0.2138  0.0011
  935YOPE   C3A13373   6.111   8.128   6.969  0.1562  0.2829  0.1416
  935YOPE   C4A13374   5.792   8.208   7.356  0.2526 -0.1027 -0.0701
  935YOPE   C1B13375   6.646   8.564   6.347 -0.0177  0.0401  0.2121
  935YOPE   C2B13376   6.904   8.443   6.699  0.0889 -0.1099  0.3814
  935YOPE   D3B13377   6.778   8.591   7.139 -0.1099  0.1035 -0.4188
  935YOPE   C4B13378   6.489   8.357   7.391  0.0747 -0.0880 -0.0658
  936YOPE   NH313379  11.279   5.461   5.563 -0.2721 -0.0613 -0.3741
  936YOPE   PO413380  10.925   5.875   5.386  0.2121 -0.0773  0.0154
  936YOPE   GL113381  10.868   5.734   5.771  0.1321  0.1024  0.0238
  936YOPE   GL213382  10.942   5.477   5.975 -0.1736 -0.2170 -0.4766
  936YOPE   C1A13383  10.541   5.787   6.139  0.1895  0.0219  0.2080
  936YOPE   D2A13384  10.404   5.545   6.476  0.0860  0.1516  0.0990
  936YOPE   C3A13385  10.528   5.726   6.944  0.1293  0.0473 -0.2886
  936YOPE   C4A13386  10.528   6.094   7.239 -0.2147  0.2324  0.2140
  936YOPE   C1B13387  10.835   5.396   6.408  0.0703 -0.0238  0.1541
  936YOPE   C2B13388  10.776   5.339   6.810  0.2283  0.1937 -0.0467
  936YOPE   D3B13389  10.826   5.522   7.230 -0.3411  0.3930 -0.0444
  936YOPE   C4B13390  10.904   5.637   7.571 -0.1462 -0.2533  0.0971
  937YOPE   NH313391   9.381  12.093   5.279 -0.0081 -0.0579  0.2135
  937YOPE   PO413392   9.382  11.700   5.412  0.3362 -0.0376 -0.2069
  937YOPE   GL113393   9.396  11.493   5.823  0.1449 -0.0699  0.4541
  937YOPE   GL213394   9.162  11.610   5.984 -0.2872  0.1052  0.0413
  937YOPE   C1A13395   9.756  11.622   6.048 -0.0136  0.0113  0.0763
  937YOPE   D2A13396  10.117  11.873   6.328  0.0031  0.0142 -0.2112
  937YOPE   C3A13397  10.234  11.685   6.689  0.1534 -0.2025 -0.4420
  937YOPE   C4A13398  10.020  11.385   6.932  0.1243  0.2231 -0.1730
  937YOPE   C1B13399   9.262  11.807   6.400 -0.0747  0.1842  0.0384
  937YOPE   C2B13400   9.237  12.125   6.671  0.1291 -0.0178 -0.1577
  937YOPE   D3B13401   9.233  11.992   7.086  0.3195  0.2118 -0.2424
  937YOPE   C4B13402   9.327  11.937   7.433 -0.2490 -0.1040 -0.3552
  938YOPE   NH313403  15.787  10.744   5.480  0.1181  0.0788 -0.0686
  938YOPE   PO413404  16.225  10.480   5.399 -0.1967  0.2335  0.1097
  938YOPE   GL113405  16.386  10.455   5.773 -0.2505 -0.1415 -0.0771
  938YOPE   GL213406  16.040  10.390   5.857 -0.0741  0.0269 -0.0342
  938YOPE   C1A13407  16.636  10.787   5.920 -0.0668  0.1411 -0.0736
  938YOPE   D2A13408  16.759  11.089   6.220  0.0306 -0.1825  0.1350
  938YOPE   C3A13409  16.404  11.208   6.499  0.0534 -0.0605 -0.3044
  938YOPE   C4A13410  16.284  11.154   6.870 -0.1289 -0.0287  0.2737
  938YOPE   C1B13411  16.205  10.320   6.261  0.3668 -0.1436  0.1376
  938YOPE   C2B13412  16.185  10.200   6.708  0.0564  0.0408  0.1528
  938YOPE   D3B13413  16.039  10.300   7.160 -0.0035 -0.1747  0.0186
  938YOPE   C4B13414  15.876  10.306   7.558  0.0438 -0.3504  0.0322
  939YOPE   NH313415  11.414   0.850   5.102 -0.0632  0.0796 -0.0841
  939YOPE   PO413416  11.123   1.133   5.314 -0.0237  0.1108 -0.1407
  939YOPE   GL113417  11.072   1.482   5.713 -0.1677 -0.1381  0.1379
  939YOPE   GL213418  11.004   1.795   5.697 -0.2059 -0.2988 -0.1177
  939YOPE   C1A13419  10.845   1.555   6.122 -0.2628 -0.0335  0.0456
  939YOPE   D2A13420  10.671   1.390   6.487  0.1854 -0.1537 -0.1630
  939YOPE   C3A13421  10.804   1.194   6.869 -0.2585  0.0499  0.4337
  939YOPE   C4A13422  10.682   1.289   7.327  0.0233  0.4268  0.0974
  939YOPE   C1B13423  11.355   1.823   5.931  0.0244  0.2307 -0.3620
  939YOPE   C2B13424  11.698   1.723   5.895  0.0201  0.0532  0.0881
  939YOPE   D3B13425  12.080   1.814   5.868  0.1562  0.1555 -0.0094
  939YOPE   C4B13426  12.431   1.774   6.006 -0.3209 -0.0295 -0.0315
  940YOPE   NH313427   7.715   8.627   4.960 -0.2717 -0.0535  0.0994
  940YOPE   PO413428   7.578   9.000   5.120  0.0549 -0.2854 -0.1152
  940YOPE   GL113429   7.388   9.114   5.549 -0.0109  0.0512  0.0856
  940YOPE   GL213430   7.392   8.839   5.796 -0.1620 -0.3199 -0.2256
  940YOPE   C1A13431   7.318   9.367   5.893  0.0340  0.1927 -0.0420
  940YOPE   D2A13432   7.213   9.363   6.301 -0.0940  0.0105  0.2120
  940YOPE   C3A13433   7.448   9.493   6.607  0.3631  0.0822  0.0305
  940YOPE   C4A13434   7.712   9.837   6.639  0.2029  0.0744  0.0847
  940YOPE   C1B13435   7.607   8.950   6.076 -0.0287 -0.1612 -0.3610
  940YOPE   C2B13436   7.660   8.937   6.579  0.2286 -0.3799 -0.0938
  940YOPE   D3B13437   7.846   8.747   6.958  0.0405  0.0663  0.0579
  940YOPE   C4B13438   7.682   8.444   7.275 -0.1574 -0.0309 -0.4498
  941POPC   NC313439   4.858   2.249   4.612  0.0260 -0.0168  0.0516
  941POPC   PO413440   5.304   2.295   4.866 -0.1050  0.1612  0.0554
  941POPC   GL113441   5.012   2.297   5.173 -0.0226 -0.3234 -0.1454
  941POPC   GL213442   5.229   2.505   5.369 -0.2291  0.0357 -0.0527
  941POPC   C1A13443   4.671   2.285   5.447  0.1168  0.0387 -0.1266
  941POPC   D2A13444   4.489   2.669   5.647 -0.1880  0.2806 -0.1814
  941POPC   C3A13445   4.644   3.073   5.696  0.0527  0.3316 -0.1967
  941POPC   C4A13446   4.969   3.367   5.710  0.1915 -0.0563 -0.1113
  941POPC   C1B13447   5.578   2.529   5.681 -0.2792 -0.1233  0.1006
  941POPC   C2B13448   5.744   2.433   6.189 -0.1888 -0.2695  0.0870
  941POPC   C3B13449   5.603   2.319   6.485 -0.0834  0.0803 -0.1067
  941POPC   C4B13450   5.712   2.146   6.906  0.1034 -0.0396  0.3923
  942POPC   NC313451   8.539   4.489   5.535  0.3084 -0.0007  0.0145
  942POPC   PO413452   8.861   4.485   5.368  0.3489  0.2021 -0.1763
  942POPC   GL113453   9.024   4.326   5.794 -0.0339  0.3030  0.0612
  942POPC   GL213454   9.322   4.176   5.885 -0.0891  0.2603 -0.1007
  942POPC   C1A13455   8.817   3.961   6.002 -0.2666  0.1570  0.0814
  942POPC   D2A13456   8.836   3.758   6.378 -0.0480 -0.2888  0.2380
  942POPC   C3A13457   8.719   3.713   6.783 -0.0202  0.1243 -0.1198
  942POPC   C4A13458   8.530   4.091   7.060 -0.0582  0.0277 -0.2005
  942POPC   C1B13459   9.216   4.175   6.390  0.1994 -0.1179 -0.2749
  942POPC   C2B13460   9.427   4.301   6.769 -0.0519  0.0212  0.1066
  942POPC   C3B13461   9.355   4.490   7.220 -0.1264 -0.3614 -0.0442
  942POPC   C4B13462   9.630   4.603   7.528 -0.1905 -0.0626 -0.1388
  943POPC   NC313463   0.573  11.935   5.446 -0.2179  0.2106 -0.2358
  943POPC   PO413464   0.891  11.779   5.512 -0.2767  0.0769  0.2987
  943POPC   GL113465   0.899  11.993   5.955  0.0088  0.0207 -0.0010
  943POPC   GL213466   1.251  12.199   6.032  0.1324 -0.1183 -0.1514
  943POPC   C1A13467   0.871  12.138   6.398  0.1523 -0.2112 -0.0307
  943POPC   D2A13468   0.755  12.174   6.856 -0.0452  0.0129  0.1937
  943POPC   C3A13469   0.961  11.872   7.102 -0.1063 -0.2779 -0.1481
  943POPC   C4A13470   1.128  11.685   7.409 -0.2237 -0.1461 -0.2450
  943POPC   C1B13471   1.437  12.201   6.472  0.1942  0.1786  0.0623
  943POPC   C2B13472   1.417  12.199   6.997  0.0264  0.0010 -0.0765
  943POPC   C3B13473   1.620  11.848   7.294 -0.2448 -0.0982 -0.2311
  943POPC   C4B13474   1.604  11.439   7.499  0.1960 -0.2388  0.1449
  944POPC   NC313475  14.553   4.869   5.689  0.1055 -0.0365  0.1797
  944POPC   PO413476  14.291   4.951   5.378 -0.1410  0.0428 -0.2719
  944POPC   GL113477  14.069   5.133   5.778 -0.0482  0.1966 -0.2956
  944POPC   GL213478  14.098   5.387   5.782  0.0262  0.0242 -0.1012
  944POPC   C1A13479  13.931   5.100   6.228 -0.0012  0.0523 -0.1707
  944POPC   D2A13480  13.686   5.089   6.451 -0.2648  0.0425  0.0068
  944POPC   C3A13481  13.399   5.409   6.581  0.0158  0.2060  0.0765
  944POPC   C4A13482  13.329   5.604   6.905 -0.1702 -0.1536  0.0767
  944POPC   C1B13483  14.449   5.438   6.078 -0.1511  0.2220 -0.0014
  944POPC   C2B13484  14.701   5.141   6.339  0.0233 -0.1200  0.0900
  944POPC   C3B13485  14.862   5.272   6.740  0.0808 -0.0992 -0.0301
  944POPC   C4B13486  14.751   5.344   7.186 -0.2339  0.0511 -0.1123
  945POPC   NC313487  16.856   8.308   5.374  0.0472 -0.2219 -0.3378
  945POPC   PO413488  16.341   8.465   5.455 -0.0718 -0.2709  0.1843
  945POPC   GL113489  16.512   8.607   5.853 -0.2439  0.0076  0.0629
  945POPC   GL213490  16.622   8.379   5.914  0.0395  0.0913 -0.2186
  945POPC   C1A13491  16.791   8.761   6.211  0.2106  0.0786 -0.2507
  945POPC   D2A13492  16.867   9.146   6.448  0.2320 -0.0789  0.0938
  945POPC   C3A13493  16.774   9.197   6.794 -0.3722  0.2156 -0.1930
  945POPC   C4A13494  16.592   9.260   7.132 -0.0603 -0.1874  0.1427
  945POPC   C1B13495  16.441   8.488   6.334 -0.1214  0.2177 -0.2133
  945POPC   C2B13496  16.410   8.821   6.706  0.0787 -0.0645  0.0055
  945POPC   C3B13497  16.495   8.788   7.197  0.0016 -0.0329  0.0755
  945POPC   C4B13498  16.733   8.638   7.557 -0.1593 -0.2190  0.4398
  946POPC   NC313499  13.933   5.784   5.530 -0.3045 -0.0115  0.1001
  946POPC   PO413500  13.717   6.072   5.713 -0.2594  0.1457  0.1894
  946POPC   GL113501  13.396   6.045   5.998 -0.0726 -0.0399 -0.1692
  946POPC   GL213502  13.458   6.290   6.078  0.0449 -0.0588  0.0172
  946POPC   C1A13503  13.408   5.901   6.391  0.0315  0.0082  0.1735
  946POPC   D2A13504  13.581   5.974   6.775  0.0442 -0.0197  0.3763
  946POPC   C3A13505  13.366   5.920   7.242  0.0843 -0.0210 -0.1043
  946POPC   C4A13506  13.089   6.107   7.485  0.0741  0.3345  0.0745
  946POPC   C1B13507  13.794   6.185   6.297  0.1024 -0.2229  0.2849
  946POPC   C2B13508  14.050   6.219   6.602 -0.0061  0.0761  0.0515
  946POPC   C3B13509  14.164   5.920   6.894  0.0285  0.0578  0.1904
  946POPC   C4B13510  14.436   5.805   7.103 -0.0062 -0.2695 -0.2375
  947POPC   NC313511   3.738   7.419   5.268 -0.2435  0.1161  0.3822
  947POPC   PO413512   4.036   7.660   5.265 -0.1082  0.0409 -0.2164
  947POPC   GL113513   4.101   7.482   5.723 -0.1439 -0.0080 -0.0703
  947POPC   GL213514   4.404   7.371   5.669  0.1729  0.5663 -0.0641
  947POPC   C1A13515   4.094   7.679   6.076 -0.0663 -0.1482  0.0914
  947POPC   D2A13516   4.125   7.444   6.411  0.2610 -0.1551  0.0401
  947POPC   C3A13517   4.331   7.550   6.748 -0.0562 -0.2504 -0.0054
  947POPC   C4A13518   4.295   7.706   7.027 -0.1930  0.1069  0.0678
  947POPC   C1B13519   4.553   7.340   6.043 -0.1106 -0.2547 -0.1907
  947POPC   C2B13520   4.560   7.115   6.342 -0.1317 -0.0196  0.2464
  947POPC   C3B13521   4.387   6.998   6.768  0.1607  0.0749  0.1154
  947POPC   C4B13522   4.584   7.017   7.124 -0.0407 -0.2209  0.0525
  948POPC   NC313523   5.240  17.865   5.267 -0.1663 -0.0222 -0.1812
  948POPC   PO413524   4.903  18.134   5.115 -0.0362 -0.1769 -0.3814
  948POPC   GL113525   4.955  18.238   5.547 -0.0285  0.1197  0.1041
  948POPC   GL213526   4.903  18.549   5.624  0.0074 -0.2490 -0.0324
  948POPC   C1A13527   5.099  18.269   6.038  0.0398  0.1211  0.0735
  948POPC   D2A13528   4.890  18.097   6.446  0.2304 -0.0334  0.0528
  948POPC   C3A13529   5.170  18.046   6.884  0.1020 -0.2672 -0.2843
  948POPC   C4A13530   5.440  18.099   7.199  0.2909  0.3621  0.3230
  948POPC   C1B13531   4.684  18.642   6.069  0.2741 -0.1415  0.0042
  948POPC   C2B13532   4.840  18.749   6.492 -0.0282 -0.0265  0.1332
  948POPC   C3B13533   4.816  18.463   6.847 -0.0547  0.0161 -0.0146
  948POPC   C4B13534   4.957  18.348   7.260  0.2176 -0.0037 -0.1277
  949POPC   NC313535   7.376  13.391   4.956  0.1138 -0.3102  0.1136
  949POPC   PO413536   7.515  13.254   5.345 -0.5023  0.1024 -0.1738
  949POPC   GL113537   7.751  13.432   5.636  0.1819  0.3364  0.1171
  949POPC   GL213538   7.667  13.446   5.991  0.0000  0.2230  0.0788
  949POPC   C1A13539   8.149  13.557   5.923  0.0699 -0.4255  0.1185
  949POPC   D2A13540   8.349  13.751   6.201  0.0401  0.0522 -0.1428
  949POPC   C3A13541   8.374  13.679   6.634  0.0586 -0.1040  0.1250
  949POPC   C4A13542   8.536  13.540   6.917 -0.4424 -0.1557  0.0204
  949POPC   C1B13543   7.446  13.514   6.439  0.0313 -0.0934  0.2885
  949POPC   C2B13544   7.497  13.586   6.869  0.1256 -0.0814 -0.0879
  949POPC   C3B13545   7.634  13.566   7.234 -0.1738  0.0913 -0.1569
  949POPC   C4B13546   7.837  13.377   7.569  0.1851 -0.1737  0.1519
  950POPC   NC313547  16.679  17.149   5.555 -0.2346  0.1736 -0.1702
  950POPC   PO413548  16.520  17.336   5.896  0.2791 -0.3612 -0.2674
  950POPC   GL113549  16.341  17.116   6.230  0.0625 -0.1324  0.2025
  950POPC   GL213550  16.246  17.346   6.409 -0.0871 -0.0430  0.1651
  950POPC   C1A13551  15.981  16.937   6.476 -0.0735 -0.1501 -0.0907
  950POPC   D2A13552  15.944  16.980   6.872 -0.0600 -0.1265 -0.1421
  950POPC   C3A13553  15.758  16.786   7.168 -0.1297  0.0440 -0.3001
  950POPC   C4A13554  15.758  16.537   7.561  0.2111 -0.0262 -0.0707
  950POPC   C1B13555  15.992  17.469   6.732  0.3835  0.1573  0.0169
  950POPC   C2B13556  15.670  17.396   6.979  0.1232  0.2387  0.3654
  950POPC   C3B13557  15.419  17.139   7.226 -0.3796  0.0933  0.0866
  950POPC   C4B13558  15.278  16.789   7.462  0.0613 -0.2098  0.1206
  951POPC   NC313559   4.194  16.489   4.837  0.1289 -0.0503 -0.0666
  951POPC   PO413560   3.896  16.802   5.018  0.0380  0.0683 -0.1101
  951POPC   GL113561   3.917  16.543   5.376  0.2280 -0.1409 -0.2949
  951POPC   GL213562   4.104  16.306   5.299 -0.1564  0.0237  0.1899
  951POPC   C1A13563   4.124  16.605   5.760  0.0764 -0.1811  0.2966
  951POPC   D2A13564   4.435  16.621   6.097 -0.1355  0.1820 -0.0083
  951POPC   C3A13565   4.581  16.184   5.998 -0.0869 -0.0563  0.0782
  951POPC   C4A13566   4.748  15.958   6.103 -0.0410  0.2384 -0.0929
  951POPC   C1B13567   4.460  16.388   5.503 -0.3072  0.2049 -0.1495
  951POPC   C2B13568   4.723  16.678   5.704  0.1546  0.1359 -0.1421
  951POPC   C3B13569   5.154  16.824   5.943 -0.1519 -0.2854  0.0614
  951POPC   C4B13570   5.622  16.868   6.052  0.3621 -0.0799  0.0604
  952POPC   NC313571   5.807   4.520   5.373  0.3752 -0.0987  0.0560
  952POPC   PO413572   5.496   4.013   5.346  0.0584 -0.0226 -0.0443
  952POPC   GL113573   5.223   3.923   5.742  0.0446  0.3754 -0.1850
  952POPC   GL213574   5.309   3.715   5.940 -0.2460  0.0673 -0.3171
  952POPC   C1A13575   4.876   3.885   5.989 -0.1068  0.3242 -0.0311
  952POPC   D2A13576   4.812   4.044   6.329  0.0120  0.1754 -0.1241
  952POPC   C3A13577   4.505   3.887   6.632 -0.1562 -0.1690 -0.1237
  952POPC   C4A13578   4.243   4.024   6.930 -0.2330 -0.2682  0.2167
  952POPC   C1B13579   5.265   3.752   6.386 -0.0936 -0.0467 -0.2187
  952POPC   C2B13580   5.139   3.886   6.662  0.0495  0.0712 -0.0325
  952POPC   C3B13581   4.768   4.235   6.897 -0.1772 -0.1913  0.1571
  952POPC   C4B13582   4.456   4.475   7.159  0.0635  0.0156  0.1915
  953POPC   NC313583   1.720  11.275   4.794  0.0853  0.1405 -0.0084
  953POPC   PO413584   2.012  11.117   5.109 -0.0290  0.0309 -0.1998
  953POPC   GL113585   1.912  11.106   5.578 -0.1988  0.1571  0.2112
  953POPC   GL213586   2.171  11.232   5.603 -0.0180  0.3050  0.1104
  953POPC   C1A13587   1.847  11.010   5.984 -0.0586  0.2689 -0.1496
  953POPC   D2A13588   1.619  10.900   6.427  0.1188  0.1190  0.0580
  953POPC   C3A13589   1.751  11.151   6.775  0.1147  0.0747 -0.0074
  953POPC   C4A13590   1.853  11.622   6.818 -0.1222 -0.2968 -0.0658
  953POPC   C1B13591   2.197  11.404   5.939  0.0255 -0.0376 -0.0403
  953POPC   C2B13592   2.143  11.347   6.400 -0.4659 -0.1893  0.0033
  953POPC   C3B13593   2.287  11.416   6.815  0.0802  0.0112  0.5002
  953POPC   C4B13594   2.446  11.223   7.284 -0.2291 -0.1028  0.3414
  954POPC   NC313595   1.830   3.595   5.511 -0.1218  0.0659 -0.2477
  954POPC   PO413596   1.445   3.556   5.366  0.1518 -0.0327 -0.2664
  954POPC   GL113597   1.371   3.688   5.808  0.4342  0.0690  0.1270
  954POPC   GL213598   1.141   3.683   6.038  0.2743  0.1938  0.1849
  954POPC   C1A13599   1.630   3.592   6.191 -0.0314 -0.1448 -0.1457
  954POPC   D2A13600   1.617   3.552   6.589 -0.0428  0.3616  0.0904
  954POPC   C3A13601   1.806   3.916   6.874  0.3604 -0.1492 -0.1545
  954POPC   C4A13602   1.910   3.884   7.353 -0.0843  0.0603  0.0818
  954POPC   C1B13603   1.175   3.365   6.375 -0.3106 -0.0153  0.2662
  954POPC   C2B13604   1.186   3.363   6.789  0.0010 -0.0363 -0.1492
  954POPC   C3B13605   1.231   3.413   7.201  0.2528  0.0802 -0.0055
  954POPC   C4B13606   1.310   3.517   7.552 -0.1128 -0.3367  0.1049
  955POPC   NC313607   3.822  10.112   5.463 -0.2588  0.1291 -0.3651
  955POPC   PO413608   3.516  10.324   5.467  0.4853 -0.0205 -0.1627
  955POPC   GL113609   3.444  10.088   5.905  0.5038  0.2861  0.4874
  955POPC   GL213610   3.142  10.140   6.014  0.2173  0.2162 -0.0858
  955POPC   C1A13611   3.544  10.247   6.307 -0.2153  0.0818  0.0054
  955POPC   D2A13612   3.870  10.323   6.490  0.0567  0.0667 -0.0139
  955POPC   C3A13613   4.236  10.023   6.555  0.4434  0.1772 -0.3937
  955POPC   C4A13614   4.207   9.634   6.729  0.1003 -0.0097  0.2425
  955POPC   C1B13615   3.073  10.255   6.478 -0.1519  0.2405 -0.1787
  955POPC   C2B13616   3.337  10.423   6.781  0.0985 -0.0068 -0.0513
  955POPC   C3B13617   3.803  10.377   6.986 -0.1455 -0.0350  0.0587
  955POPC   C4B13618   4.175  10.058   7.081  0.1456  0.3867  0.1288
  956POPC   NC313619   1.401  16.025   5.514 -0.2443 -0.0425 -0.0779
  956POPC   PO413620   1.775  15.804   5.701 -0.0474  0.2239 -0.2143
  956POPC   GL113621   1.615  15.883   6.060  0.3210  0.0755 -0.0216
  956POPC   GL213622   1.663  16.076   6.175 -0.2801 -0.0755  0.0273
  956POPC   C1A13623   1.245  16.015   6.352 -0.0478  0.0396 -0.0420
  956POPC   D2A13624   0.856  16.250   6.518  0.2402 -0.0738 -0.3208
  956POPC   C3A13625   0.637  16.344   6.948 -0.1382  0.1845 -0.0638
  956POPC   C4A13626   0.910  16.366   7.252  0.1483  0.0429  0.1565
  956POPC   C1B13627   1.818  15.763   6.474  0.0289  0.3987 -0.0544
  956POPC   C2B13628   2.027  15.587   6.747  0.1055  0.0162  0.1826
  956POPC   C3B13629   2.456  15.556   6.824  0.4972  0.0393 -0.1131
  956POPC   C4B13630   2.776  15.533   6.462 -0.0877 -0.1510  0.1975
  957POPC   NC313631  15.178  11.970   5.157  0.0420 -0.2837 -0.3152
  957POPC   PO413632  15.579  12.264   5.082 -0.2897  0.1218 -0.1324
  957POPC   GL113633  15.625  12.255   5.426 -0.1287  0.2931 -0.4573
  957POPC   GL213634  15.415  12.082   5.560  0.0605  0.2318  0.2106
  957POPC   C1A13635  15.696  12.452   5.754  0.0413 -0.1160  0.2251
  957POPC   D2A13636  15.691  12.683   6.144 -0.0143 -0.0716  0.1034
  957POPC   C3A13637  15.615  12.568   6.581 -0.1997  0.1162  0.2756
  957POPC   C4A13638  15.612  12.226   6.785 -0.0761 -0.0419  0.1066
  957POPC   C1B13639  15.238  12.348   5.792  0.1910 -0.1778  0.0276
  957POPC   C2B13640  15.237  12.482   6.260  0.0342  0.0374  0.2013
  957POPC   C3B13641  15.081  12.491   6.698  0.0829  0.0872 -0.0017
  957POPC   C4B13642  15.298  12.638   7.057  0.0047  0.1318  0.1194
  958POPC   NC313643  17.074  10.367   5.247 -0.0333 -0.1466 -0.1098
  958POPC   PO413644  17.086  10.016   5.178 -0.3241  0.3166 -0.2694
  958POPC   GL113645  17.204   9.949   5.647 -0.1576  0.0916  0.0591
  958POPC   GL213646  16.946   9.758   5.800 -0.2276  0.3469 -0.1032
  958POPC   C1A13647  17.410  10.149   5.987  0.0067 -0.0016 -0.0402
  958POPC   D2A13648  17.344  10.280   6.339  0.0597 -0.1588 -0.1302
  958POPC   C3A13649  17.290  10.043   6.700  0.1637 -0.2072  0.1487
  958POPC   C4A13650  17.379  10.182   7.023  0.0701 -0.1744 -0.1881
  958POPC   C1B13651  17.130   9.622   6.156 -0.1681 -0.2362  0.2774
  958POPC   C2B13652  17.167   9.576   6.566 -0.1395 -0.1777 -0.0737
  958POPC   C3B13653  17.146   9.664   7.000  0.0580  0.0221 -0.0097
  958POPC   C4B13654  17.270   9.769   7.419 -0.0397 -0.0043  0.2894
  959POPC   NC313655  14.577  18.955   5.527  0.1295 -0.4417 -0.3947
  959POPC   PO413656  14.415  19.446   5.518 -0.0346 -0.1120 -0.1199
  959POPC   GL113657  14.440  19.731   5.893  0.1055 -0.0562 -0.0203
  959POPC   GL213658  14.471  20.137   5.815 -0.0099  0.1346 -0.1349
  959POPC   C1A13659  14.575  19.857   6.296  0.3314 -0.3225  0.1460
  959POPC   D2A13660  14.479  19.710   6.692  0.0645  0.0563  0.2499
  959POPC   C3A13661  14.483  19.399   6.959  0.3062 -0.4910 -0.3386
  959POPC   C4A13662  14.291  19.558   7.410  0.0317 -0.0773  0.0359
  959POPC   C1B13663  14.571  20.377   6.100  0.0595  0.0505  0.2041
  959POPC   C2B13664  14.248  20.395   6.468 -0.0213 -0.1117 -0.0154
  959POPC   C3B13665  14.041  20.145   6.736 -0.2505 -0.2127  0.1694
  959POPC   C4B13666  13.904  20.409   7.130 -0.2356 -0.1370 -0.1800
  960POPC   NC313667  14.960  18.342   5.346  0.1757 -0.1497 -0.1531
  960POPC   PO413668  14.673  18.479   5.624 -0.0247 -0.0245 -0.1003
  960POPC   GL113669  14.746  18.641   6.075  0.1410 -0.1000  0.1379
  960POPC   GL213670  14.467  18.988   6.088 -0.1735  0.1216  0.0599
  960POPC   C1A13671  14.870  18.486   6.451  0.0138  0.2158 -0.3328
  960POPC   D2A13672  14.932  18.277   6.821  0.0040 -0.4853 -0.3714
  960POPC   C3A13673  14.620  18.319   7.202 -0.1356 -0.3534  0.3366
  960POPC   C4A13674  14.444  18.431   7.634 -0.2296 -0.3885  0.2423
  960POPC   C1B13675  14.577  18.970   6.517  0.1063  0.3128 -0.4227
  960POPC   C2B13676  14.678  18.734   6.897 -0.0829  0.1724  0.1614
  960POPC   C3B13677  14.673  18.888   7.373 -0.1258  0.1028 -0.0195
  960POPC   C4B13678  14.366  19.159   7.631  0.2237  0.0690 -0.1580
  961POPC   NC313679  13.405  15.832   5.359  0.2191  0.0399  0.1225
  961POPC   PO413680  13.757  15.599   5.400 -0.0815 -0.0600 -0.0659
  961POPC   GL113681  13.711  15.810   5.777  0.0299  0.0178 -0.0165
  961POPC   GL213682  13.401  15.892   5.854 -0.1338 -0.0754 -0.0646
  961POPC   C1A13683  13.869  15.964   6.149  0.1450 -0.0126  0.1164
  961POPC   D2A13684  13.861  16.093   6.477 -0.1495 -0.1593  0.2544
  961POPC   C3A13685  13.950  15.869   6.908  0.1102  0.0184 -0.1170
  961POPC   C4A13686  13.861  15.567   7.206 -0.1554 -0.0072 -0.1197
  961POPC   C1B13687  13.018  15.876   6.080  0.2380 -0.3562  0.4331
  961POPC   C2B13688  12.796  15.939   6.479 -0.0070  0.0063  0.1529
  961POPC   C3B13689  12.866  15.840   6.983  0.2095 -0.0489 -0.1931
  961POPC   C4B13690  13.031  15.937   7.435 -0.3330  0.3094 -0.1767
  962POPC   NC313691  17.313   8.002   5.877  0.1085 -0.2520 -0.1754
  962POPC   PO413692  17.138   8.323   5.788  0.0610 -0.0145  0.0670
  962POPC   GL113693  17.231   8.407   6.163  0.0006  0.1318  0.0928
  962POPC   GL213694  17.088   8.204   6.274 -0.2268 -0.3055 -0.0939
  962POPC   C1A13695  17.100   8.650   6.518  0.2607  0.0902  0.1890
  962POPC   D2A13696  16.891   8.686   6.834  0.1274  0.0735 -0.0204
  962POPC   C3A13697  17.048   8.950   7.184 -0.0905 -0.2872  0.1866
  962POPC   C4A13698  17.407   9.206   7.237  0.2744  0.0092 -0.2822
  962POPC   C1B13699  16.788   8.194   6.502  0.4634 -0.0604 -0.1772
  962POPC   C2B13700  16.564   8.303   6.789 -0.1178  0.3085 -0.3755
  962POPC   C3B13701  16.282   8.335   7.075  0.0698  0.0727  0.1508
  962POPC   C4B13702  16.146   8.558   7.405  0.0752  0.0152  0.0620
  963POPC   NC313703   9.115  16.903   5.084  0.2336 -0.0314 -0.1100
  963POPC   PO413704   9.030  17.331   5.287 -0.0501 -0.1381 -0.3095
  963POPC   GL113705   9.178  17.298   5.718  0.1717  0.1998 -0.0405
  963POPC   GL213706   9.406  17.268   5.807 -0.2329  0.4642 -0.2293
  963POPC   C1A13707   8.963  17.471   6.088 -0.0411 -0.1085 -0.1692
  963POPC   D2A13708   9.040  17.340   6.550  0.0465  0.1077  0.1679
  963POPC   C3A13709   9.068  16.941   6.770 -0.1115  0.0987 -0.0482
  963POPC   C4A13710   8.949  16.923   7.256 -0.1237 -0.0383  0.0482
  963POPC   C1B13711   9.426  17.320   6.206  0.0182  0.3433  0.1663
  963POPC   C2B13712   9.495  17.183   6.606 -0.3447 -0.1830 -0.1384
  963POPC   C3B13713   9.305  17.323   7.020  0.1636  0.2912  0.2273
  963POPC   C4B13714   9.157  17.382   7.466 -0.2094  0.2281 -0.1683
  964POPC   NC313715   2.270  14.966   5.417 -0.1196  0.3085 -0.2578
  964POPC   PO413716   2.626  14.745   5.633  0.2574  0.3936 -0.1605
  964POPC   GL113717   2.709  14.502   5.993  0.1334 -0.0200 -0.1510
  964POPC   GL213718   2.478  14.306   6.175  0.2061 -0.4158 -0.1391
  964POPC   C1A13719   2.780  14.682   6.349  0.0669  0.1057  0.0203
  964POPC   D2A13720   2.840  14.640   6.725 -0.0013  0.0333 -0.1839
  964POPC   C3A13721   3.024  14.867   7.141  0.1464  0.2573 -0.0220
  964POPC   C4A13722   3.253  14.832   7.547  0.1842 -0.0676 -0.1679
  964POPC   C1B13723   2.379  14.624   6.559 -0.1314 -0.0374  0.0977
  964POPC   C2B13724   2.467  14.719   6.976  0.0470 -0.1415 -0.0993
  964POPC   C3B13725   2.605  15.047   7.301  0.0371  0.2596 -0.2919
  964POPC   C4B13726   2.641  15.071   7.665 -0.3169 -0.1079  0.1972
  965POPC   NC313727  16.850   3.602   5.657  0.2920  0.0968 -0.1610
  965POPC   PO413728  16.628   3.477   5.936  0.1285 -0.0574  0.0106
  965POPC   GL113729  16.562   3.537   6.287 -0.0774 -0.1296  0.3778
  965POPC   GL213730  16.831   3.679   6.358  0.1375 -0.1825 -0.0441
  965POPC   C1A13731  16.287   3.775   6.536  0.1583  0.0689 -0.0738
  965POPC   D2A13732  15.954   3.754   6.863 -0.0467 -0.1577 -0.0244
  965POPC   C3A13733  15.950   3.604   7.301 -0.1675 -0.2268  0.3663
  965POPC   C4A13734  16.184   3.630   7.671  0.1572  0.1330 -0.1708
  965POPC   C1B13735  16.685   3.507   6.797 -0.3168  0.1699  0.4573
  965POPC   C2B13736  16.448   3.663   7.001 -0.1737 -0.0294  0.1019
  965POPC   C3B13737  16.359   4.027   7.349  0.0009 -0.0933  0.1715
  965POPC   C4B13738  16.148   4.141   7.697 -0.2275 -0.0077 -0.0741
  966POPC   NC313739  17.817   4.993   6.109  0.2095 -0.1192 -0.0322
  966POPC   PO413740  17.494   4.707   6.009 -0.0072  0.0761  0.0200
  966POPC   GL113741  17.396   4.853   6.393 -0.0717 -0.5279  0.0555
  966POPC   GL213742  17.503   5.138   6.541 -0.3652  0.3945  0.2726
  966POPC   C1A13743  17.242   4.784   6.722  0.1951  0.0494  0.0530
  966POPC   D2A13744  17.229   4.586   7.101  0.0439  0.0548  0.2137
  966POPC   C3A13745  17.153   4.702   7.597 -0.1955 -0.1554 -0.0207
  966POPC   C4A13746  17.420   4.892   7.863 -0.4110  0.0792 -0.0784
  966POPC   C1B13747  17.701   4.909   6.868 -0.2741  0.1813  0.1448
  966POPC   C2B13748  17.833   4.857   7.200 -0.1458  0.0272 -0.1551
  966POPC   C3B13749  17.622   4.704   7.471  0.0006  0.0488 -0.1017
  966POPC   C4B13750  17.797   4.322   7.684 -0.0733  0.1032  0.0260
  967POPC   NC313751   0.681   4.838   5.584 -0.0950  0.0381 -0.0779
  967POPC   PO413752   1.135   4.836   5.523 -0.1683  0.1690  0.0179
  967POPC   GL113753   1.060   4.523   5.780 -0.3629 -0.2853 -0.2018
  967POPC   GL213754   1.231   4.352   5.788  0.0417 -0.0269 -0.0419
  967POPC   C1A13755   0.931   4.313   6.224  0.0831  0.1891  0.0590
  967POPC   D2A13756   0.879   4.192   6.674 -0.0168  0.0897 -0.2074
  967POPC   C3A13757   0.959   4.605   6.940  0.3785  0.0811 -0.4578
  967POPC   C4A13758   1.388   4.805   6.996 -0.3607 -0.0594  0.0519
  967POPC   C1B13759   1.359   4.101   6.142  0.1663 -0.0830  0.0511
  967POPC   C2B13760   1.690   4.039   6.414 -0.0718  0.2087 -0.0618
  967POPC   C3B13761   1.945   4.357   6.684  0.2701  0.0217 -0.1485
  967POPC   C4B13762   2.253   4.618   6.901  0.2641 -0.1514 -0.0324
  968POPC   NC313763  17.864  17.384   5.874 -0.2652 -0.0827  0.0173
  968POPC   PO413764  17.496  17.554   5.977  0.0751  0.0612  0.2755
  968POPC   GL113765  17.260  17.585   6.354  0.1167 -0.0852 -0.0719
  968POPC   GL213766  17.327  17.235   6.542 -0.2153 -0.2132 -0.2323
  968POPC   C1A13767  17.421  17.841   6.771  0.4164 -0.1359  0.2621
  968POPC   D2A13768  17.346  17.638   7.186  0.1021  0.1481  0.1914
  968POPC   C3A13769  17.166  17.730   7.403  0.0273  0.0871  0.1207
  968POPC   C4A13770  17.022  17.673   7.739  0.2824 -0.2793 -0.1092
  968POPC   C1B13771  17.242  17.362   6.822 -0.0811  0.4982  0.1254
  968POPC   C2B13772  16.995  17.227   7.164 -0.0750 -0.2082  0.0613
  968POPC   C3B13773  16.952  17.250   7.475 -0.0206  0.2982 -0.0587
  968POPC   C4B13774  16.818  17.232   7.909 -0.2288 -0.3334  0.1749
  969POPC   NC313775   7.422   9.563   5.301 -0.3049 -0.1925  0.3004
  969POPC   PO413776   7.042   9.577   5.119  0.3600 -0.0107 -0.2356
  969POPC   GL113777   6.880   9.384   5.602 -0.2907 -0.2899 -0.1893
  969POPC   GL213778   6.803   9.044   5.733  0.0828  0.0045 -0.0312
  969POPC   C1A13779   6.871   9.459   5.989 -0.1883  0.0948  0.4288
  969POPC   D2A13780   6.631   9.587   6.294  0.0422  0.2659  0.1821
  969POPC   C3A13781   6.869   9.487   6.755 -0.2761  0.2227  0.0024
  969POPC   C4A13782   6.828   9.638   7.239 -0.0127 -0.3573 -0.0088
  969POPC   C1B13783   6.969   8.924   6.092  0.1790 -0.1272 -0.0119
  969POPC   C2B13784   7.126   8.835   6.454 -0.2256  0.1439 -0.2171
  969POPC   C3B13785   7.174   9.063   6.770 -0.2814  0.2370 -0.0034
  969POPC   C4B13786   7.295   9.356   7.189 -0.1874 -0.1193  0.0018
  970POPC   NC313787   0.536   9.309   5.218 -0.0939 -0.0579  0.0368
  970POPC   PO413788   0.656   9.081   5.532  0.1726 -0.0631 -0.2723
  970POPC   GL113789   0.550   9.309   5.880  0.1955 -0.1262  0.3260
  970POPC   GL213790   0.500   9.094   6.146  0.1291 -0.1306 -0.2228
  970POPC   C1A13791   0.551   9.661   6.067 -0.1616  0.2229 -0.0276
  970POPC   D2A13792   0.255  10.024   6.219  0.1004  0.0421  0.1818
  970POPC   C3A13793   0.216  10.264   6.493 -0.2399 -0.0219  0.1264
  970POPC   C4A13794   0.152  10.712   6.655  0.2477 -0.0506  0.1715
  970POPC   C1B13795   0.695   9.344   6.461  0.1203 -0.0348  0.1163
  970POPC   C2B13796   0.539   9.592   6.726  0.0438 -0.2774 -0.1289
  970POPC   C3B13797   0.418   9.969   6.768 -0.0139 -0.1004 -0.1974
  970POPC   C4B13798   0.188  10.088   7.092  0.0676  0.0831  0.2276
  971POPC   NC313799  18.789   8.232   5.478  0.1839  0.0657 -0.0454
  971POPC   PO413800  19.084   8.354   5.727  0.0548 -0.3293  0.2247
  971POPC   GL113801  18.944   8.509   6.090 -0.3371 -0.0810 -0.0451
  971POPC   GL213802  19.214   8.574   6.202  0.2483  0.3411 -0.1364
  971POPC   C1A13803  18.712   8.423   6.394 -0.2030 -0.2439 -0.2375
  971POPC   D2A13804  18.456   8.156   6.686 -0.0621  0.3795 -0.0594
  971POPC   C3A13805  18.476   8.133   7.133 -0.3327 -0.0221 -0.2192
  971POPC   C4A13806  18.473   8.339   7.521  0.2123  0.4947  0.1620
  971POPC   C1B13807  19.583   8.580   6.387 -0.0231 -0.2930 -0.0394
  971POPC   C2B13808  19.802   8.826   6.525 -0.1283  0.0200 -0.0965
  971POPC   C3B13809  19.868   9.047   6.814 -0.0588 -0.1515  0.0242
  971POPC   C4B13810  19.856   9.415   7.076  0.1817  0.0018  0.0482
  972POPC   NC313811   4.447  17.499   4.932 -0.3762 -0.0014 -0.2325
  972POPC   PO413812   4.702  17.235   5.242 -0.1866  0.2289 -0.1898
  972POPC   GL113813   5.026  17.470   5.555 -0.1855  0.1896  0.2697
  972POPC   GL213814   4.923  17.729   5.677  0.0255 -0.0298 -0.1989
  972POPC   C1A13815   5.324  17.318   5.872 -0.1236 -0.0234 -0.1519
  972POPC   D2A13816   5.298  17.193   6.284 -0.3390  0.1073 -0.1656
  972POPC   C3A13817   5.469  16.855   6.565  0.0296  0.0741  0.0507
  972POPC   C4A13818   5.584  16.782   7.017  0.0303 -0.3629 -0.0773
  972POPC   C1B13819   4.692  17.904   5.892 -0.0464  0.0043  0.0562
  972POPC   C2B13820   4.412  17.958   6.367 -0.1341  0.2544  0.0680
  972POPC   C3B13821   4.187  18.021   6.677  0.0877 -0.0501  0.3289
  972POPC   C4B13822   4.121  17.756   7.041 -0.0041  0.2210 -0.3831
  973POPC   NC313823  14.487   7.905   5.250 -0.1273  0.0860 -0.0724
  973POPC   PO413824  14.830   8.376   5.363 -0.0774 -0.0326  0.1401
  973POPC   GL113825  14.783   8.209   5.786 -0.0694  0.1282  0.1959
  973POPC   GL213826  14.368   7.987   5.902 -0.2594 -0.1558 -0.0442
  973POPC   C1A13827  14.900   8.007   6.150 -0.0519 -0.0542  0.0016
  973POPC   D2A13828  14.791   7.994   6.501  0.3959  0.0835 -0.1707
  973POPC   C3A13829  14.913   7.763   6.787  0.3432  0.3006  0.1200
  973POPC   C4A13830  14.785   7.677   7.212  0.0291 -0.0726  0.1318
  973POPC   C1B13831  14.201   8.078   6.320  0.0602  0.3076 -0.0998
  973POPC   C2B13832  14.340   8.339   6.667  0.0708  0.0516  0.2023
  973POPC   C3B13833  14.072   8.377   7.051  0.1331  0.1631 -0.0199
  973POPC   C4B13834  13.856   8.639   7.469  0.1268 -0.0366  0.1805
  974POPC   NC313835  10.427   5.063   5.251 -0.2133  0.0628  0.0235
  974POPC   PO413836  10.574   4.662   5.467 -0.1549 -0.1792  0.0982
  974POPC   GL113837  10.672   4.535   5.907 -0.1134 -0.2322  0.3198
  974POPC   GL213838  11.015   4.640   5.928  0.1610  0.0757  0.0039
  974POPC   C1A13839  10.369   4.551   6.140 -0.0934  0.0365  0.3212
  974POPC   D2A13840  10.305   4.475   6.444 -0.1497 -0.1572  0.0807
  974POPC   C3A13841  10.562   4.207   6.564  0.0526 -0.0311  0.1430
  974POPC   C4A13842  10.913   4.109   6.807  0.3103  0.0121  0.1442
  974POPC   C1B13843  10.825   4.907   6.229 -0.0013 -0.3228  0.1552
  974POPC   C2B13844  10.670   4.833   6.660  0.1744  0.0918  0.0746
  974POPC   C3B13845  10.522   4.546   6.926 -0.2584  0.1534  0.1902
  974POPC   C4B13846  10.294   4.532   7.309 -0.0190  0.0101 -0.0262
  975POPC   NC313847  11.595  15.302   4.887  0.0701 -0.0454  0.0621
  975POPC   PO413848  12.023  15.403   5.196 -0.0492  0.1289 -0.0802
  975POPC   GL113849  12.162  15.723   5.522  0.0342  0.1061 -0.0478
  975POPC   GL213850  12.009  15.695   5.744 -0.2311  0.2717  0.3914
  975POPC   C1A13851  12.274  16.098   5.703  0.2511  0.1829 -0.0096
  975POPC   D2A13852  12.391  16.490   5.843 -0.0957  0.1215  0.0963
  975POPC   C3A13853  12.222  16.848   5.952  0.2123 -0.2785  0.0437
  975POPC   C4A13854  11.922  17.150   6.031 -0.0162  0.0080 -0.1344
  975POPC   C1B13855  12.212  15.333   5.927 -0.0160 -0.1063 -0.3104
  975POPC   C2B13856  12.468  15.075   5.944  0.0182  0.2187  0.0053
  975POPC   C3B13857  12.598  14.691   6.160 -0.0526 -0.3468 -0.2883
  975POPC   C4B13858  12.677  14.451   6.562 -0.2863 -0.3081  0.3613
  976POPC   NC313859   2.203  14.644   5.932  0.2040  0.1342 -0.1619
  976POPC   PO413860   1.799  14.824   5.740 -0.0235 -0.5176 -0.1980
  976POPC   GL113861   1.781  14.935   6.170  0.0119 -0.2551  0.0329
  976POPC   GL213862   1.837  14.642   6.372  0.0121 -0.0516 -0.1690
  976POPC   C1A13863   2.020  15.160   6.390 -0.0914  0.2150  0.1179
  976POPC   D2A13864   2.385  15.174   6.465 -0.0254  0.2393  0.0967
  976POPC   C3A13865   2.670  15.135   6.764 -0.1106 -0.0207  0.1360
  976POPC   C4A13866   2.993  15.376   6.998  0.0685  0.0048 -0.0528
  976POPC   C1B13867   1.648  14.697   6.748 -0.4347  0.2991 -0.0894
  976POPC   C2B13868   1.343  14.831   7.026 -0.1155 -0.0267 -0.0998
  976POPC   C3B13869   1.236  14.937   7.333 -0.2723 -0.0405 -0.1695
  976POPC   C4B13870   0.852  15.063   7.545  0.0969 -0.1734  0.1714
  977POPC   NC313871  15.854   9.327   5.338 -0.0794  0.0702 -0.3505
  977POPC   PO413872  16.243   9.447   5.478  0.1596  0.0869 -0.0044
  977POPC   GL113873  16.388   9.549   5.874  0.0334 -0.0796 -0.0316
  977POPC   GL213874  16.426   9.869   5.940 -0.0018 -0.1738  0.1384
  977POPC   C1A13875  16.546   9.584   6.307  0.2509 -0.2318  0.2161
  977POPC   D2A13876  16.625   9.627   6.715  0.2226 -0.0146  0.0678
  977POPC   C3A13877  16.284   9.736   7.028 -0.1126 -0.0189  0.0812
  977POPC   C4A13878  16.032   9.854   7.364  0.0959  0.0428 -0.0548
  977POPC   C1B13879  16.153   9.828   6.251 -0.0505 -0.0972  0.0575
  977POPC   C2B13880  15.982   9.719   6.587  0.1787 -0.1655  0.3971
  977POPC   C3B13881  15.810   9.523   6.923  0.1052  0.5475  0.0385
  977POPC   C4B13882  15.700   9.421   7.348 -0.2048 -0.0467 -0.1862
  978POPC   NC313883  17.191  12.486   5.317  0.1598  0.0924 -0.2544
  978POPC   PO413884  17.032  12.897   5.443 -0.1266 -0.0678  0.1551
  978POPC   GL113885  17.119  13.108   5.739 -0.0026 -0.2409 -0.0417
  978POPC   GL213886  16.855  13.075   5.943  0.1879 -0.2431 -0.2335
  978POPC   C1A13887  17.479  13.036   6.043 -0.0685  0.1048  0.2954
  978POPC   D2A13888  17.415  12.998   6.447 -0.0381  0.1352 -0.0860
  978POPC   C3A13889  17.583  13.384   6.618  0.2052  0.0130 -0.3709
  978POPC   C4A13890  17.194  13.706   6.591  0.1428 -0.1061 -0.0650
  978POPC   C1B13891  16.688  12.937   6.339  0.0202  0.1338 -0.2935
  978POPC   C2B13892  16.601  12.616   6.797 -0.0574 -0.2565  0.0712
  978POPC   C3B13893  16.484  12.229   7.101  0.1064  0.1752  0.3573
  978POPC   C4B13894  16.109  12.030   7.254 -0.0747 -0.4282 -0.1585
  979POPC   NC313895  13.334  10.327   5.453  0.0292  0.1067  0.1911
  979POPC   PO413896  13.830  10.173   5.494  0.2197 -0.0483 -0.1525
  979POPC   GL113897  13.924  10.297   5.942 -0.2306 -0.1366  0.0185
  979POPC   GL213898  14.056  10.144   6.102  0.2632 -0.2167 -0.2707
  979POPC   C1A13899  13.884  10.573   6.188 -0.1328 -0.0592 -0.0339
  979POPC   D2A13900  13.977  10.697   6.592  0.0855  0.1811  0.2237
  979POPC   C3A13901  14.103  10.455   6.887  0.3163 -0.3294 -0.2165
  979POPC   C4A13902  13.971  10.568   7.371  0.0638  0.1454  0.1389
  979POPC   C1B13903  14.038  10.077   6.499 -0.0914 -0.3688 -0.0594
  979POPC   C2B13904  13.760  10.054   6.903  0.0191  0.0502 -0.0212
  979POPC   C3B13905  13.613  10.222   7.166 -0.0842  0.1116 -0.1014
  979POPC   C4B13906  13.447  10.210   7.636  0.0821  0.2172  0.5453
  980POPC   NC313907   6.353  12.225   5.734 -0.0602  0.1029  0.2676
  980POPC   PO413908   6.254  12.547   6.022  0.0407  0.0548  0.2211
  980POPC   GL113909   6.108  12.578   6.370  0.1388 -0.0167  0.1176
  980POPC   GL213910   6.108  12.897   6.418  0.1053 -0.1172 -0.0201
  980POPC   C1A13911   6.319  12.564   6.758  0.1298 -0.2379  0.0931
  980POPC   D2A13912   6.323  12.427   7.165 -0.0507  0.1394 -0.0621
  980POPC   C3A13913   6.002  12.068   7.305 -0.0993  0.2053  0.0463
  980POPC   C4A13914   5.726  11.739   7.439 -0.0485 -0.1613  0.4113
  980POPC   C1B13915   6.141  13.120   6.771 -0.1671  0.0475  0.2977
  980POPC   C2B13916   6.071  12.881   7.130 -0.2393 -0.0021 -0.2473
  980POPC   C3B13917   6.197  12.878   7.563  0.2782 -0.1523  0.1662
  980POPC   C4B13918   6.219  12.972   7.964 -0.0952 -0.1727 -0.2301
  981YOPC   NC313919   5.323  14.615   5.711  0.1891  0.0284 -0.0679
  981YOPC   PO413920   4.943  14.411   5.604  0.3364 -0.0800  0.0242
  981YOPC   GL113921   5.013  14.168   5.906 -0.1617  0.0948 -0.1030
  981YOPC   GL213922   5.329  14.236   6.052 -0.1002  0.0079  0.0325
  981YOPC   C1A13923   4.922  14.246   6.317  0.0975  0.3501 -0.2178
  981YOPC   D2A13924   5.167  14.615   6.690 -0.1553 -0.1345 -0.2609
  981YOPC   C3A13925   4.902  14.565   7.043  0.0461  0.2164 -0.2793
  981YOPC   C4A13926   4.694  14.451   7.453  0.4079  0.3184 -0.1490
  981YOPC   C1B13927   5.411  14.221   6.412 -0.2046 -0.2866 -0.3970
  981YOPC   C2B13928   5.114  14.109   6.737  0.0545  0.1081 -0.0429
  981YOPC   D3B13929   5.243  14.232   7.149 -0.0358  0.2249  0.0111
  981YOPC   C4B13930   5.445  14.405   7.477 -0.1903 -0.0671  0.0074
  982YOPC   NC313931  15.906   1.494   5.313  0.1625 -0.3255  0.1971
  982YOPC   PO413932  15.722   1.223   5.650 -0.5026 -0.1535 -0.0712
  982YOPC   GL113933  15.328   1.399   5.925 -0.2476  0.1462  0.3274
  982YOPC   GL213934  14.994   1.451   5.783 -0.1554 -0.2720 -0.0649
  982YOPC   C1A13935  15.086   1.674   6.195 -0.2406 -0.1690  0.1250
  982YOPC   D2A13936  15.014   1.837   6.588 -0.3655 -0.0260  0.1746
  982YOPC   C3A13937  15.384   2.040   6.721 -0.0938  0.2735 -0.4610
  982YOPC   C4A13938  15.743   2.202   6.615  0.0209  0.0710 -0.0930
  982YOPC   C1B13939  14.991   1.133   6.177  0.1447 -0.1128  0.1023
  982YOPC   C2B13940  14.853   1.387   6.557  0.4506 -0.1133 -0.1854
  982YOPC   D3B13941  14.575   1.137   6.826  0.0600 -0.0161 -0.0260
  982YOPC   C4B13942  14.359   0.988   7.098  0.1982  0.0898  0.0685
  983YOPC   NC313943   6.770  17.526   5.433  0.0350 -0.4831 -0.3108
  983YOPC   PO413944   6.677  17.203   5.593 -0.0883  0.0864  0.1763
  983YOPC   GL113945   6.881  17.222   5.888  0.0515  0.3051 -0.1113
  983YOPC   GL213946   6.934  17.529   5.969 -0.1034  0.2488 -0.0259
  983YOPC   C1A13947   6.917  16.981   6.222  0.1329 -0.0183 -0.0951
  983YOPC   D2A13948   7.023  17.178   6.496  0.3060 -0.4603  0.1578
  983YOPC   C3A13949   6.879  17.533   6.708 -0.2273 -0.3669  0.1573
  983YOPC   C4A13950   6.602  17.775   6.925 -0.0276  0.0669 -0.2144
  983YOPC   C1B13951   6.755  17.751   6.298 -0.1293 -0.0497 -0.1236
  983YOPC   C2B13952   7.116  17.958   6.650  0.0765 -0.1150 -0.0320
  983YOPC   D3B13953   7.059  17.940   7.045  0.0814  0.0124  0.0657
  983YOPC   C4B13954   7.191  17.892   7.509 -0.2369  0.1092 -0.3352
  984YOPC   NC313955  16.251   5.944   5.708  0.0609  0.1377 -0.0440
  984YOPC   PO413956  16.029   5.611   5.661 -0.1077 -0.2360 -0.1971
  984YOPC   GL113957  15.931   5.528   6.036  0.0008  0.0379 -0.4327
  984YOPC   GL213958  16.007   5.864   6.158 -0.1889  0.1643 -0.3085
  984YOPC   C1A13959  16.176   5.514   6.462 -0.2907  0.1130 -0.0004
  984YOPC   D2A13960  16.483   5.542   6.789 -0.2382 -0.1635  0.0366
  984YOPC   C3A13961  16.626   5.228   7.094  0.0043  0.2277  0.1275
  984YOPC   C4A13962  16.737   5.031   7.445  0.0377  0.1312 -0.1777
  984YOPC   C1B13963  16.219   6.131   6.427  0.0964  0.2233 -0.2604
  984YOPC   C2B13964  16.373   6.536   6.456  0.1966 -0.1337 -0.0587
  984YOPC   D3B13965  16.613   6.506   6.858  0.3371  0.0621  0.1489
  984YOPC   C4B13966  16.894   6.265   7.239 -0.1277  0.1243 -0.1927
  985YOPC   NC313967   2.488   0.021   5.433 -0.1091 -0.0988 -0.0149
  985YOPC   PO413968   2.870   0.280   5.340  0.0525  0.0932  0.1367
  985YOPC   GL113969   2.882   0.246   5.728 -0.2742  0.1220 -0.1211
  985YOPC   GL213970   3.196   0.271   5.847 -0.1176 -0.1786 -0.2112
  985YOPC   C1A13971   2.866   0.368   6.168 -0.0717 -0.0845  0.1285
  985YOPC   D2A13972   2.909   0.376   6.608 -0.4831 -0.0380 -0.1067
  985YOPC   C3A13973   2.971   0.733   6.921  0.0837  0.1014  0.0898
  985YOPC   C4A13974   3.211   0.609   7.177 -0.2887 -0.1475  0.0742
  985YOPC   C1B13975   3.373   0.399   6.211 -0.3078 -0.1095  0.3799
  985YOPC   C2B13976   3.366   0.612   6.629  0.1695  0.5022 -0.0312
  985YOPC   D3B13977   3.505   0.968   6.617 -0.2077 -0.0377  0.1716
  985YOPC   C4B13978   3.453   1.380   6.746  0.1008 -0.0858  0.3146
  986YOPC   NC313979  18.954   7.368   5.082  0.0883 -0.3489  0.0242
  986YOPC   PO413980  18.907   7.699   5.370  0.0640  0.0302 -0.2209
  986YOPC   GL113981  18.945   7.849   5.758  0.0049  0.2035 -0.0914
  986YOPC   GL213982  18.994   7.750   6.111  0.1557  0.2385  0.0110
  986YOPC   C1A13983  18.620   8.026   6.116  0.1340  0.0908  0.1726
  986YOPC   D2A13984  18.249   8.255   6.199  0.1168  0.1099  0.0103
  986YOPC   C3A13985  18.236   8.532   6.511 -0.1193  0.0082  0.1776
  986YOPC   C4A13986  18.327   8.557   6.918  0.4982 -0.0925 -0.1563
  986YOPC   C1B13987  18.749   7.769   6.509  0.1142 -0.2649 -0.4002
  986YOPC   C2B13988  18.721   7.773   6.959 -0.4748 -0.2668  0.2556
  986YOPC   D3B13989  18.621   7.408   7.298 -0.0242  0.1232 -0.3208
  986YOPC   C4B13990  18.509   7.390   7.753 -0.1040 -0.2009 -0.0313
  987YOPC   NC313991   3.195   1.764   5.083  0.1901 -0.0306 -0.1496
  987YOPC   PO413992   3.303   1.303   5.306 -0.2595  0.0636 -0.2140
  987YOPC   GL113993   3.132   1.551   5.617 -0.3716  0.1816  0.1508
  987YOPC   GL213994   2.817   1.248   5.613 -0.0851 -0.1600 -0.0547
  987YOPC   C1A13995   2.972   1.489   6.025 -0.3507 -0.0713  0.6206
  987YOPC   D2A13996   2.729   1.334   6.377  0.0472 -0.1557 -0.0214
  987YOPC   C3A13997   2.588   1.592   6.751  0.0472  0.0230  0.0528
  987YOPC   C4A13998   2.720   1.982   7.144 -0.1591 -0.2444 -0.2482
  987YOPC   C1B13999   2.781   1.031   6.000  0.2583  0.0984  0.2985
  987YOPC   C2B14000   2.472   0.741   6.228 -0.0908  0.1565 -0.1080
  987YOPC   D3B14001   2.438   0.973   6.642 -0.0809 -0.2031  0.2212
  987YOPC   C4B14002   2.242   1.144   7.110  0.1498  0.0716 -0.1160
  988YOPC   NC314003   2.347   2.776   5.610  0.0202 -0.1727  0.1051
  988YOPC   PO414004   2.178   3.244   5.581 -0.0264  0.1281 -0.1028
  988YOPC   GL114005   2.026   3.446   5.988  0.1617  0.2071 -0.1371
  988YOPC   GL214006   2.225   3.279   6.100  0.1007 -0.0837 -0.2920
  988YOPC   C1A14007   2.090   3.598   6.420 -0.0949 -0.0416  0.1242
  988YOPC   D2A14008   2.286   3.914   6.610  0.0270 -0.0893  0.1754
  988YOPC   C3A14009   2.603   3.796   6.765  0.2525 -0.0825 -0.0714
  988YOPC   C4A14010   2.707   3.629   7.283 -0.0018  0.1958  0.0100
  988YOPC   C1B14011   2.152   3.111   6.545  0.5243  0.2062  0.3052
  988YOPC   C2B14012   2.056   3.070   6.962  0.0694  0.0743  0.0682
  988YOPC   D3B14013   1.677   3.258   6.988 -0.1418 -0.2294 -0.1890
  988YOPC   C4B14014   1.713   3.431   7.282 -0.2403 -0.0661  0.1037
  989YOPC   NC314015  16.508   4.392   5.088 -0.2791 -0.1706 -0.1106
  989YOPC   PO414016  16.386   4.531   5.554  0.1047 -0.0383  0.0155
  989YOPC   GL114017  16.274   4.631   5.891 -0.0150  0.3528  0.0139
  989YOPC   GL214018  15.848   4.476   6.041 -0.0872 -0.0448  0.1737
  989YOPC   C1A14019  16.153   4.675   6.337  0.1509 -0.4748  0.4433
  989YOPC   D2A14020  16.306   4.543   6.764  0.1122 -0.2596  0.1511
  989YOPC   C3A14021  16.035   4.332   7.013  0.1608 -0.1185  0.0269
  989YOPC   C4A14022  15.889   4.125   7.309  0.0128  0.0111  0.0747
  989YOPC   C1B14023  15.642   4.629   6.366  0.1407  0.3159  0.2848
  989YOPC   C2B14024  15.818   4.787   6.808 -0.0064 -0.0753  0.0190
  989YOPC   D3B14025  15.515   4.707   7.051 -0.0892  0.1607  0.3592
  989YOPC   C4B14026  15.195   4.436   7.145  0.2533 -0.1581 -0.2666
  990YOPC   NC314027   6.653   4.010   5.678 -0.1559 -0.2263  0.3326
  990YOPC   PO414028   7.046   4.255   5.614 -0.2582  0.2014  0.0767
  990YOPC   GL114029   7.008   4.491   5.978  0.2016 -0.0633 -0.1355
  990YOPC   GL214030   7.120   4.745   6.084 -0.1305 -0.0226  0.0778
  990YOPC   C1A14031   6.845   4.313   6.257 -0.0697 -0.1523  0.1420
  990YOPC   D2A14032   6.790   4.023   6.530  0.2527  0.2247  0.0898
  990YOPC   C3A14033   6.922   4.162   6.926  0.1601  0.0217 -0.0523
  990YOPC   C4A14034   6.820   4.158   7.368 -0.1800 -0.0589 -0.2516
  990YOPC   C1B14035   6.916   4.774   6.479 -0.2294  0.2819 -0.0827
  990YOPC   C2B14036   6.592   4.550   6.741 -0.2530  0.3032 -0.0983
  990YOPC   D3B14037   6.445   4.108   6.945  0.0043 -0.3030 -0.0449
  990YOPC   C4B14038   6.585   3.719   6.979 -0.0014 -0.3319 -0.3746
  991YOPC   NC314039  16.096  11.412   5.120 -0.2912  0.1645  0.2178
  991YOPC   PO414040  15.629  11.197   5.149 -0.1718  0.0528 -0.3078
  991YOPC   GL114041  15.825  11.352   5.551  0.0512  0.0302 -0.0945
  991YOPC   GL214042  15.598  11.514   5.756  0.0010 -0.4471 -0.3625
  991YOPC   C1A14043  15.932  11.325   6.091  0.1367  0.0091 -0.0880
  991YOPC   D2A14044  15.794  11.144   6.423  0.1235 -0.3381 -0.2622
  991YOPC   C3A14045  15.833  11.218   6.895  0.2873 -0.1697 -0.1382
  991YOPC   C4A14046  15.953  11.507   7.203  0.1957 -0.1534  0.2334
  991YOPC   C1B14047  15.826  11.848   5.571  0.0068 -0.0950 -0.0369
  991YOPC   C2B14048  16.132  12.066   5.640  0.1506 -0.2153  0.1751
  991YOPC   D3B14049  16.542  11.860   5.831 -0.0869 -0.0086  0.2123
  991YOPC   C4B14050  16.763  12.133   6.016 -0.1302  0.4387  0.0653
  992YOPC   NC314051   2.338   1.097   5.320  0.1029 -0.0635 -0.1395
  992YOPC   PO414052   1.860   1.236   5.279 -0.0468 -0.0323 -0.1353
  992YOPC   GL114053   2.079   1.109   5.789 -0.2566  0.2666 -0.0548
  992YOPC   GL214054   2.365   1.065   5.805 -0.1515  0.3066  0.1017
  992YOPC   C1A14055   2.032   0.696   6.006  0.0644 -0.2457  0.0756
  992YOPC   D2A14056   2.287   0.258   6.034 -0.0989 -0.3840 -0.0416
  992YOPC   C3A14057   2.449   0.282   6.562 -0.3146  0.1135  0.0593
  992YOPC   C4A14058   2.344   0.487   6.895  0.0556 -0.0697  0.0993
  992YOPC   C1B14059   2.273   1.266   6.191  0.1438 -0.0734  0.0833
  992YOPC   C2B14060   2.165   1.367   6.586  0.1804 -0.2892  0.0757
  992YOPC   D3B14061   1.850   1.080   6.832 -0.1678  0.0459 -0.0245
  992YOPC   C4B14062   1.824   0.847   7.168  0.2713  0.0213  0.0220
  993YOPC   NC314063   7.266   3.306   5.583 -0.3985  0.1512 -0.0568
  993YOPC   PO414064   7.759   3.216   5.373 -0.0604 -0.0357 -0.1320
  993YOPC   GL114065   7.698   3.289   5.860  0.0595  0.2451 -0.0301
  993YOPC   GL214066   7.899   3.526   6.023 -0.1853 -0.2893 -0.2999
  993YOPC   C1A14067   7.588   3.168   6.247 -0.1981  0.1439  0.1742
  993YOPC   D2A14068   7.620   2.985   6.668  0.2439 -0.0516  0.1470
  993YOPC   C3A14069   7.252   2.815   6.845 -0.1302  0.0234 -0.1234
  993YOPC   C4A14070   7.097   2.349   6.863 -0.0564 -0.2301 -0.0609
  993YOPC   C1B14071   8.166   3.364   6.283  0.0544 -0.0627 -0.0557
  993YOPC   C2B14072   8.557   3.394   6.455 -0.1226  0.1880 -0.1209
  993YOPC   D3B14073   8.742   3.196   6.799 -0.0322  0.1998  0.0341
  993YOPC   C4B14074   8.747   2.972   7.230  0.1778  0.1519 -0.0458
  994YOPC   NC314075   6.280  11.594   5.676 -0.0438  0.0473 -0.2608
  994YOPC   PO414076   5.910  11.930   5.761 -0.3189  0.1611 -0.0229
  994YOPC   GL114077   6.042  12.017   6.145  0.0702  0.2988 -0.0972
  994YOPC   GL214078   6.390  11.912   6.091 -0.0348  0.1049 -0.1163
  994YOPC   C1A14079   5.940  12.145   6.552  0.1577  0.0848 -0.0309
  994YOPC   D2A14080   5.898  12.302   6.941 -0.1113 -0.0482 -0.4829
  994YOPC   C3A14081   5.525  12.185   7.230 -0.2537 -0.4460 -0.2314
  994YOPC   C4A14082   5.249  11.971   7.504  0.1265  0.0738 -0.1124
  994YOPC   C1B14083   6.414  12.100   6.466  0.1579 -0.2042  0.0639
  994YOPC   C2B14084   6.320  12.015   6.884 -0.0557 -0.2175  0.0958
  994YOPC   D3B14085   5.781  11.837   6.935 -0.0702  0.2211  0.3828
  994YOPC   C4B14086   5.418  11.749   7.068  0.0737 -0.0508 -0.1974
  995YOPC   NC314087  15.689   6.302   4.981  0.0451 -0.0612  0.1463
  995YOPC   PO414088  15.403   6.234   5.424  0.0271 -0.5037 -0.1400
  995YOPC   GL114089  15.210   6.172   5.930 -0.1225  0.1110 -0.1319
  995YOPC   GL214090  15.229   5.932   6.163  0.0297 -0.0517 -0.0902
  995YOPC   C1A14091  15.623   6.224   6.341  0.0470 -0.0903  0.0588
  995YOPC   D2A14092  15.916   6.470   6.684  0.1124  0.1349 -0.3423
  995YOPC   C3A14093  15.950   6.437   7.105  0.3816  0.1661 -0.1111
  995YOPC   C4A14094  15.803   6.494   7.542  0.3263  0.1874 -0.0358
  995YOPC   C1B14095  15.111   6.175   6.482  0.0142  0.2984  0.1664
  995YOPC   C2B14096  14.795   6.007   6.751 -0.0137 -0.0842  0.0372
  995YOPC   D3B14097  14.462   6.289   6.873 -0.3103 -0.4073  0.1049
  995YOPC   C4B14098  14.235   6.628   7.157 -0.2849  0.2037  0.1559
  996YOPC   NC314099   9.526  13.873   5.524  0.0118 -0.1341  0.5016
  996YOPC   PO414100   9.682  13.423   5.692  0.0167  0.1343 -0.4654
  996YOPC   GL114101   9.784  13.633   5.938 -0.0049 -0.1579 -0.2951
  996YOPC   GL214102   9.683  13.952   5.974 -0.0564 -0.3508 -0.5885
  996YOPC   C1A14103   9.792  13.741   6.431  0.1252 -0.0923  0.0487
  996YOPC   D2A14104   9.893  13.401   6.826 -0.0145 -0.0287  0.0089
  996YOPC   C3A14105   9.800  13.326   7.343 -0.3551 -0.3019 -0.0829
  996YOPC   C4A14106   9.758  13.087   7.746  0.0931  0.2676  0.0325
  996YOPC   C1B14107   9.558  14.157   6.282  0.0848 -0.2310 -0.2196
  996YOPC   C2B14108   9.533  14.108   6.718 -0.0565 -0.0554  0.1977
  996YOPC   D3B14109   9.512  14.167   7.157  0.3062  0.0598 -0.2333
  996YOPC   C4B14110   9.171  14.199   7.417  0.2808 -0.1038  0.0870
  997YOPC   NC314111   8.212  18.495   5.034 -0.4411  0.0793 -0.0297
  997YOPC   PO414112   8.279  18.728   5.473  0.1350 -0.0039 -0.1610
  997YOPC   GL114113   8.094  18.643   5.830  0.0672  0.0932  0.0696
  997YOPC   GL214114   8.271  18.825   6.087 -0.0790 -0.4059 -0.0224
  997YOPC   C1A14115   7.832  18.564   6.199 -0.0001  0.1293  0.2989
  997YOPC   D2A14116   7.669  18.636   6.628 -0.1571 -0.0334 -0.0613
  997YOPC   C3A14117   7.812  18.412   6.939  0.0423 -0.0084  0.0697
  997YOPC   C4A14118   7.963  18.634   7.260 -0.1103  0.1927  0.1420
  997YOPC   C1B14119   8.520  18.476   6.275  0.4201 -0.0587  0.0281
  997YOPC   C2B14120   8.563  18.181   6.516  0.1486 -0.0438 -0.2244
  997YOPC   D3B14121   8.794  18.105   6.909 -0.0411 -0.0738  0.1966
  997YOPC   C4B14122   8.666  18.076   7.319 -0.0292 -0.3133  0.4138
  998YOPC   NC314123   2.976   8.979   5.043 -0.1190 -0.0481 -0.0182
  998YOPC   PO414124   3.206   8.641   5.274  0.0526 -0.2610  0.1823
  998YOPC   GL114125   3.172   8.635   5.746  0.0789 -0.1007 -0.3818
  998YOPC   GL214126   2.958   8.350   5.859  0.1003  0.2229 -0.0795
  998YOPC   C1A14127   3.302   8.855   6.029  0.1454  0.1293 -0.0045
  998YOPC   D2A14128   3.176   9.019   6.483  0.0313 -0.2387  0.0062
  998YOPC   C3A14129   2.795   8.880   6.754  0.1632  0.0437 -0.1341
  998YOPC   C4A14130   2.596   8.643   7.052 -0.2707  0.1116 -0.0733
  998YOPC   C1B14131   2.847   8.302   6.260 -0.0105  0.0266 -0.6252
  998YOPC   C2B14132   2.775   8.314   6.704  0.0247 -0.0695 -0.0734
  998YOPC   D3B14133   3.000   8.268   7.124  0.1664 -0.3429  0.0709
  998YOPC   C4B14134   2.958   7.909   7.404  0.0745 -0.2220 -0.3302
  999YOPC   NC314135   9.488  14.752   5.641  0.1064  0.4351 -0.5658
  999YOPC   PO414136   9.783  14.351   5.656  0.0369 -0.0921 -0.2186
  999YOPC   GL114137   9.834  14.615   6.026  0.0014  0.0321 -0.0913
  999YOPC   GL214138   9.645  14.725   6.165 -0.1957  0.0158  0.0795
  999YOPC   C1A14139  10.132  14.749   6.330  0.3845 -0.0648  0.0337
  999YOPC   D2A14140  10.323  14.769   6.718  0.3510  0.1749 -0.2442
  999YOPC   C3A14141  10.233  14.777   7.130 -0.0481 -0.1330 -0.1472
  999YOPC   C4A14142  10.053  14.673   7.492 -0.1222  0.0230 -0.1474
  999YOPC   C1B14143   9.811  14.550   6.585 -0.2408  0.3523  0.3197
  999YOPC   C2B14144   9.707  14.613   7.019 -0.2114 -0.1833 -0.2559
  999YOPC   D3B14145   9.707  15.057   7.217  0.5581 -0.2855 -0.0652
  999YOPC   C4B14146   9.578  15.422   7.117 -0.1938  0.1574  0.0718
 1000YOPC   NC314147   1.767  11.558   5.232 -0.3187 -0.1338 -0.0603
 1000YOPC   PO414148   1.505  11.753   5.455 -0.2035  0.0222 -0.1827
 1000YOPC   GL114149   1.247  11.642   5.807  0.0597 -0.2604  0.1554
 1000YOPC   GL214150   1.001  11.452   5.919 -0.1450 -0.2548 -0.2242
 1000YOPC   C1A14151   1.304  11.707   6.270  0.1960 -0.1151 -0.1115
 1000YOPC   D2A14152   1.417  11.763   6.793 -0.0588 -0.0400  0.2663
 1000YOPC   C3A14153   1.384  11.382   7.029 -0.1343  0.2884 -0.2767
 1000YOPC   C4A14154   1.444  10.894   7.084  0.0005  0.1433 -0.2545
 1000YOPC   C1B14155   0.882  11.504   6.293 -0.0227  0.1806 -0.1531
 1000YOPC   C2B14156   0.839  11.652   6.649 -0.0031  0.0552  0.0168
 1000YOPC   D3B14157   0.650  11.510   7.025  0.2599 -0.4036 -0.2249
 1000YOPC   C4B14158   0.604  11.452   7.534 -0.0748 -0.0824 -0.2336
 1001YOPC   NC314159   0.774   7.269   5.864  0.0339 -0.2566 -0.3974
 1001YOPC   PO414160   0.325   7.110   6.024 -0.1233 -0.1759  0.1633
 1001YOPC   GL114161   0.160   7.259   6.439 -0.3979 -0.0524  0.1278
 1001YOPC   GL214162  -0.154   7.269   6.511  0.2756  0.1957  0.0835
 1001YOPC   C1A14163   0.255   7.640   6.598 -0.1098  0.1306  0.0410
 1001YOPC   D2A14164   0.190   7.849   6.955  0.0671 -0.0570 -0.3000
 1001YOPC   C3A14165   0.410   8.148   7.002  0.0931 -0.0688  0.0033
 1001YOPC   C4A14166   0.722   8.418   6.966  0.1689  0.1094  0.0717
 1001YOPC   C1B14167  -0.071   7.365   6.836  0.0151 -0.2355  0.0854
 1001YOPC   C2B14168   0.174   7.411   7.230 -0.0197  0.0818  0.0208
 1001YOPC   D3B14169   0.024   7.703   7.493  0.4048 -0.2384  0.2466
 1001YOPC   C4B14170  -0.384   7.841   7.545 -0.1930 -0.0418  0.1038
 1002YOPC   NC314171   9.107  18.605   5.083  0.0280  0.3802  0.2148
 1002YOPC   PO414172   9.139  18.175   5.260  0.0375 -0.1878 -0.1803
 1002YOPC   GL114173   8.910  18.068   5.621 -0.0224 -0.0907 -0.1919
 1002YOPC   GL214174   9.103  18.058   5.838 -0.0905 -0.3931  0.0904
 1002YOPC   C1A14175   8.645  18.074   5.961  0.1398 -0.0252 -0.1578
 1002YOPC   D2A14176   8.522  17.708   6.254  0.0228  0.3145  0.0408
 1002YOPC   C3A14177   8.734  17.685   6.658 -0.0094  0.0215  0.1643
 1002YOPC   C4A14178   8.814  17.615   7.094  0.2250 -0.0597  0.0555
 1002YOPC   C1B14179   8.976  17.958   6.319  0.0954 -0.0429  0.2060
 1002YOPC   C2B14180   9.130  18.266   6.513  0.1191 -0.2407 -0.0128
 1002YOPC   D3B14181   9.244  18.304   6.927  0.2155 -0.3255 -0.1533
 1002YOPC   C4B14182   9.394  18.404   7.463 -0.1590  0.4508  0.0100
 1003YOPC   NC314183  11.030   0.107   5.465 -0.2856  0.1237 -0.4149
 1003YOPC   PO414184  11.141   0.548   5.418 -0.6626  0.0139 -0.1788
 1003YOPC   GL114185  11.233   0.705   5.674  0.1679  0.2330  0.0517
 1003YOPC   GL214186  11.089   0.971   5.813  0.3355 -0.0788 -0.1875
 1003YOPC   C1A14187  11.386   0.453   6.109 -0.1615 -0.1653  0.1935
 1003YOPC   D2A14188  11.534   0.553   6.464  0.1410 -0.1684 -0.0179
 1003YOPC   C3A14189  11.320   0.342   6.804  0.0890  0.0689 -0.0398
 1003YOPC   C4A14190  11.023   0.110   7.082  0.1292 -0.4404 -0.1397
 1003YOPC   C1B14191  11.151   0.952   6.237 -0.1683  0.1460  0.1590
 1003YOPC   C2B14192  11.048   0.850   6.678 -0.2065 -0.2132  0.1135
 1003YOPC   D3B14193  10.838   0.646   7.158  0.1844  0.1070  0.1682
 1003YOPC   C4B14194  10.862   0.363   7.522  0.1151  0.2158 -0.3527
 1004YOPC   NC314195  17.439  14.479   5.222  0.3136 -0.2165 -0.2778
 1004YOPC   PO414196  17.232  14.630   5.610  0.2398  0.1670  0.0446
 1004YOPC   GL114197  17.596  14.470   5.870  0.0410 -0.0529 -0.0514
 1004YOPC   GL214198  17.351  14.560   6.182 -0.2950 -0.2921 -0.3313
 1004YOPC   C1A14199  17.638  14.113   6.188  0.0224 -0.2469  0.0504
 1004YOPC   D2A14200  17.454  13.615   6.092  0.2192 -0.0957 -0.0814
 1004YOPC   C3A14201  17.128  13.373   6.287 -0.0595 -0.0415 -0.1187
 1004YOPC   C4A14202  17.031  13.242   6.696 -0.2242 -0.0046 -0.0090
 1004YOPC   C1B14203  17.219  14.285   6.392  0.0737  0.0038  0.0678
 1004YOPC   C2B14204  16.756  14.320   6.118  0.0196 -0.2001  0.0234
 1004YOPC   D3B14205  16.321  14.289   6.324  0.0705  0.0813  0.2655
 1004YOPC   C4B14206  15.970  14.409   6.564  0.0964 -0.0458  0.0886
 1005YOPC   NC314207  13.344   5.418   4.675 -0.1554  0.0494 -0.0165
 1005YOPC   PO414208  13.106   5.233   4.923 -0.2518 -0.1441 -0.0408
 1005YOPC   GL114209  13.131   5.112   5.291 -0.2345  0.0231  0.0571
 1005YOPC   GL214210  13.016   4.833   5.421  0.1203  0.0666 -0.0401
 1005YOPC   C1A14211  13.542   5.132   5.558  0.1047 -0.3657 -0.0888
 1005YOPC   D2A14212  13.635   5.376   5.936 -0.0968  0.0186  0.0945
 1005YOPC   C3A14213  13.263   5.475   6.130  0.2160 -0.2706  0.0516
 1005YOPC   C4A14214  13.005   5.753   6.161  0.0032 -0.0556  0.1175
 1005YOPC   C1B14215  13.026   5.137   5.777 -0.0769  0.1612  0.0621
 1005YOPC   C2B14216  12.811   5.296   6.017  0.1434  0.0426  0.4466
 1005YOPC   D3B14217  12.641   5.171   6.430 -0.1809  0.0134  0.1800
 1005YOPC   C4B14218  12.596   5.142   6.904  0.0889 -0.1443  0.1408
 1006YOPC   NC314219   2.304  10.794   5.417 -0.1869 -0.1163 -0.0389
 1006YOPC   PO414220   2.667  11.072   5.641  0.3547 -0.1358  0.0112
 1006YOPC   GL114221   2.742  10.921   6.031 -0.1514  0.2433 -0.0057
 1006YOPC   GL214222   2.880  10.622   6.074  0.1047 -0.4190  0.0304
 1006YOPC   C1A14223   2.761  11.192   6.520 -0.1089  0.0985  0.0426
 1006YOPC   D2A14224   2.795  11.515   7.012 -0.1951  0.3954 -0.3491
 1006YOPC   C3A14225   3.172  11.482   7.416 -0.1306 -0.1063 -0.0417
 1006YOPC   C4A14226   3.185  11.707   7.793  0.1794 -0.1225  0.0156
 1006YOPC   C1B14227   2.652  10.526   6.444  0.2672  0.0420  0.4149
 1006YOPC   C2B14228   2.746  10.429   6.827 -0.0161 -0.0521  0.0762
 1006YOPC   D3B14229   3.030  10.512   7.174  0.0944  0.0642 -0.0507
 1006YOPC   C4B14230   3.317  10.446   7.396 -0.4080 -0.0130 -0.4390
 1007YOPC   NC314231  12.208   2.375   5.363 -0.0609  0.0192  0.1301
 1007YOPC   PO414232  12.668   2.130   5.321 -0.1866  0.1710  0.0749
 1007YOPC   GL114233  12.482   2.172   5.755  0.0051 -0.2031  0.0576
 1007YOPC   GL214234  12.694   2.404   5.953 -0.1506 -0.0300 -0.0578
 1007YOPC   C1A14235  12.255   2.203   6.112  0.0999  0.2027  0.0680
 1007YOPC   D2A14236  12.061   1.993   6.503  0.1046  0.0799  0.0034
 1007YOPC   C3A14237  11.683   1.808   6.392  0.1582 -0.1857 -0.0604
 1007YOPC   C4A14238  11.226   1.827   6.399 -0.1491  0.0896 -0.0092
 1007YOPC   C1B14239  12.467   2.657   6.235 -0.3673 -0.0058  0.3529
 1007YOPC   C2B14240  12.390   2.861   6.686 -0.1530  0.1179 -0.2403
 1007YOPC   D3B14241  12.625   2.820   7.080  0.1058 -0.2217  0.0390
 1007YOPC   C4B14242  12.801   2.698   7.562  0.2628 -0.2252  0.0330
 1008YOPC   NC314243   3.185   0.079   4.995  0.3337  0.0742  0.3309
 1008YOPC   PO414244   3.245  -0.295   5.059 -0.2119  0.0759  0.1209
 1008YOPC   GL114245   3.249  -0.126   5.454  0.0490 -0.2622  0.2329
 1008YOPC   GL214246   2.898  -0.238   5.508  0.1025  0.1870  0.3323
 1008YOPC   C1A14247   3.543  -0.167   5.885  0.0028 -0.0335  0.1873
 1008YOPC   D2A14248   3.589  -0.258   6.352  0.1964  0.2926  0.2126
 1008YOPC   C3A14249   3.818  -0.108   6.670 -0.0497  0.1091 -0.2697
 1008YOPC   C4A14250   4.085   0.090   6.823  0.0366  0.0503  0.0731
 1008YOPC   C1B14251   3.202  -0.527   5.757 -0.2440 -0.1375  0.0124
 1008YOPC   C2B14252   3.271  -1.057   5.750 -0.2080  0.0134  0.3208
 1008YOPC   D3B14253   3.517  -1.295   6.093 -0.0159 -0.0291 -0.0046
 1008YOPC   C4B14254   3.969  -1.127   6.190  0.2715 -0.0979 -0.0138
 1009YOPC   NC314255  10.272   0.006   5.307 -0.1667  0.1655 -0.0439
 1009YOPC   PO414256   9.882   0.022   5.167 -0.0288  0.2066  0.0091
 1009YOPC   GL114257   9.873   0.041   5.573  0.0013 -0.0173  0.4473
 1009YOPC   GL214258  10.116  -0.320   5.670  0.2276  0.2164 -0.0534
 1009YOPC   C1A14259   9.618  -0.187   5.760  0.0220  0.2542 -0.0439
 1009YOPC   D2A14260   9.356  -0.450   6.079  0.0176  0.0867  0.1357
 1009YOPC   C3A14261   8.969  -0.345   6.289 -0.2140  0.2712 -0.1507
 1009YOPC   C4A14262   8.804  -0.376   6.683 -0.1031 -0.2657  0.1824
 1009YOPC   C1B14263   9.876  -0.529   6.002 -0.1852  0.0413  0.2171
 1009YOPC   C2B14264   9.626  -0.803   6.297 -0.2056  0.1480 -0.3137
 1009YOPC   D3B14265   9.747  -0.952   6.742  0.1569 -0.0633  0.2286
 1009YOPC   C4B14266   9.634  -0.966   7.187 -0.0730  0.0120 -0.0787
 1010YOPC   NC314267   0.857  14.880   5.937 -0.3418 -0.0503  0.1633
 1010YOPC   PO414268   1.043  15.278   5.841  0.1405 -0.1451  0.0833
 1010YOPC   GL114269   1.058  15.441   6.206  0.1845  0.2586 -0.2010
 1010YOPC   GL214270   0.912  15.604   6.261  0.1561  0.2079 -0.1751
 1010YOPC   C1A14271   1.326  15.551   6.561  0.0342  0.1029  0.2197
 1010YOPC   D2A14272   1.437  15.831   6.872  0.1057 -0.0709 -0.0190
 1010YOPC   C3A14273   1.721  15.671   7.127  0.1705  0.0721  0.0206
 1010YOPC   C4A14274   1.917  15.813   7.455  0.6469 -0.0762  0.2107
 1010YOPC   C1B14275   0.909  15.725   6.703  0.0847 -0.2468  0.1023
 1010YOPC   C2B14276   0.978  15.952   6.936 -0.0933  0.1557  0.2306
 1010YOPC   D3B14277   0.938  15.863   7.331  0.1286  0.3364 -0.0034
 1010YOPC   C4B14278   0.989  16.055   7.745 -0.1941 -0.0389  0.4858
 1011YOPC   NC314279  13.744   2.534   4.856  0.0892 -0.1428 -0.0697
 1011YOPC   PO414280  13.831   2.328   5.293 -0.3122 -0.1454  0.3064
 1011YOPC   GL114281  13.568   2.426   5.648 -0.2327 -0.2444  0.3452
 1011YOPC   GL214282  13.667   2.680   5.893  0.0766 -0.2412 -0.1439
 1011YOPC   C1A14283  13.663   2.217   6.081 -0.1628 -0.3360 -0.0577
 1011YOPC   D2A14284  13.473   1.879   6.267 -0.0620  0.0377 -0.0745
 1011YOPC   C3A14285  13.719   2.007   6.596  0.1397 -0.4825 -0.1398
 1011YOPC   C4A14286  13.592   1.888   6.990  0.3142 -0.0522  0.0053
 1011YOPC   C1B14287  13.534   2.657   6.299  0.4743  0.0636 -0.1692
 1011YOPC   C2B14288  13.811   2.473   6.602  0.0958 -0.1257 -0.1655
 1011YOPC   D3B14289  13.644   2.401   7.058  0.0527 -0.3217  0.2360
 1011YOPC   C4B14290  13.774   2.353   7.502 -0.1239  0.2568 -0.1755
 1012YOPC   NC314291   4.518  14.081   5.705 -0.2553 -0.1311  0.3295
 1012YOPC   PO414292   4.457  13.740   5.747  0.0206 -0.2452 -0.1237
 1012YOPC   GL114293   4.358  13.628   6.172  0.0306  0.3072  0.0023
 1012YOPC   GL214294   4.554  13.326   6.219  0.2669 -0.1082 -0.2493
 1012YOPC   C1A14295   4.312  13.595   6.605  0.0484 -0.1492  0.0076
 1012YOPC   D2A14296   4.335  13.721   7.028 -0.3074 -0.3036  0.1075
 1012YOPC   C3A14297   4.349  13.346   7.296  0.2577 -0.2571  0.0930
 1012YOPC   C4A14298   4.396  13.347   7.797 -0.0200 -0.2177 -0.0897
 1012YOPC   C1B14299   4.563  13.215   6.713 -0.1850  0.0851 -0.2254
 1012YOPC   C2B14300   4.608  12.964   7.120  0.0652 -0.1367  0.1387
 1012YOPC   D3B14301   4.771  12.816   7.461 -0.0338 -0.2195  0.0706
 1012YOPC   C4B14302   4.728  12.625   7.807  0.2255  0.0556  0.0244
 1013YOPC   NC314303   6.068   5.285   5.156 -0.3634 -0.3353 -0.2922
 1013YOPC   PO414304   5.726   4.996   5.150 -0.2259  0.0440  0.0556
 1013YOPC   GL114305   5.675   4.951   5.598  0.1071  0.1711  0.3527
 1013YOPC   GL214306   5.895   5.229   5.690  0.0156  0.2681 -0.0713
 1013YOPC   C1A14307   5.381   4.743   5.877  0.1650 -0.0974 -0.2712
 1013YOPC   D2A14308   5.080   4.802   6.233  0.1476 -0.0649 -0.0504
 1013YOPC   C3A14309   5.089   4.485   6.646 -0.0393 -0.2662  0.1985
 1013YOPC   C4A14310   5.271   4.298   6.910  0.0572  0.2023 -0.1465
 1013YOPC   C1B14311   5.907   5.122   6.102  0.0694 -0.3293 -0.1545
 1013YOPC   C2B14312   5.900   5.112   6.507  0.2950  0.1539 -0.1373
 1013YOPC   D3B14313   5.603   4.904   6.762 -0.0006 -0.0875 -0.1273
 1013YOPC   C4B14314   5.307   4.796   7.106 -0.1690 -0.0478 -0.0427
 1014YOPC   NC314315  10.540  11.342   5.577  0.1302  0.1393 -0.2057
 1014YOPC   PO414316  10.791  11.124   5.694 -0.0613 -0.0749 -0.0566
 1014YOPC   GL114317  10.623  11.093   6.113  0.0989  0.2139  0.1985
 1014YOPC   GL214318  10.332  10.901   6.268 -0.1658  0.1010  0.0203
 1014YOPC   C1A14319  10.789  10.945   6.443 -0.0787  0.0054  0.0058
 1014YOPC   D2A14320  11.018  10.668   6.624  0.4931 -0.0392 -0.2557
 1014YOPC   C3A14321  11.331  10.863   6.723  0.1029 -0.1097 -0.1023
 1014YOPC   C4A14322  11.534  11.161   6.374  0.2536 -0.2229  0.1069
 1014YOPC   C1B14323  10.257  11.042   6.604  0.2004 -0.1000  0.1494
 1014YOPC   C2B14324  10.460  11.000   6.933  0.1488  0.2519  0.0449
 1014YOPC   D3B14325  10.733  10.687   7.153  0.2090  0.1409  0.0573
 1014YOPC   C4B14326  10.818  10.325   7.384  0.3436  0.1818  0.0428
 1015YOPC   NC314327  13.596   4.077   4.756  0.0389  0.1850 -0.0058
 1015YOPC   PO414328  13.277   4.189   5.017 -0.1065  0.2451  0.0932
 1015YOPC   GL114329  13.364   4.369   5.450 -0.2727  0.2749 -0.0809
 1015YOPC   GL214330  13.660   4.415   5.668 -0.2124  0.3564 -0.1484
 1015YOPC   C1A14331  13.267   4.649   5.804  0.1649  0.1791  0.0997
 1015YOPC   D2A14332  13.347   4.944   6.086  0.1216 -0.0807 -0.1694
 1015YOPC   C3A14333  13.122   5.102   6.379  0.1893  0.2140 -0.3139
 1015YOPC   C4A14334  12.949   5.443   6.708  0.1949  0.0002  0.2162
 1015YOPC   C1B14335  13.764   4.654   6.017  0.1092  0.0260  0.0249
 1015YOPC   C2B14336  13.918   4.617   6.408 -0.2040  0.0486  0.2420
 1015YOPC   D3B14337  14.430   4.662   6.574  0.0984 -0.0026  0.0036
 1015YOPC   C4B14338  14.586   4.836   6.896  0.1926 -0.3703  0.1659
 1016YOPC   NC314339  18.999  10.541   5.584  0.1885  0.3373 -0.5381
 1016YOPC   PO414340  19.373  10.799   5.668  0.1576 -0.0198  0.0083
 1016YOPC   GL114341  19.161  10.756   6.003  0.2996  0.2881  0.3134
 1016YOPC   GL214342  19.331  10.604   6.185 -0.1342 -0.1144  0.0095
 1016YOPC   C1A14343  19.002  11.048   6.301 -0.0136  0.1188 -0.2714
 1016YOPC   D2A14344  18.812  11.141   6.725  0.1515 -0.2528  0.0976
 1016YOPC   C3A14345  18.933  11.257   7.089 -0.0437 -0.0396 -0.1503
 1016YOPC   C4A14346  19.199  11.216   7.596 -0.0463  0.3034  0.0114
 1016YOPC   C1B14347  19.548  10.810   6.409 -0.0823 -0.3909 -0.0462
 1016YOPC   C2B14348  19.758  11.151   6.677  0.0258  0.5880 -0.0277
 1016YOPC   D3B14349  19.951  10.974   7.110  0.1178 -0.0477 -0.2460
 1016YOPC   C4B14350  20.066  11.201   7.373  0.2351  0.1360 -0.2294
 1017YOPC   NC314351   4.152  10.434   4.899  0.0809 -0.0048  0.0943
 1017YOPC   PO414352   4.049   9.933   5.065 -0.0959 -0.1778  0.0149
 1017YOPC   GL114353   4.027   9.646   5.426  0.3356  0.0315  0.0724
 1017YOPC   GL214354   4.298   9.791   5.652  0.2510 -0.1241  0.0191
 1017YOPC   C1A14355   3.844   9.540   5.845  0.3063  0.1614 -0.1876
 1017YOPC   D2A14356   3.823   9.221   6.045 -0.0506 -0.2233  0.2295
 1017YOPC   C3A14357   3.681   9.191   6.497 -0.1655  0.0676  0.0885
 1017YOPC   C4A14358   3.570   9.430   6.743 -0.2653  0.2915 -0.1056
 1017YOPC   C1B14359   4.283   9.583   6.077 -0.4673 -0.0105 -0.2265
 1017YOPC   C2B14360   4.252   9.272   6.381 -0.3015 -0.1054 -0.3899
 1017YOPC   D3B14361   4.051   9.162   6.845 -0.4260 -0.3269  0.1189
 1017YOPC   C4B14362   4.108   9.092   7.311 -0.1869  0.0661  0.0772
 1018YOPC   NC314363  12.803  17.117   5.212 -0.4219  0.0258 -0.0583
 1018YOPC   PO414364  13.225  17.450   5.320 -0.1731 -0.1169  0.0149
 1018YOPC   GL114365  13.236  17.474   5.779  0.2937  0.1143  0.0321
 1018YOPC   GL214366  13.295  17.752   5.903 -0.1070 -0.0392  0.3778
 1018YOPC   C1A14367  13.420  17.236   6.022  0.1534  0.0537 -0.0252
 1018YOPC   D2A14368  13.663  17.249   6.380 -0.2416 -0.1911 -0.0542
 1018YOPC   C3A14369  13.846  17.585   6.641  0.1293 -0.1601  0.1351
 1018YOPC   C4A14370  14.364  17.577   6.601  0.3807  0.0137 -0.0952
 1018YOPC   C1B14371  13.413  17.668   6.366 -0.4343  0.0922 -0.0194
 1018YOPC   C2B14372  13.371  17.485   6.816 -0.5287 -0.6301  0.1224
 1018YOPC   D3B14373  13.113  17.178   7.013 -0.0589  0.3629 -0.2029
 1018YOPC   C4B14374  13.217  17.185   7.460 -0.0688  0.1133  0.1724
 1019YOPC   NC314375  17.235  11.251   5.304  0.1171 -0.0142  0.5527
 1019YOPC   PO414376  17.176  10.855   5.422  0.0809  0.0765 -0.2313
 1019YOPC   GL114377  17.288  10.922   5.807 -0.1448 -0.0904 -0.0017
 1019YOPC   GL214378  17.410  10.661   5.900 -0.1759  0.2326 -0.1786
 1019YOPC   C1A14379  17.298  11.200   6.155  0.1586 -0.1106  0.0858
 1019YOPC   D2A14380  17.299  11.052   6.563  0.0074  0.3067  0.1042
 1019YOPC   C3A14381  17.465  11.312   6.987 -0.0346  0.2181 -0.0198
 1019YOPC   C4A14382  17.286  11.532   7.353  0.0450  0.0440  0.1861
 1019YOPC   C1B14383  17.072  10.722   6.283 -0.0477  0.0802 -0.3634
 1019YOPC   C2B14384  17.124  10.558   6.718 -0.0533 -0.0049 -0.1783
 1019YOPC   D3B14385  17.233  10.763   6.933  0.1073  0.1450 -0.0459
 1019YOPC   C4B14386  17.099  11.011   7.266  0.0353 -0.4090  0.2000
 1020YOPC   NC314387   5.468   8.917   5.508 -0.1709  0.1798 -0.1257
 1020YOPC   PO414388   5.002   9.125   5.597  0.0734  0.1724 -0.2673
 1020YOPC   GL114389   5.187   9.103   5.987  0.3822 -0.0773 -0.1010
 1020YOPC   GL214390   5.361   8.893   6.006 -0.0347  0.1590 -0.2335
 1020YOPC   C1A14391   5.147   9.372   6.322 -0.1193  0.2039  0.1869
 1020YOPC   D2A14392   5.378   9.315   6.685  0.1824 -0.2981 -0.1185
 1020YOPC   C3A14393   5.234   9.640   6.999 -0.0921 -0.0292  0.0315
 1020YOPC   C4A14394   5.091   9.656   7.276 -0.2145 -0.1920 -0.0221
 1020YOPC   C1B14395   5.411   8.891   6.403  0.0280 -0.0332  0.0588
 1020YOPC   C2B14396   5.600   8.914   6.763  0.0322  0.0669  0.0408
 1020YOPC   D3B14397   5.626   9.227   7.100  0.0447  0.3158  0.2132
 1020YOPC   C4B14398   5.969   9.251   7.318  0.0023 -0.2825  0.0187
 1021YOPC   NC314399   7.118   0.827   5.028  0.3574  0.1789 -0.0326
 1021YOPC   PO414400   6.642   0.729   5.054  0.0001 -0.0506 -0.0354
 1021YOPC   GL114401   6.574   0.591   5.437  0.1050 -0.2633 -0.1971
 1021YOPC   GL214402   6.664   0.797   5.679 -0.1360  0.2338  0.3732
 1021YOPC   C1A14403   6.422   0.258   5.648 -0.2180  0.1468 -0.1248
 1021YOPC   D2A14404   6.696   0.160   5.927  0.2592  0.1404  0.2284
 1021YOPC   C3A14405   6.923   0.278   6.244  0.2672  0.0675  0.3160
 1021YOPC   C4A14406   6.929   0.228   6.710 -0.1428  0.1722 -0.1588
 1021YOPC   C1B14407   6.550   0.633   6.060  0.1815  0.0917 -0.1456
 1021YOPC   C2B14408   6.459   0.549   6.438  0.0357 -0.3439  0.0163
 1021YOPC   D3B14409   6.034   0.742   6.703 -0.0883  0.2637 -0.2686
 1021YOPC   C4B14410   5.843   1.031   6.914 -0.2468 -0.0558 -0.3892
 1022YOPC   NC314411  18.363   3.687   5.631 -0.1267  0.1815 -0.0220
 1022YOPC   PO414412  18.505   3.296   5.518 -0.0345 -0.0737  0.1660
 1022YOPC   GL114413  18.528   3.301   5.950 -0.0017 -0.0256 -0.0438
 1022YOPC   GL214414  18.306   3.426   6.088 -0.0399 -0.2775  0.1099
 1022YOPC   C1A14415  18.790   3.395   6.251  0.0878 -0.1104  0.1272
 1022YOPC   D2A14416  18.989   3.141   6.591 -0.1418 -0.2547 -0.1067
 1022YOPC   C3A14417  19.241   3.219   6.977  0.2866  0.3667  0.5356
 1022YOPC   C4A14418  19.427   3.482   7.230  0.0275 -0.1566  0.2403
 1022YOPC   C1B14419  18.478   3.698   6.497  0.0579 -0.0821 -0.1692
 1022YOPC   C2B14420  18.566   3.846   6.835  0.0019  0.2819  0.0402
 1022YOPC   D3B14421  18.434   3.683   7.267 -0.0487  0.0311 -0.0004
 1022YOPC   C4B14422  18.180   3.674   7.654 -0.0482  0.0249  0.1755
 1023YOPC   NC314423   6.474   6.652   5.280  0.4648 -0.0411  0.0146
 1023YOPC   PO414424   6.033   6.452   5.179 -0.0125  0.0947 -0.0684
 1023YOPC   GL114425   6.050   6.554   5.547 -0.2025 -0.0489  0.2222
 1023YOPC   GL214426   6.351   6.288   5.599  0.1072  0.0252 -0.3735
 1023YOPC   C1A14427   6.140   6.641   5.893 -0.1676  0.0918 -0.0508
 1023YOPC   D2A14428   5.995   6.733   6.241  0.1524  0.0275 -0.1406
 1023YOPC   C3A14429   5.742   6.432   6.471  0.0115  0.1773  0.1419
 1023YOPC   C4A14430   5.512   6.023   6.525  0.1640 -0.2375 -0.0338
 1023YOPC   C1B14431   6.458   6.234   6.096  0.0059  0.3471 -0.1324
 1023YOPC   C2B14432   6.523   5.830   6.327  0.0925  0.1228 -0.1128
 1023YOPC   D3B14433   6.472   5.786   6.913  0.1051  0.1974 -0.0665
 1023YOPC   C4B14434   6.651   5.757   7.389 -0.1679 -0.2929 -0.0550
 1024YOPC   NC314435   9.065   9.933   5.242  0.1413 -0.2102 -0.2986
 1024YOPC   PO414436   8.816   9.539   5.293  0.1386 -0.3250 -0.0973
 1024YOPC   GL114437   8.943   9.575   5.707 -0.1156 -0.0600  0.1609
 1024YOPC   GL214438   9.255   9.538   5.676  0.0343  0.2096  0.0253
 1024YOPC   C1A14439   8.963   9.598   6.088  0.0852 -0.1762  0.1744
 1024YOPC   D2A14440   9.155   9.512   6.392 -0.3474 -0.4333  0.1624
 1024YOPC   C3A14441   9.041   9.487   6.826 -0.2323 -0.1394 -0.0216
 1024YOPC   C4A14442   8.705   9.590   7.079 -0.0253 -0.1956  0.2919
 1024YOPC   C1B14443   9.426   9.412   5.978 -0.3684 -0.0454  0.3942
 1024YOPC   C2B14444   9.813   9.386   5.997  0.2274  0.1776  0.1413
 1024YOPC   D3B14445  10.175   9.684   5.931  0.1602  0.0780  0.0486
 1024YOPC   C4B14446  10.273  10.095   5.997  0.1744  0.0686  0.2694
 1025YOPC   NC314447  11.222   8.471   4.538  0.2251  0.0372  0.0306
 1025YOPC   PO414448  11.277   8.384   4.987  0.0117  0.0036 -0.0572
 1025YOPC   GL114449  11.184   8.393   5.454 -0.0528 -0.0072 -0.0148
 1025YOPC   GL214450  10.964   8.067   5.590  0.1661  0.1822  0.0055
 1025YOPC   C1A14451  10.921   8.511   5.754  0.0615  0.2152 -0.0839
 1025YOPC   D2A14452  10.938   8.555   6.176 -0.0386 -0.0301  0.0488
 1025YOPC   C3A14453  10.924   8.420   6.603  0.1234 -0.4031  0.0765
 1025YOPC   C4A14454  11.236   8.391   6.855 -0.1613  0.0885  0.0797
 1025YOPC   C1B14455  11.262   8.259   5.977 -0.0911 -0.1067 -0.0182
 1025YOPC   C2B14456  11.636   8.207   6.224  0.3106  0.0008  0.2541
 1025YOPC   D3B14457  11.845   7.869   6.492 -0.0043 -0.2736  0.0051
 1025YOPC   C4B14458  12.272   7.919   6.459  0.0354  0.0985 -0.0412
 1026YOPC   NC314459   8.394   9.333   5.067 -0.0905 -0.1112 -0.2278
 1026YOPC   PO414460   8.580   8.940   5.050 -0.1909  0.1535  0.2974
 1026YOPC   GL114461   8.582   8.879   5.466  0.1266  0.0318  0.0700
 1026YOPC   GL214462   8.953   9.070   5.467 -0.0504 -0.0138 -0.0217
 1026YOPC   C1A14463   8.518   8.888   5.907 -0.1977 -0.2842 -0.0901
 1026YOPC   D2A14464   8.533   8.806   6.455 -0.0612 -0.0001  0.1485
 1026YOPC   C3A14465   8.254   9.014   6.744  0.0919  0.3735 -0.2212
 1026YOPC   C4A14466   8.262   9.346   6.876 -0.1783 -0.0605 -0.2244
 1026YOPC   C1B14467   8.989   9.078   5.923 -0.1621 -0.0320 -0.1939
 1026YOPC   C2B14468   8.983   8.948   6.224 -0.0211  0.0500  0.2158
 1026YOPC   D3B14469   9.376   9.038   6.374  0.1812  0.0079  0.1161
 1026YOPC   C4B14470   9.649   9.335   6.491 -0.1251 -0.1869 -0.2540
 1027YOPC   NC314471  11.326  16.481   5.035 -0.1486  0.0206  0.1994
 1027YOPC   PO414472  11.694  16.352   4.953 -0.0650 -0.3502  0.0733
 1027YOPC   GL114473  11.702  16.385   5.405 -0.0598  0.2847 -0.0212
 1027YOPC   GL214474  11.499  16.234   5.464  0.1427  0.2328  0.0834
 1027YOPC   C1A14475  11.827  16.646   5.763  0.4305 -0.1952 -0.0475
 1027YOPC   D2A14476  11.883  16.562   6.188  0.1700  0.1877 -0.3272
 1027YOPC   C3A14477  11.821  16.985   6.476  0.0996 -0.3437  0.2886
 1027YOPC   C4A14478  11.450  17.056   6.703 -0.0180 -0.0198 -0.1189
 1027YOPC   C1B14479  11.693  16.114   5.876  0.0681  0.3129 -0.1264
 1027YOPC   C2B14480  12.021  15.985   6.220  0.1895  0.0057 -0.2307
 1027YOPC   D3B14481  12.269  15.936   6.681  0.1647 -0.3491  0.0646
 1027YOPC   C4B14482  12.500  15.553   6.774 -0.0713 -0.3851  0.1543
 1028YOPC   NC314483   6.633   9.925   5.344 -0.0223 -0.0281  0.1970
 1028YOPC   PO414484   6.895  10.352   5.390 -0.0250 -0.3259 -0.2852
 1028YOPC   GL114485   6.699  10.307   5.739 -0.0456  0.1338  0.4631
 1028YOPC   GL214486   6.393  10.212   5.834 -0.0337  0.0937 -0.2402
 1028YOPC   C1A14487   6.669  10.474   6.221  0.0538 -0.1152 -0.3438
 1028YOPC   D2A14488   6.715  10.558   6.565  0.1523  0.2263  0.0708
 1028YOPC   C3A14489   6.916  10.380   6.863 -0.3516  0.0347 -0.0665
 1028YOPC   C4A14490   6.749  10.112   7.231  0.2133 -0.1932  0.0020
 1028YOPC   C1B14491   6.474  10.055   6.224  0.1439 -0.1299 -0.1831
 1028YOPC   C2B14492   6.622  10.035   6.622  0.0596 -0.1507  0.0157
 1028YOPC   D3B14493   6.538   9.869   6.899  0.1199  0.1107  0.0910
 1028YOPC   C4B14494   6.336   9.863   7.277  0.2344  0.0298  0.1655
 1029YOPC   NC314495  13.738   6.352   4.754 -0.3575  0.1135  0.2152
 1029YOPC   PO414496  13.996   6.263   5.191  0.1129  0.0367 -0.1530
 1029YOPC   GL114497  14.120   6.407   5.697  0.3639  0.2013  0.3381
 1029YOPC   GL214498  13.800   6.527   5.766  0.0550 -0.1815 -0.1288
 1029YOPC   C1A14499  14.234   6.497   6.155 -0.0088 -0.1481  0.2238
 1029YOPC   D2A14500  14.368   6.739   6.544  0.2408 -0.1220  0.4116
 1029YOPC   C3A14501  14.170   7.036   6.887 -0.2091 -0.1273 -0.0498
 1029YOPC   C4A14502  14.179   7.093   7.384 -0.0433 -0.0796 -0.0622
 1029YOPC   C1B14503  13.716   6.697   6.202 -0.0338 -0.0171 -0.0677
 1029YOPC   C2B14504  13.895   6.673   6.619  0.0614 -0.0408 -0.0756
 1029YOPC   D3B14505  13.737   6.571   7.041  0.0279 -0.0648  0.0497
 1029YOPC   C4B14506  13.727   6.220   7.320  0.2214  0.2038 -0.1972
 1030YOPC   NC314507  13.625   9.658   5.514  0.0897 -0.4223 -0.0751
 1030YOPC   PO414508  13.502   9.922   5.774  0.1728 -0.0215  0.2310
 1030YOPC   GL114509  13.181  10.155   6.002 -0.1926  0.0762  0.0386
 1030YOPC   GL214510  12.914   9.994   5.948  0.2294 -0.0627  0.4018
 1030YOPC   C1A14511  13.009  10.100   6.492  0.0448  0.0501 -0.0805
 1030YOPC   D2A14512  12.766  10.100   6.794  0.2079  0.4648 -0.0842
 1030YOPC   C3A14513  12.997  10.254   7.035 -0.1678 -0.1219 -0.0351
 1030YOPC   C4A14514  13.018  10.309   7.422  0.1371 -0.1196  0.2212
 1030YOPC   C1B14515  12.693  10.275   6.209  0.0255 -0.2053 -0.0780
 1030YOPC   C2B14516  12.360  10.641   6.211  0.1929 -0.0568  0.2174
 1030YOPC   D3B14517  12.267  11.073   6.471 -0.0221  0.0524 -0.0961
 1030YOPC   C4B14518  12.287  10.864   6.838 -0.0739 -0.1344  0.1271
 1031YOPC   NC314519  12.343  18.844   5.611  0.2298  0.0137 -0.0016
 1031YOPC   PO414520  12.639  18.485   5.463  0.0630  0.1337 -0.1649
 1031YOPC   GL114521  12.619  18.235   5.831 -0.2281  0.1057  0.0634
 1031YOPC   GL214522  12.498  18.457   6.053 -0.2402 -0.0497  0.1222
 1031YOPC   C1A14523  12.765  18.017   6.179  0.2713 -0.0307  0.0006
 1031YOPC   D2A14524  12.923  18.048   6.533  0.1951 -0.2827 -0.1731
 1031YOPC   C3A14525  13.011  17.913   6.939  0.2092  0.0190 -0.1931
 1031YOPC   C4A14526  13.112  17.674   7.432  0.0046  0.0182  0.0634
 1031YOPC   C1B14527  12.461  18.389   6.439 -0.2887  0.1027  0.1698
 1031YOPC   C2B14528  12.574  18.178   6.863 -0.0682  0.2563  0.1942
 1031YOPC   D3B14529  12.262  18.147   7.252 -0.0599  0.0212 -0.0387
 1031YOPC   C4B14530  12.243  18.275   7.743 -0.4633 -0.2413 -0.2250
 1032YOPC   NC314531   4.016  14.724   5.873 -0.2882  0.2022 -0.2274
 1032YOPC   PO414532   4.415  14.605   5.801 -0.1877 -0.0501  0.2185
 1032YOPC   GL114533   4.579  14.482   6.057  0.1675 -0.0295 -0.1572
 1032YOPC   GL214534   4.916  14.675   6.047  0.4047 -0.0473 -0.2784
 1032YOPC   C1A14535   4.559  14.520   6.586  0.0370  0.1475  0.1340
 1032YOPC   D2A14536   4.517  14.898   6.905 -0.0383 -0.0260 -0.0641
 1032YOPC   C3A14537   4.469  14.939   7.368 -0.0103  0.1201 -0.1388
 1032YOPC   C4A14538   4.596  15.021   7.739  0.1734 -0.1472 -0.0075
 1032YOPC   C1B14539   4.812  15.144   5.969 -0.0530 -0.0943  0.1041
 1032YOPC   C2B14540   4.986  15.476   6.088 -0.2672  0.0159  0.1158
 1032YOPC   D3B14541   5.107  15.544   6.530  0.4710  0.2552  0.0031
 1032YOPC   C4B14542   4.958  15.530   6.848 -0.0197 -0.2786  0.2884
 1033YOPC   NC314543  17.594   0.284   5.667 -0.2279  0.2092  0.2897
 1033YOPC   PO414544  17.150   0.301   5.427  0.1677 -0.3914 -0.0224
 1033YOPC   GL114545  17.182   0.292   5.923  0.1386 -0.2180  0.0761
 1033YOPC   GL214546  17.276  -0.105   5.924  0.1336 -0.0858  0.1021
 1033YOPC   C1A14547  17.124   0.676   6.253 -0.0610 -0.0660 -0.0068
 1033YOPC   D2A14548  16.920   0.810   6.690  0.1139  0.2070  0.2955
 1033YOPC   C3A14549  17.240   0.581   6.989 -0.0959 -0.0451 -0.2080
 1033YOPC   C4A14550  17.398   0.338   7.234  0.1274  0.3205 -0.0889
 1033YOPC   C1B14551  17.194   0.018   6.360  0.0987  0.2912 -0.1043
 1033YOPC   C2B14552  17.333   0.136   6.768  0.1699 -0.4677  0.2089
 1033YOPC   D3B14553  17.322  -0.120   7.081 -0.0759 -0.1247 -0.1718
 1033YOPC   C4B14554  17.416  -0.443   7.265  0.1076  0.1720 -0.2358
 1034YOPC   NC314555  14.058   8.485   5.169 -0.1121 -0.1085 -0.1625
 1034YOPC   PO414556  14.277   8.466   5.529 -0.0654 -0.0929 -0.2009
 1034YOPC   GL114557  14.267   8.497   5.997 -0.5042  0.1954  0.0673
 1034YOPC   GL214558  14.440   8.699   6.213  0.0054 -0.0141  0.2671
 1034YOPC   C1A14559  13.976   8.561   6.293 -0.2911 -0.2652 -0.0500
 1034YOPC   D2A14560  13.580   8.713   6.500 -0.0805  0.3877 -0.1210
 1034YOPC   C3A14561  13.471   8.726   6.889 -0.0352 -0.0074 -0.1838
 1034YOPC   C4A14562  13.522   8.992   7.322 -0.1537  0.1200 -0.2111
 1034YOPC   C1B14563  14.500   8.964   6.586 -0.3233  0.0356  0.1235
 1034YOPC   C2B14564  14.501   8.708   6.947  0.3362 -0.4183 -0.0155
 1034YOPC   D3B14565  14.319   8.660   7.384 -0.0482 -0.0690  0.0227
 1034YOPC   C4B14566  14.386   8.896   7.711  0.1446 -0.2531 -0.1206
 1035YOPC   NC314567  13.004   7.598   4.861  0.0642  0.1097  0.0016
 1035YOPC   PO414568  13.157   7.897   5.237  0.0422 -0.0707 -0.4485
 1035YOPC   GL114569  13.438   7.929   5.622 -0.2043 -0.0293 -0.0641
 1035YOPC   GL214570  13.516   7.532   5.644 -0.0070 -0.0535 -0.2548
 1035YOPC   C1A14571  13.397   8.021   6.061 -0.1178 -0.2096 -0.0257
 1035YOPC   D2A14572  13.681   8.186   6.405  0.1231  0.1762 -0.2053
 1035YOPC   C3A14573  13.928   7.889   6.764  0.2985 -0.1293 -0.2464
 1035YOPC   C4A14574  14.084   7.465   7.111  0.1229  0.1470  0.1309
 1035YOPC   C1B14575  13.454   7.471   6.039 -0.0095  0.1392 -0.1129
 1035YOPC   C2B14576  13.394   7.606   6.511  0.2541 -0.2865  0.0619
 1035YOPC   D3B14577  13.397   7.915   6.763  0.2401  0.2115  0.0810
 1035YOPC   C4B14578  13.610   8.177   7.105  0.2102  0.0317  0.0558
 1036YOPC   NC314579   3.463  16.913   5.338 -0.1199 -0.2421  0.1753
 1036YOPC   PO414580   3.808  17.166   5.452 -0.1949  0.0261 -0.3579
 1036YOPC   GL114581   3.715  17.155   5.907  0.0442  0.2597 -0.0039
 1036YOPC   GL214582   3.421  17.255   6.090  0.2748  0.1146  0.0165
 1036YOPC   C1A14583   3.877  17.387   6.239 -0.3343  0.2127 -0.0199
 1036YOPC   D2A14584   4.236  17.496   6.531  0.1506 -0.0419  0.0005
 1036YOPC   C3A14585   4.327  17.254   6.751  0.1174 -0.1616 -0.2609
 1036YOPC   C4A14586   4.113  17.199   7.207  0.3307  0.1205  0.6400
 1036YOPC   C1B14587   3.402  17.324   6.453  0.1443 -0.0451 -0.0332
 1036YOPC   C2B14588   3.241  17.391   6.814  0.2130  0.1731 -0.3022
 1036YOPC   D3B14589   3.259  17.702   7.169  0.2598 -0.0635 -0.0588
 1036YOPC   C4B14590   3.469  17.827   7.554  0.0123 -0.1600  0.1603
 1037YOPC   NC314591  11.716  10.137   5.075  0.0487 -0.2160 -0.0726
 1037YOPC   PO414592  12.027   9.964   5.416  0.3048 -0.1905 -0.2336
 1037YOPC   GL114593  11.773  10.063   5.720 -0.3805  0.2401  0.0749
 1037YOPC   GL214594  11.478  10.244   5.590  0.2827  0.0046  0.0612
 1037YOPC   C1A14595  11.558   9.997   6.072  0.1746  0.1111 -0.2087
 1037YOPC   D2A14596  11.306   9.798   6.423  0.1675 -0.1707 -0.1737
 1037YOPC   C3A14597  11.489   9.725   6.744 -0.0046  0.2090 -0.1321
 1037YOPC   C4A14598  11.607   9.361   6.889 -0.1157  0.1996  0.4372
 1037YOPC   C1B14599  11.676  10.525   5.893  0.2214 -0.1162 -0.2706
 1037YOPC   C2B14600  11.823  10.757   6.162  0.1433 -0.0056 -0.2925
 1037YOPC   D3B14601  11.871  10.754   6.526 -0.0684  0.2808  0.1019
 1037YOPC   C4B14602  11.800  10.769   7.033 -0.1259 -0.2292  0.0081
 1038YOPC   NC314603   1.198   7.448   5.681  0.0008  0.1659  0.1512
 1038YOPC   PO414604   0.768   7.735   5.699  0.0963 -0.0997  0.2610
 1038YOPC   GL114605   0.947   7.961   6.076  0.0198  0.1995  0.0218
 1038YOPC   GL214606   0.776   8.202   6.187  0.1607  0.6039  0.2016
 1038YOPC   C1A14607   1.288   8.126   6.241 -0.0088 -0.1616  0.1285
 1038YOPC   D2A14608   1.650   7.908   6.149  0.1179 -0.2283  0.2923
 1038YOPC   C3A14609   1.683   7.470   6.138 -0.0047 -0.0845 -0.0532
 1038YOPC   C4A14610   1.327   7.126   6.209 -0.0210  0.0273  0.2348
 1038YOPC   C1B14611   0.553   8.114   6.536 -0.0200 -0.0703 -0.0839
 1038YOPC   C2B14612   0.111   8.133   6.552 -0.0103 -0.0572  0.1353
 1038YOPC   D3B14613  -0.057   8.319   6.910 -0.0672  0.1246 -0.2205
 1038YOPC   C4B14614  -0.055   8.170   7.322 -0.1479  0.3207  0.2869
 1039YOPC   NC314615  14.913   6.076   5.490 -0.0546  0.4920  0.3524
 1039YOPC   PO414616  14.736   6.443   5.546 -0.0583 -0.4072  0.1763
 1039YOPC   GL114617  14.727   6.150   5.906  0.2912 -0.2878 -0.0275
 1039YOPC   GL214618  14.802   5.770   5.886  0.0134  0.0533  0.2811
 1039YOPC   C1A14619  14.619   5.980   6.311 -0.1930 -0.0637  0.3460
 1039YOPC   D2A14620  14.522   5.634   6.574  0.1190 -0.0437 -0.0494
 1039YOPC   C3A14621  14.269   5.250   6.579  0.0270 -0.4934  0.0967
 1039YOPC   C4A14622  14.029   4.944   6.789 -0.0434  0.3375 -0.1510
 1039YOPC   C1B14623  14.950   5.605   6.353  0.0633 -0.3234 -0.1279
 1039YOPC   C2B14624  15.150   5.626   6.740  0.0828  0.0681  0.2053
 1039YOPC   D3B14625  15.097   5.844   7.181  0.1931  0.0564  0.1512
 1039YOPC   C4B14626  14.764   5.923   7.533  0.0871  0.1749 -0.0743
 1040YOPC   NC314627   2.707  17.858   5.149  0.5548 -0.2467  0.4033
 1040YOPC   PO414628   2.568  17.725   5.464  0.1440 -0.2513 -0.0801
 1040YOPC   GL114629   2.756  17.752   5.870  0.0355  0.3073 -0.1575
 1040YOPC   GL214630   3.031  17.563   5.939  0.3126 -0.0560  0.3317
 1040YOPC   C1A14631   2.965  18.114   6.078  0.2859  0.1032  0.2970
 1040YOPC   D2A14632   3.137  18.465   6.370 -0.0451 -0.1638  0.1204
 1040YOPC   C3A14633   3.273  18.450   6.771  0.0365 -0.1068 -0.0765
 1040YOPC   C4A14634   3.524  18.664   7.042 -0.1511 -0.1032 -0.3089
 1040YOPC   C1B14635   3.136  17.739   6.411 -0.0361 -0.2808  0.1150
 1040YOPC   C2B14636   3.063  17.988   6.732  0.3806  0.2494  0.0038
 1040YOPC   D3B14637   3.102  18.152   7.154 -0.1192 -0.0612  0.0514
 1040YOPC   C4B14638   3.317  18.275   7.408 -0.1839 -0.1834 -0.1636
 1041YOPC   NC314639  15.514  17.415   5.357 -0.1337  0.2202  0.0936
 1041YOPC   PO414640  15.749  17.089   5.305 -0.3268  0.3516 -0.0932
 1041YOPC   GL114641  15.678  16.945   5.744 -0.1676  0.0707 -0.3962
 1041YOPC   GL214642  15.840  17.001   6.015  0.0998  0.2350 -0.2295
 1041YOPC   C1A14643  15.297  16.978   6.001 -0.2451  0.2236 -0.2322
 1041YOPC   D2A14644  15.052  17.297   6.180  0.0572 -0.1657 -0.3528
 1041YOPC   C3A14645  14.773  17.290   6.527  0.1444  0.0290  0.2878
 1041YOPC   C4A14646  14.664  17.249   6.924 -0.2995  0.0571 -0.1818
 1041YOPC   C1B14647  15.628  16.643   6.168 -0.1381  0.0922 -0.0424
 1041YOPC   C2B14648  15.188  16.460   6.186  0.0841 -0.1377  0.0690
 1041YOPC   D3B14649  15.101  16.416   6.635 -0.1869  0.1437  0.0253
 1041YOPC   C4B14650  14.707  16.379   6.750 -0.0860 -0.1668 -0.2112
 1042YOPC   NC314651  11.788  13.178   5.295  0.0297 -0.2890  0.0133
 1042YOPC   PO414652  12.181  13.561   5.298 -0.2260  0.1971 -0.1407
 1042YOPC   GL114653  12.122  13.524   5.767  0.1164 -0.0805 -0.0359
 1042YOPC   GL214654  11.739  13.621   5.908  0.0135 -0.2918 -0.1029
 1042YOPC   C1A14655  12.128  13.266   6.189 -0.0681  0.1367 -0.1184
 1042YOPC   D2A14656  12.140  12.959   6.587  0.0858  0.1011  0.1011
 1042YOPC   C3A14657  12.226  12.824   7.048  0.2626 -0.1109  0.1456
 1042YOPC   C4A14658  12.215  12.395   7.388  0.3195  0.0451 -0.0390
 1042YOPC   C1B14659  11.564  13.761   6.258 -0.0358 -0.2112  0.4114
 1042YOPC   C2B14660  11.807  13.890   6.666 -0.2607  0.1344 -0.2646
 1042YOPC   D3B14661  11.626  14.136   7.030 -0.0195 -0.0303 -0.1090
 1042YOPC   C4B14662  11.484  13.960   7.418 -0.1056 -0.1611 -0.5605
 1043YOPC   NC314663  13.568   9.242   5.759  0.1897  0.1492 -0.0002
 1043YOPC   PO414664  13.355   8.837   5.522  0.1060 -0.1191  0.1514
 1043YOPC   GL114665  13.069   8.979   5.936  0.3409  0.1859 -0.0262
 1043YOPC   GL214666  12.873   9.141   6.050 -0.1052 -0.0445  0.1107
 1043YOPC   C1A14667  13.307   9.123   6.342  0.0701 -0.0342  0.1490
 1043YOPC   D2A14668  13.501   9.174   6.752  0.0204 -0.0372 -0.3585
 1043YOPC   C3A14669  13.266   9.423   7.064 -0.0943  0.0461 -0.0591
 1043YOPC   C4A14670  13.374   9.390   7.569  0.1462 -0.2745 -0.0628
 1043YOPC   C1B14671  12.858   9.039   6.505 -0.0797 -0.0001  0.2338
 1043YOPC   C2B14672  12.960   9.033   6.859  0.1379  0.0825 -0.1081
 1043YOPC   D3B14673  12.997   8.799   7.144  0.0042  0.1002 -0.0185
 1043YOPC   C4B14674  13.301   8.505   7.385 -0.0679  0.1874  0.0718
 1044YOPC   NC314675  18.782  13.823   5.690 -0.0857  0.2607 -0.0347
 1044YOPC   PO414676  18.737  14.359   5.565 -0.5057  0.0835  0.0671
 1044YOPC   GL114677  18.653  14.350   5.947 -0.0596 -0.1332  0.1866
 1044YOPC   GL214678  18.506  14.119   5.967  0.0539 -0.1615 -0.0903
 1044YOPC   C1A14679  18.694  14.534   6.351 -0.0864 -0.0859 -0.3973
 1044YOPC   D2A14680  18.896  14.809   6.782  0.2331  0.1603 -0.0019
 1044YOPC   C3A14681  19.221  14.650   7.074  0.1277  0.2115  0.0779
 1044YOPC   C4A14682  19.470  14.323   7.166 -0.2466  0.1670  0.0334
 1044YOPC   C1B14683  18.399  13.965   6.323  0.1276  0.2363 -0.1267
 1044YOPC   C2B14684  18.626  13.919   6.684 -0.1500 -0.0862 -0.1522
 1044YOPC   D3B14685  18.645  13.585   6.911  0.1086  0.1635  0.3186
 1044YOPC   C4B14686  18.423  13.559   7.239  0.1033 -0.0880  0.2296
 1045YOPC   NC314687  12.701   6.032   4.888  0.2719  0.0054  0.3756
 1045YOPC   PO414688  12.575   5.881   5.227 -0.0475 -0.1558 -0.1532
 1045YOPC   GL114689  12.426   5.974   5.700  0.1396  0.0884  0.0571
 1045YOPC   GL214690  12.506   6.317   5.834 -0.1729  0.1865 -0.0783
 1045YOPC   C1A14691  12.510   5.866   6.069 -0.1304 -0.1585 -0.2166
 1045YOPC   D2A14692  12.609   5.662   6.443 -0.1984 -0.0211  0.1310
 1045YOPC   C3A14693  12.476   5.656   6.804  0.0481 -0.1785 -0.0952
 1045YOPC   C4A14694  12.172   5.909   7.036 -0.1253  0.0036 -0.0519
 1045YOPC   C1B14695  12.525   6.359   6.211 -0.1040 -0.1360  0.2250
 1045YOPC   C2B14696  12.500   6.589   6.498 -0.0330 -0.1642  0.0648
 1045YOPC   D3B14697  12.356   6.371   6.887  0.0942 -0.2209  0.0377
 1045YOPC   C4B14698  12.005   6.335   7.100  0.2917 -0.0806 -0.1941
 1046YOPC   NC314699  12.304   8.193   5.422  0.1435  0.2278  0.1113
 1046YOPC   PO414700  12.469   8.567   5.592 -0.0323 -0.4276  0.0674
 1046YOPC   GL114701  12.505   8.797   5.873  0.0662  0.0955 -0.2534
 1046YOPC   GL214702  12.332   9.120   5.832  0.1288 -0.0346 -0.1155
 1046YOPC   C1A14703  12.560   8.682   6.371  0.0116 -0.0093 -0.0887
 1046YOPC   D2A14704  12.585   8.752   6.907  0.1064 -0.3406 -0.0921
 1046YOPC   C3A14705  12.429   8.460   7.081 -0.1447  0.1165 -0.0906
 1046YOPC   C4A14706  12.105   8.264   7.217  0.0548  0.0972  0.2377
 1046YOPC   C1B14707  12.150   8.994   6.185  0.0993 -0.0364  0.0009
 1046YOPC   C2B14708  11.911   9.152   6.542 -0.0172 -0.2014 -0.0258
 1046YOPC   D3B14709  12.046   8.910   6.932  0.3008 -0.0315 -0.0405
 1046YOPC   C4B14710  11.857   9.036   7.290  0.3062  0.0541  0.0865
 1047YOPC   NC314711  18.895   2.498   5.706  0.0960  0.1925 -0.0882
 1047YOPC   PO414712  19.190   2.693   5.567  0.0280 -0.1130  0.0670
 1047YOPC   GL114713  19.296   2.852   5.915 -0.1116  0.1571 -0.0802
 1047YOPC   GL214714  19.028   2.986   6.049  0.1832 -0.2208 -0.2763
 1047YOPC   C1A14715  19.500   2.923   6.245 -0.1205  0.0427  0.2976
 1047YOPC   D2A14716  19.580   3.245   6.647  0.1286 -0.0414 -0.0465
 1047YOPC   C3A14717  19.768   3.151   6.971 -0.0020 -0.0147  0.0163
 1047YOPC   C4A14718  19.749   2.996   7.372 -0.1256  0.0814  0.0430
 1047YOPC   C1B14719  18.938   2.714   6.321 -0.0270 -0.1219  0.1094
 1047YOPC   C2B14720  18.703   2.691   6.718 -0.0210 -0.0981 -0.0795
 1047YOPC   D3B14721  18.867   2.942   7.135  0.1046 -0.3073  0.1553
 1047YOPC   C4B14722  19.160   2.992   7.467 -0.0442  0.0790  0.1011
 1048YOPC   NC314723   6.797  16.685   5.007 -0.1510 -0.2466  0.2024
 1048YOPC   PO414724   6.978  16.306   5.250  0.1448 -0.1162  0.2511
 1048YOPC   GL114725   7.009  16.311   5.728  0.0353  0.1158  0.0095
 1048YOPC   GL214726   6.835  16.391   5.891  0.1099 -0.1804  0.0566
 1048YOPC   C1A14727   7.080  16.108   6.185  0.0697  0.0501 -0.0907
 1048YOPC   D2A14728   7.233  15.955   6.658  0.2320  0.0652  0.0069
 1048YOPC   C3A14729   7.158  16.026   7.114 -0.1620 -0.0961  0.2225
 1048YOPC   C4A14730   6.759  15.944   7.357  0.2669 -0.0501  0.0041
 1048YOPC   C1B14731   6.627  16.544   6.318  0.0012  0.0420 -0.1395
 1048YOPC   C2B14732   6.451  16.609   6.644  0.1939  0.1044 -0.0035
 1048YOPC   D3B14733   6.299  16.471   7.116 -0.0712  0.1274 -0.0702
 1048YOPC   C4B14734   6.381  16.616   7.542 -0.2626  0.0066  0.0548
 1049YOPC   NC314735   3.060  15.740   5.552 -0.5901  0.1646  0.0746
 1049YOPC   PO414736   3.177  15.285   5.700 -0.0565 -0.2863 -0.1292
 1049YOPC   GL114737   3.194  15.126   6.075 -0.0793  0.0206 -0.2068
 1049YOPC   GL214738   3.433  15.129   6.227  0.0122  0.0329 -0.0216
 1049YOPC   C1A14739   3.185  14.985   6.598  0.2868 -0.1177  0.3340
 1049YOPC   D2A14740   3.542  15.101   6.938  0.1653  0.0775 -0.0617
 1049YOPC   C3A14741   3.551  15.305   7.306  0.1026  0.0045  0.0435
 1049YOPC   C4A14742   3.745  15.651   7.525  0.0882 -0.1258  0.1796
 1049YOPC   C1B14743   3.656  14.839   6.463  0.2711  0.0342 -0.0285
 1049YOPC   C2B14744   4.077  14.958   6.680 -0.2072 -0.0759  0.4909
 1049YOPC   D3B14745   4.051  14.631   7.017  0.1606 -0.1060  0.0100
 1049YOPC   C4B14746   4.292  14.338   7.162 -0.2946  0.1031  0.1261
 1050YOPC   NC314747   2.875  16.476   5.602 -0.1889  0.1611 -0.5257
 1050YOPC   PO414748   2.392  16.487   5.685 -0.3659 -0.0057  0.1267
 1050YOPC   GL114749   2.283  16.594   6.162  0.1587  0.2327  0.1515
 1050YOPC   GL214750   2.001  16.497   6.131 -0.1083 -0.5124 -0.4032
 1050YOPC   C1A14751   2.337  16.713   6.539 -0.0984  0.2921  0.4129
 1050YOPC   D2A14752   2.421  16.885   6.916  0.0866 -0.0937 -0.1307
 1050YOPC   C3A14753   2.615  16.783   7.290  0.2527  0.0492 -0.0940
 1050YOPC   C4A14754   2.792  16.808   7.655 -0.0163 -0.0545  0.0408
 1050YOPC   C1B14755   1.902  16.386   6.532 -0.3121 -0.1039 -0.1405
 1050YOPC   C2B14756   1.883  16.110   6.958  0.0548  0.1438  0.1386
 1050YOPC   D3B14757   2.262  15.903   7.133  0.1603  0.0878 -0.1289
 1050YOPC   C4B14758   2.598  15.605   7.314  0.0730 -0.0986 -0.1073
 1051YOPC   NC314759   6.686   2.919   5.161  0.1701 -0.0642 -0.0597
 1051YOPC   PO414760   6.918   2.914   5.413 -0.2358 -0.0362 -0.1340
 1051YOPC   GL114761   6.869   3.008   5.827 -0.0879  0.0244 -0.0876
 1051YOPC   GL214762   7.124   3.028   6.090  0.0004 -0.0137 -0.1687
 1051YOPC   C1A14763   6.474   3.193   6.110 -0.2281 -0.0684  0.3880
 1051YOPC   D2A14764   5.998   3.366   6.044 -0.1793 -0.1121  0.1165
 1051YOPC   C3A14765   5.815   3.660   6.372  0.0885  0.2630 -0.4954
 1051YOPC   C4A14766   5.564   3.519   6.733 -0.1967  0.3659 -0.0962
 1051YOPC   C1B14767   7.076   3.238   6.506  0.1347  0.0035 -0.0529
 1051YOPC   C2B14768   6.896   3.342   6.894  0.0285 -0.0489  0.1825
 1051YOPC   D3B14769   6.892   2.938   7.214 -0.2965  0.0372 -0.2342
 1051YOPC   C4B14770   6.722   2.629   7.115 -0.0740  0.1960 -0.0640
 1052YOPC   NC314771  15.347   7.518   5.479 -0.3206  0.2892  0.0378
 1052YOPC   PO414772  15.208   7.081   5.522 -0.1403  0.0794 -0.4267
 1052YOPC   GL114773  14.991   7.302   5.871  0.1911 -0.2966 -0.0432
 1052YOPC   GL214774  15.089   7.637   5.871  0.0253 -0.0051  0.0194
 1052YOPC   C1A14775  14.543   7.592   6.202 -0.1286 -0.3374  0.0765
 1052YOPC   D2A14776  14.344   7.680   6.623 -0.1541  0.2736 -0.1933
 1052YOPC   C3A14777  14.356   7.886   7.058 -0.1474  0.0182 -0.1329
 1052YOPC   C4A14778  14.456   7.974   7.586 -0.0871  0.0999  0.1693
 1052YOPC   C1B14779  15.037   7.558   6.327 -0.1152 -0.1472  0.0947
 1052YOPC   C2B14780  15.337   7.474   6.621 -0.0093  0.2850  0.0666
 1052YOPC   D3B14781  15.065   7.279   6.908 -0.0603  0.0423  0.1255
 1052YOPC   C4B14782  15.090   6.867   7.080 -0.0354  0.0138 -0.1286
 1053YOPC   NC314783  17.865  15.917   5.500  0.2903  0.0126 -0.0914
 1053YOPC   PO414784  17.632  16.175   5.755 -0.0848  0.0673  0.2377
 1053YOPC   GL114785  17.784  16.179   6.190  0.0737  0.0354 -0.2550
 1053YOPC   GL214786  17.469  16.137   6.269 -0.2370  0.0702  0.2137
 1053YOPC   C1A14787  18.064  16.017   6.593  0.3451 -0.3442  0.1229
 1053YOPC   D2A14788  18.151  15.783   6.989 -0.0607 -0.4578 -0.1128
 1053YOPC   C3A14789  18.033  15.782   7.454 -0.2844  0.1661  0.3958
 1053YOPC   C4A14790  17.650  15.821   7.678  0.2365 -0.2484 -0.0022
 1053YOPC   C1B14791  17.600  15.901   6.621  0.2306 -0.3354 -0.2774
 1053YOPC   C2B14792  17.688  15.490   6.786  0.1572 -0.0156 -0.2799
 1053YOPC   D3B14793  17.684  15.435   7.279 -0.0420  0.0260  0.2083
 1053YOPC   C4B14794  17.783  15.303   7.691 -0.1323  0.3609 -0.2321
 1054YOPC   NC314795   2.427   1.156   4.727  0.0129  0.0059 -0.1476
 1054YOPC   PO414796   2.394   1.522   5.117  0.2929 -0.1778  0.0101
 1054YOPC   GL114797   2.655   1.701   5.468 -0.3161 -0.2289  0.1192
 1054YOPC   GL214798   2.446   1.974   5.608  0.0032  0.1380  0.0171
 1054YOPC   C1A14799   2.903   1.913   5.806 -0.1431  0.0487  0.0999
 1054YOPC   D2A14800   3.181   1.969   6.125  0.1569 -0.0638  0.2757
 1054YOPC   C3A14801   3.088   2.112   6.491  0.2036 -0.1206 -0.2118
 1054YOPC   C4A14802   2.888   2.209   6.755  0.0297  0.1319 -0.0901
 1054YOPC   C1B14803   2.305   2.183   5.813 -0.1203 -0.1992 -0.0881
 1054YOPC   C2B14804   2.328   2.606   6.052 -0.1800 -0.0581  0.1351
 1054YOPC   D3B14805   2.213   2.639   6.425 -0.1225 -0.0807 -0.0007
 1054YOPC   C4B14806   1.940   2.476   6.747 -0.2052 -0.1545  0.2612
 1055YOPC   NC314807  18.059  18.735   5.314  0.1278 -0.4706 -0.0128
 1055YOPC   PO414808  17.886  18.813   5.744  0.2663  0.4102  0.0544
 1055YOPC   GL114809  17.829  18.432   5.951 -0.0441  0.2833 -0.2059
 1055YOPC   GL214810  18.135  18.156   6.050  0.0856  0.2572 -0.3702
 1055YOPC   C1A14811  17.708  18.249   6.460 -0.1829 -0.0827  0.3146
 1055YOPC   D2A14812  17.776  18.344   6.905 -0.2136 -0.1380 -0.3106
 1055YOPC   C3A14813  17.629  18.085   7.228  0.3054 -0.2934 -0.2159
 1055YOPC   C4A14814  17.516  17.852   7.738 -0.3590  0.1368  0.4864
 1055YOPC   C1B14815  18.186  18.102   6.572  0.0552 -0.1026  0.1287
 1055YOPC   C2B14816  18.246  18.010   6.960  0.0775 -0.0990 -0.3467
 1055YOPC   D3B14817  18.152  18.233   7.293  0.0771  0.0016  0.1427
 1055YOPC   C4B14818  18.061  18.637   7.305  0.0124 -0.4087  0.1497
 1056YOPC   NC314819  11.533  11.555   5.413  0.1006  0.2646 -0.0242
 1056YOPC   PO414820  11.856  11.667   5.208  0.1370  0.0507 -0.3584
 1056YOPC   GL114821  11.931  11.734   5.739  0.2328 -0.1565  0.1139
 1056YOPC   GL214822  12.165  11.837   5.786 -0.0879 -0.2421  0.0693
 1056YOPC   C1A14823  11.828  11.507   6.120 -0.0546 -0.0466 -0.1560
 1056YOPC   D2A14824  11.831  11.466   6.569 -0.0113  0.0514  0.0694
 1056YOPC   C3A14825  11.883  11.251   6.862 -0.2308 -0.1360  0.0352
 1056YOPC   C4A14826  12.092  11.186   7.267 -0.2748  0.0830 -0.0935
 1056YOPC   C1B14827  12.485  11.967   6.141  0.1044  0.1415 -0.1054
 1056YOPC   C2B14828  12.777  11.974   6.485  0.1571  0.0131 -0.3178
 1056YOPC   D3B14829  12.793  11.637   6.848  0.4119 -0.1168  0.3550
 1056YOPC   C4B14830  12.395  11.432   6.829 -0.0806 -0.3432  0.1287
 1057YOPC   NC314831  10.357   5.970   5.052  0.2005  0.0871  0.1222
 1057YOPC   PO414832  10.471   5.562   5.251 -0.2914 -0.2142  0.0552
 1057YOPC   GL114833  10.450   5.437   5.679  0.2039  0.0126 -0.0581
 1057YOPC   GL214834  10.009   5.404   5.666 -0.1353  0.0508 -0.1049
 1057YOPC   C1A14835  10.506   5.258   5.990 -0.1194  0.0252 -0.3250
 1057YOPC   D2A14836  10.338   5.062   6.398 -0.0062 -0.1533 -0.0939
 1057YOPC   C3A14837  10.169   4.874   6.778  0.0574  0.4894  0.1577
 1057YOPC   C4A14838   9.933   4.864   7.180 -0.1588  0.4452  0.0234
 1057YOPC   C1B14839  10.059   5.657   5.995 -0.1009 -0.0483  0.3675
 1057YOPC   C2B14840  10.083   5.920   6.204  0.1387  0.2711 -0.0981
 1057YOPC   D3B14841   9.932   5.863   6.720  0.0662 -0.2548  0.1336
 1057YOPC   C4B14842  10.091   5.917   7.186  0.4828  0.0299 -0.0807
 1058YOPC   NC314843  15.595  16.582   5.462 -0.1035 -0.3373  0.1290
 1058YOPC   PO414844  15.471  16.215   5.632  0.2910 -0.2134  0.3040
 1058YOPC   GL114845  15.547  16.069   5.985 -0.0122 -0.1491  0.0525
 1058YOPC   GL214846  15.736  15.887   6.073  0.2355  0.0890  0.2822
 1058YOPC   C1A14847  15.540  16.147   6.473 -0.3075  0.0526 -0.0818
 1058YOPC   D2A14848  15.509  16.039   6.830 -0.2007 -0.0522  0.1967
 1058YOPC   C3A14849  15.833  15.757   7.036 -0.1640  0.0430 -0.0408
 1058YOPC   C4A14850  16.061  15.786   7.398  0.3037  0.0024 -0.1056
 1058YOPC   C1B14851  15.898  15.817   6.525 -0.0103  0.1145 -0.3291
 1058YOPC   C2B14852  16.121  16.057   6.786 -0.1193 -0.0051  0.2033
 1058YOPC   D3B14853  16.374  16.048   7.180  0.1730 -0.0727  0.2272
 1058YOPC   C4B14854  16.645  15.934   7.514 -0.1070  0.1531  0.0024
 1059YOPC   NC314855  14.573  14.577   5.272  0.3722 -0.0466  0.0008
 1059YOPC   PO414856  15.034  14.676   5.186 -0.1992 -0.2870 -0.0869
 1059YOPC   GL114857  14.947  14.721   5.600  0.0720 -0.2399  0.2594
 1059YOPC   GL214858  15.133  14.928   5.793  0.3191 -0.1704  0.2513
 1059YOPC   C1A14859  14.809  14.510   6.021 -0.0538 -0.3876  0.4141
 1059YOPC   D2A14860  14.778  14.469   6.483  0.1737 -0.0908 -0.2816
 1059YOPC   C3A14861  14.568  14.168   6.617  0.2754  0.0529  0.0020
 1059YOPC   C4A14862  14.212  14.052   6.843 -0.1112  0.0313 -0.2179
 1059YOPC   C1B14863  15.016  14.962   6.244  0.1775 -0.0450  0.0214
 1059YOPC   C2B14864  14.976  14.954   6.636 -0.1037  0.0967 -0.1755
 1059YOPC   D3B14865  15.115  14.702   7.061  0.4268  0.1779 -0.0682
 1059YOPC   C4B14866  15.188  14.788   7.486  0.1645 -0.0503  0.1507
 1060YOPC   NC314867   2.299   2.006   5.072  0.1418 -0.0405  0.0197
 1060YOPC   PO414868   2.039   2.311   5.025  0.0914 -0.2761 -0.0293
 1060YOPC   GL114869   1.943   2.121   5.461  0.1006 -0.1033  0.1920
 1060YOPC   GL214870   1.842   2.425   5.663  0.1061 -0.0218  0.1494
 1060YOPC   C1A14871   1.842   1.941   5.837  0.0731  0.0172  0.0421
 1060YOPC   D2A14872   1.854   1.606   6.162 -0.0453  0.3995 -0.2205
 1060YOPC   C3A14873   1.694   1.558   6.472 -0.1399  0.2928 -0.0580
 1060YOPC   C4A14874   1.291   1.693   6.685  0.1384  0.2736  0.0011
 1060YOPC   C1B14875   1.835   2.371   6.103  0.0363  0.0323 -0.0922
 1060YOPC   C2B14876   2.024   2.142   6.367 -0.2662 -0.1834  0.1746
 1060YOPC   D3B14877   1.977   1.900   6.680 -0.1260  0.2231 -0.2475
 1060YOPC   C4B14878   1.929   1.592   6.936  0.3697 -0.2097 -0.0807
 1061YOPC   NC314879  10.767  12.141   5.311  0.1603 -0.0413 -0.4258
 1061YOPC   PO414880  11.172  12.421   5.476  0.0618  0.3616 -0.0296
 1061YOPC   GL114881  11.295  12.478   5.749  0.1228 -0.0394 -0.1157
 1061YOPC   GL214882  11.175  12.404   6.077  0.0742  0.1081  0.2030
 1061YOPC   C1A14883  11.608  12.504   6.162 -0.0824  0.1997  0.0579
 1061YOPC   D2A14884  11.691  12.607   6.671 -0.0810 -0.0192  0.2111
 1061YOPC   C3A14885  11.407  12.851   6.721 -0.1329 -0.1081  0.1329
 1061YOPC   C4A14886  11.325  13.088   7.030  0.2954  0.0231 -0.1581
 1061YOPC   C1B14887  11.297  12.340   6.511  0.1411 -0.0587 -0.2035
 1061YOPC   C2B14888  11.526  12.086   6.791  0.0910 -0.3547  0.0260
 1061YOPC   D3B14889  12.004  12.229   6.843 -0.0024 -0.1107 -0.1249
 1061YOPC   C4B14890  12.392  11.980   6.785 -0.2098 -0.4093  0.1016
 1062YOPC   NC314891   1.177   0.623   5.311  0.1717 -0.0187  0.0797
 1062YOPC   PO414892   1.008   0.242   5.230  0.1603 -0.2785 -0.3160
 1062YOPC   GL114893   1.073   0.317   5.683  0.1088  0.1076  0.1754
 1062YOPC   GL214894   1.217   0.624   5.858 -0.1840  0.2355  0.1782
 1062YOPC   C1A14895   1.182   0.261   6.120 -0.3429 -0.2100  0.1316
 1062YOPC   D2A14896   1.221   0.482   6.398  0.1426  0.2878  0.0993
 1062YOPC   C3A14897   1.574   0.632   6.695 -0.2261 -0.1630  0.2253
 1062YOPC   C4A14898   2.022   0.665   6.518 -0.1197  0.1512 -0.0467
 1062YOPC   C1B14899   1.547   0.727   6.086 -0.1680  0.1637 -0.0875
 1062YOPC   C2B14900   1.718   1.057   6.185 -0.0860  0.0728  0.3242
 1062YOPC   D3B14901   1.419   1.361   6.136 -0.1328  0.2553 -0.1737
 1062YOPC   C4B14902   1.199   1.823   6.001 -0.1297  0.2401 -0.1646
 1063YOPC   NC314903  16.019   4.216   5.695  0.0064  0.2482 -0.0053
 1063YOPC   PO414904  16.411   3.979   5.854 -0.1944 -0.0408 -0.0759
 1063YOPC   GL114905  16.150   3.737   6.086  0.1917  0.2644 -0.2984
 1063YOPC   GL214906  16.034   4.001   6.200  0.2405  0.4032  0.4935
 1063YOPC   C1A14907  15.883   3.516   6.319 -0.0592 -0.1792  0.1959
 1063YOPC   D2A14908  15.602   3.363   6.629 -0.1782  0.0161  0.3427
 1063YOPC   C3A14909  15.753   3.228   6.942 -0.0465  0.2528 -0.0782
 1063YOPC   C4A14910  15.776   3.199   7.466 -0.1575  0.0297  0.0185
 1063YOPC   C1B14911  15.560   3.946   6.330 -0.0933  0.0610 -0.1588
 1063YOPC   C2B14912  15.466   3.831   6.710 -0.1979  0.0354 -0.1296
 1063YOPC   D3B14913  15.512   4.017   7.056  0.0212 -0.0191  0.3348
 1063YOPC   C4B14914  15.372   4.039   7.449  0.1245 -0.2234  0.0159
 1064YOPC   NC314915   5.863   1.242   5.390  0.3936  0.0303 -0.4982
 1064YOPC   PO414916   5.775   0.700   5.340  0.1734 -0.2096 -0.1504
 1064YOPC   GL114917   5.808   0.736   5.711 -0.1008  0.2885 -0.1720
 1064YOPC   GL214918   6.170   0.906   5.807  0.2934  0.0965  0.0785
 1064YOPC   C1A14919   5.515   0.732   6.104 -0.0535  0.0193  0.2118
 1064YOPC   D2A14920   5.485   0.616   6.607  0.0422 -0.2407  0.0392
 1064YOPC   C3A14921   5.567   0.502   7.051  0.3459  0.1325 -0.2142
 1064YOPC   C4A14922   5.441   0.519   7.407 -0.2978 -0.0916  0.0288
 1064YOPC   C1B14923   6.048   0.814   6.203  0.2685 -0.3867  0.1759
 1064YOPC   C2B14924   5.899   0.476   6.334  0.0892  0.0055  0.2523
 1064YOPC   D3B14925   5.918   0.235   6.773  0.0616  0.1136 -0.3244
 1064YOPC   C4B14926   5.654   0.004   7.063 -0.0211 -0.0036  0.1813
 1065YOPC   NC314927   8.188  15.405   5.437 -0.1060  0.1147 -0.0518
 1065YOPC   PO414928   8.588  15.343   5.342 -0.0046 -0.1336  0.0719
 1065YOPC   GL114929   8.860  15.543   5.641 -0.0597 -0.2224 -0.0321
 1065YOPC   GL214930   9.179  15.738   5.578 -0.0503 -0.3025  0.2056
 1065YOPC   C1A14931   8.987  15.493   6.040  0.1004 -0.1085 -0.0258
 1065YOPC   D2A14932   9.030  15.455   6.508  0.1501  0.1645  0.2975
 1065YOPC   C3A14933   9.008  15.588   6.848 -0.1817  0.1548 -0.0575
 1065YOPC   C4A14934   8.967  15.664   7.209  0.2051  0.0830 -0.1470
 1065YOPC   C1B14935   9.235  15.967   5.992 -0.0199  0.2851 -0.2732
 1065YOPC   C2B14936   9.225  16.127   6.379 -0.0195  0.2435 -0.0923
 1065YOPC   D3B14937   9.017  16.388   6.642  0.3083  0.1080  0.0468
 1065YOPC   C4B14938   8.697  16.570   6.585  0.2274  0.0665  0.1120
 1066YOPC   NC314939   8.541  12.036   4.694  0.0361  0.2439 -0.1026
 1066YOPC   PO414940   8.514  12.081   5.159 -0.0066  0.2133 -0.1184
 1066YOPC   GL114941   8.506  11.680   5.489 -0.5483 -0.4478  0.1346
 1066YOPC   GL214942   8.440  11.226   5.598  0.0690 -0.2139 -0.1272
 1066YOPC   C1A14943   8.733  11.634   5.794  0.0200  0.0301 -0.1018
 1066YOPC   D2A14944   8.968  11.159   5.916  0.0172  0.0308  0.1581
 1066YOPC   C3A14945   8.938  11.080   6.319 -0.3265  0.2246 -0.0180
 1066YOPC   C4A14946   9.135  10.997   6.653 -0.1707  0.1736 -0.2299
 1066YOPC   C1B14947   8.561  11.296   6.124 -0.0549  0.1001 -0.1088
 1066YOPC   C2B14948   8.606  11.404   6.605  0.1000 -0.3866 -0.1129
 1066YOPC   D3B14949   8.565  11.438   7.057 -0.0571 -0.1777 -0.2792
 1066YOPC   C4B14950   8.372  11.086   7.350 -0.0542  0.0768  0.0524
 1067YOPC   NC314951  16.498   6.829   5.373 -0.3648 -0.0035  0.0439
 1067YOPC   PO414952  16.232   7.164   5.416  0.0388 -0.0717  0.0211
 1067YOPC   GL114953  16.243   7.222   5.827  0.0569 -0.0877  0.1088
 1067YOPC   GL214954  16.011   7.418   6.048 -0.0642  0.1256  0.0191
 1067YOPC   C1A14955  16.292   7.045   6.265 -0.1849 -0.0319 -0.1889
 1067YOPC   D2A14956  16.542   6.942   6.656  0.0567  0.1331  0.0591
 1067YOPC   C3A14957  16.285   6.865   7.003 -0.0641  0.1561 -0.1874
 1067YOPC   C4A14958  16.207   6.784   7.501  0.0543  0.2333 -0.0199
 1067YOPC   C1B14959  15.750   7.701   6.378  0.1758  0.0986 -0.3589
 1067YOPC   C2B14960  15.905   7.723   6.817  0.2044 -0.1875  0.0754
 1067YOPC   D3B14961  15.865   8.046   6.865 -0.2116 -0.0348  0.3527
 1067YOPC   C4B14962  15.732   8.296   7.099  0.0061 -0.0431  0.0263
 1068YOPC   NC314963   0.033  14.777   5.851 -0.0320  0.0012 -0.2257
 1068YOPC   PO414964   0.028  15.109   6.085  0.1723 -0.1875 -0.0273
 1068YOPC   GL114965  -0.005  15.283   6.486  0.0176  0.0548  0.4346
 1068YOPC   GL214966  -0.299  15.297   6.556 -0.0718  0.0805  0.3289
 1068YOPC   C1A14967   0.063  15.606   6.738 -0.2276  0.1803  0.1909
 1068YOPC   D2A14968   0.049  15.832   7.053 -0.0984  0.2125 -0.2632
 1068YOPC   C3A14969   0.026  15.675   7.511  0.0581  0.4506  0.0036
 1068YOPC   C4A14970   0.237  15.428   7.825  0.1892 -0.3138 -0.0153
 1068YOPC   C1B14971  -0.297  15.313   6.968  0.2046 -0.2162 -0.0942
 1068YOPC   C2B14972  -0.430  15.666   7.202  0.0433  0.0414  0.2086
 1068YOPC   D3B14973  -0.434  15.770   7.642  0.0556 -0.1070 -0.1071
 1068YOPC   C4B14974  -0.205  15.708   7.952 -0.2254 -0.1772 -0.2777
 1069YOPC   NC314975   9.767  16.945   5.660 -0.2294 -0.1496  0.0476
 1069YOPC   PO414976  10.149  16.803   5.634  0.1086  0.1065 -0.1576
 1069YOPC   GL114977  10.269  16.821   6.012  0.0919 -0.0062  0.0974
 1069YOPC   GL214978  10.392  17.051   6.033  0.2154 -0.1153 -0.0698
 1069YOPC   C1A14979  10.330  16.733   6.394  0.2427  0.0094  0.1475
 1069YOPC   D2A14980  10.582  16.772   6.663  0.1530 -0.0037  0.0385
 1069YOPC   C3A14981  10.770  16.424   6.780 -0.1309 -0.0959  0.0124
 1069YOPC   C4A14982  11.140  16.244   6.743  0.1465 -0.2036 -0.2140
 1069YOPC   C1B14983  10.322  17.466   6.053  0.0122 -0.3038 -0.1163
 1069YOPC   C2B14984  10.129  17.863   6.290 -0.0762 -0.0606 -0.0931
 1069YOPC   D3B14985  10.377  18.191   6.518  0.2215  0.3289 -0.1057
 1069YOPC   C4B14986  10.239  18.541   6.333  0.0493  0.2781 -0.0469
 1070YOPC   NC314987  12.661  10.653   5.206  0.3493 -0.0312  0.2189
 1070YOPC   PO414988  12.384  10.367   5.271 -0.3095  0.1778 -0.0084
 1070YOPC   GL114989  12.336  10.524   5.639 -0.0573 -0.0592 -0.0259
 1070YOPC   GL214990  12.354  10.297   5.884  0.1528  0.1546  0.2494
 1070YOPC   C1A14991  12.136  10.750   5.777 -0.0632 -0.0976 -0.0412
 1070YOPC   D2A14992  12.161  11.084   5.982 -0.4063 -0.0890 -0.0672
 1070YOPC   C3A14993  12.248  11.414   5.909 -0.1195  0.2411 -0.1782
 1070YOPC   C4A14994  12.649  11.513   5.876  0.1040  0.1611  0.3192
 1070YOPC   C1B14995  12.005  10.292   6.179  0.3641 -0.0130 -0.1852
 1070YOPC   C2B14996  11.770  10.095   6.571 -0.2672  0.1380 -0.3121
 1070YOPC   D3B14997  11.383  10.212   6.853 -0.3704  0.2977  0.0094
 1070YOPC   C4B14998  10.902  10.262   6.910  0.1038 -0.1658  0.3349
 1071YOPC   NC314999  16.375  10.781   4.951  0.1527 -0.1926 -0.0846
 1071YOPC   PO415000  16.155  10.956   5.294 -0.1146 -0.3253  0.1785
 1071YOPC   GL115001  16.279  11.017   5.605  0.0667  0.1848  0.0234
 1071YOPC   GL215002  16.060  10.918   5.835 -0.1798 -0.1334  0.0148
 1071YOPC   C1A15003  16.444  11.295   5.864 -0.3323  0.2855 -0.2376
 1071YOPC   D2A15004  16.337  11.631   6.202  0.0155 -0.3409 -0.0360
 1071YOPC   C3A15005  15.958  11.821   6.087  0.1287  0.1031  0.0665
 1071YOPC   C4A15006  15.657  12.146   6.196 -0.2070 -0.2677  0.1703
 1071YOPC   C1B15007  16.239  10.919   6.173  0.0379  0.1604 -0.0930
 1071YOPC   C2B15008  16.618  10.713   6.481 -0.1788  0.0239  0.0657
 1071YOPC   D3B15009  16.789  10.995   6.830  0.0282 -0.0118 -0.0850
 1071YOPC   C4B15010  17.000  11.347   6.835  0.0883  0.1959  0.1055
 1072YOPC   NC315011   2.796  17.264   5.580 -0.0825 -0.2617 -0.1334
 1072YOPC   PO415012   2.984  16.968   5.598  0.1601  0.1591  0.4225
 1072YOPC   GL115013   3.205  16.806   5.920 -0.1973 -0.1628  0.1475
 1072YOPC   GL215014   3.179  16.533   5.979  0.3014 -0.0497  0.0643
 1072YOPC   C1A15015   3.255  16.848   6.356  0.3306  0.0737 -0.1832
 1072YOPC   D2A15016   3.322  16.746   6.685 -0.0289 -0.1497 -0.1279
 1072YOPC   C3A15017   3.450  16.952   6.979 -0.2403 -0.1115  0.5156
 1072YOPC   C4A15018   3.686  16.695   7.317  0.2955  0.1327 -0.2146
 1072YOPC   C1B15019   3.312  16.321   6.354  0.3632 -0.2828  0.2999
 1072YOPC   C2B15020   3.162  16.283   6.727  0.3426  0.0741  0.0692
 1072YOPC   D3B15021   3.229  16.207   7.143 -0.0237 -0.3370  0.2747
 1072YOPC   C4B15022   3.639  16.082   7.321 -0.2374 -0.0240  0.1847
 1073YOPC   NC315023  16.365  13.479   5.085  0.0919 -0.1285 -0.0082
 1073YOPC   PO415024  16.388  13.735   5.357 -0.1265 -0.1944  0.1422
 1073YOPC   GL115025  16.449  14.053   5.633  0.1695 -0.0877 -0.1201
 1073YOPC   GL215026  16.653  13.814   5.919  0.1122 -0.0158  0.1161
 1073YOPC   C1A15027  16.115  14.163   5.903  0.1381 -0.3217  0.0715
 1073YOPC   D2A15028  15.713  14.176   6.092 -0.0007 -0.3899 -0.2822
 1073YOPC   C3A15029  15.486  13.777   6.135 -0.1418 -0.1734 -0.0368
 1073YOPC   C4A15030  15.385  13.469   6.430 -0.1135  0.0683  0.1452
 1073YOPC   C1B15031  16.754  13.800   6.347  0.0064 -0.0643 -0.2478
 1073YOPC   C2B15032  16.834  14.123   6.599 -0.2595 -0.5266  0.1681
 1073YOPC   D3B15033  16.780  14.171   7.055  0.1710  0.1311 -0.1631
 1073YOPC   C4B15034  16.651  14.094   7.456 -0.1258  0.2160 -0.0223
 1074YOPC   NC315035  18.752  12.003   5.364  0.2600  0.0722 -0.1202
 1074YOPC   PO415036  18.311  11.889   5.529 -0.1075 -0.1460 -0.0963
 1074YOPC   GL115037  18.338  11.970   5.879  0.2324  0.2414  0.0228
 1074YOPC   GL215038  18.299  12.229   6.072 -0.1226 -0.3920  0.2235
 1074YOPC   C1A15039  18.340  11.832   6.363 -0.0330  0.0704 -0.2667
 1074YOPC   D2A15040  18.301  11.548   6.695 -0.2336  0.1459 -0.0096
 1074YOPC   C3A15041  18.233  11.475   7.066  0.1896 -0.1251 -0.1979
 1074YOPC   C4A15042  18.174  11.151   7.446 -0.3040  0.1482  0.0055
 1074YOPC   C1B15043  18.105  12.268   6.373  0.0591 -0.1925 -0.1186
 1074YOPC   C2B15044  18.089  12.335   6.809  0.2475 -0.2997  0.1326
 1074YOPC   D3B15045  18.238  11.957   7.131  0.2454  0.3367 -0.2985
 1074YOPC   C4B15046  18.199  11.763   7.570  0.0679 -0.0191 -0.1633
 1075YOPC   NC315047  12.032   8.782   5.649  0.0101 -0.1725  0.2540
 1075YOPC   PO415048  11.940   8.369   5.687 -0.1344  0.1070  0.0372
 1075YOPC   GL115049  12.150   8.409   6.012  0.1010 -0.4460 -0.1511
 1075YOPC   GL215050  12.360   8.225   5.936  0.1154 -0.3766  0.1908
 1075YOPC   C1A15051  12.038   8.526   6.504  0.2319  0.0236 -0.1877
 1075YOPC   D2A15052  11.793   8.407   6.839 -0.2734 -0.0499  0.1676
 1075YOPC   C3A15053  11.580   8.071   7.067  0.2934 -0.0798 -0.1279
 1075YOPC   C4A15054  11.400   7.813   7.296  0.4046 -0.3059  0.0807
 1075YOPC   C1B15055  12.596   8.186   6.262 -0.1913  0.1701 -0.3656
 1075YOPC   C2B15056  12.620   8.257   6.632 -0.1592  0.1783 -0.0574
 1075YOPC   D3B15057  12.529   7.918   7.001  0.0511  0.3142 -0.1530
 1075YOPC   C4B15058  12.420   7.513   6.901 -0.0303  0.0803 -0.0137
 1076YOPC   NC315059   1.484  12.205   5.559 -0.0201 -0.4321  0.0216
 1076YOPC   PO415060   2.040  12.438   5.585 -0.1722  0.0722  0.0394
 1076YOPC   GL115061   1.802  12.303   5.892  0.0155 -0.3362  0.0168
 1076YOPC   GL215062   1.746  11.984   5.923  0.0362 -0.0936  0.3377
 1076YOPC   C1A15063   1.885  12.240   6.338 -0.0265 -0.2896  0.2906
 1076YOPC   D2A15064   1.880  12.106   6.732 -0.1855  0.0582  0.1267
 1076YOPC   C3A15065   1.979  12.160   7.144  0.1353 -0.1207 -0.0059
 1076YOPC   C4A15066   2.194  12.485   7.281  0.0172 -0.3714 -0.1114
 1076YOPC   C1B15067   2.247  11.945   5.964  0.2679  0.0862 -0.2683
 1076YOPC   C2B15068   2.600  11.759   6.151 -0.1708  0.0383  0.3323
 1076YOPC   D3B15069   2.673  11.844   6.645 -0.0878 -0.2208  0.1288
 1076YOPC   C4B15070   2.841  12.099   6.961 -0.0065  0.0993  0.0346
 1077YOPC   NC315071  10.442   7.262   4.808 -0.2990 -0.0560  0.4098
 1077YOPC   PO415072  10.511   7.247   5.263  0.2039 -0.1937 -0.0597
 1077YOPC   GL115073  10.518   7.191   5.699 -0.1409 -0.2530  0.3886
 1077YOPC   GL215074  10.830   7.269   5.785  0.2356 -0.0558 -0.0779
 1077YOPC   C1A15075  10.543   7.126   6.168 -0.0680 -0.1966  0.2493
 1077YOPC   D2A15076  10.402   7.270   6.536  0.1179 -0.1014 -0.0157
 1077YOPC   C3A15077  10.585   7.091   6.951 -0.1945  0.0282 -0.0204
 1077YOPC   C4A15078  10.715   7.272   7.305  0.1281 -0.1984  0.0736
 1077YOPC   C1B15079  11.043   7.072   6.057 -0.0198 -0.0687  0.3264
 1077YOPC   C2B15080  11.380   7.260   6.194  0.2205 -0.0997  0.0442
 1077YOPC   D3B15081  11.424   7.488   6.609  0.0373  0.0461 -0.1599
 1077YOPC   C4B15082  11.592   7.646   6.857 -0.1897  0.1868 -0.1158
 1078YOPC   NC315083  15.204   3.196   5.573 -0.0857  0.1816  0.1738
 1078YOPC   PO415084  15.411   3.552   5.473  0.1180  0.0204  0.2801
 1078YOPC   GL115085  15.272   3.609   5.889 -0.0671  0.0098 -0.2587
 1078YOPC   GL215086  15.303   3.382   6.084  0.1203 -0.1378 -0.0587
 1078YOPC   C1A15087  15.104   3.662   6.417 -0.0227 -0.1040 -0.0632
 1078YOPC   D2A15088  15.065   3.444   6.731  0.1122  0.0878 -0.0951
 1078YOPC   C3A15089  15.246   3.055   6.836  0.0268 -0.1261  0.3810
 1078YOPC   C4A15090  15.435   2.902   7.275  0.2538  0.2082  0.0379
 1078YOPC   C1B15091  15.315   3.002   6.307 -0.0600 -0.1621  0.0599
 1078YOPC   C2B15092  14.910   2.751   6.462 -0.2088  0.3400 -0.2181
 1078YOPC   D3B15093  14.959   2.362   6.759 -0.1880  0.1353 -0.1262
 1078YOPC   C4B15094  15.020   1.993   7.067  0.2607 -0.0853 -0.0019
 1079YOPC   NC315095  18.330  14.630   5.600  0.0974 -0.3891 -0.1484
 1079YOPC   PO415096  17.969  14.231   5.660  0.0146 -0.2776  0.2440
 1079YOPC   GL115097  18.106  14.441   5.983  0.5387 -0.0031 -0.2449
 1079YOPC   GL215098  17.833  14.768   6.132 -0.2072 -0.1255 -0.1653
 1079YOPC   C1A15099  18.051  14.279   6.439 -0.4108 -0.1970  0.1669
 1079YOPC   D2A15100  17.712  14.142   6.693  0.0415  0.2971  0.0297
 1079YOPC   C3A15101  17.680  13.784   6.942  0.0502  0.1613 -0.0544
 1079YOPC   C4A15102  17.370  13.490   7.074 -0.1373 -0.1930  0.0600
 1079YOPC   C1B15103  17.698  14.903   6.484  0.1192  0.0355  0.0828
 1079YOPC   C2B15104  17.484  14.603   6.731 -0.0695 -0.0594  0.0068
 1079YOPC   D3B15105  17.581  14.555   7.192  0.1035  0.1992  0.1411
 1079YOPC   C4B15106  17.504  14.707   7.642 -0.1336  0.0595  0.1194
 1080YOPC   NC315107   1.301   5.802   5.515 -0.2870  0.0410 -0.0660
 1080YOPC   PO415108   0.825   5.765   5.447 -0.4554 -0.0596  0.2748
 1080YOPC   GL115109   0.725   5.897   5.899  0.3700  0.1837  0.1997
 1080YOPC   GL215110   0.977   6.026   5.951  0.1981  0.1210  0.2723
 1080YOPC   C1A15111   0.620   5.775   6.294  0.0658 -0.1719 -0.0776
 1080YOPC   D2A15112   0.463   5.473   6.609 -0.3061  0.2096  0.4090
 1080YOPC   C3A15113   0.294   5.022   6.523  0.3246 -0.2810 -0.1386
 1080YOPC   C4A15114   0.192   4.597   6.483 -0.3159 -0.0949  0.1163
 1080YOPC   C1B15115   1.303   5.997   6.309  0.0234 -0.1155 -0.0069
 1080YOPC   C2B15116   1.420   6.200   6.660 -0.0196  0.2401  0.2000
 1080YOPC   D3B15117   1.678   6.089   6.910 -0.2730  0.1090 -0.1723
 1080YOPC   C4B15118   1.880   5.810   6.872  0.1232  0.0710 -0.3566
 1081YOPC   NC315119   1.817  17.314   5.811 -0.2351 -0.1608  0.1095
 1081YOPC   PO415120   2.300  17.251   5.640  0.1921  0.2797  0.2515
 1081YOPC   GL115121   2.368  17.365   6.000  0.0156  0.2135  0.0388
 1081YOPC   GL215122   2.289  17.121   6.155 -0.3161 -0.4340  0.1907
 1081YOPC   C1A15123   2.556  17.631   6.339 -0.0531  0.2649  0.1308
 1081YOPC   D2A15124   2.604  17.722   6.788  0.0059 -0.0917 -0.2003
 1081YOPC   C3A15125   2.360  17.384   7.104  0.0520  0.1669 -0.0033
 1081YOPC   C4A15126   1.990  17.195   7.019 -0.1841 -0.0271  0.0788
 1081YOPC   C1B15127   2.215  17.193   6.563  0.2928 -0.1560  0.0215
 1081YOPC   C2B15128   1.804  16.919   6.664  0.1326  0.0991 -0.0565
 1081YOPC   D3B15129   1.844  16.636   7.029 -0.0704 -0.1632 -0.0568
 1081YOPC   C4B15130   1.766  16.456   7.444 -0.0844  0.0047  0.1607
 1082YOPC   NC315131  14.429   9.500   5.770  0.1583 -0.1603  0.1331
 1082YOPC   PO415132  14.425   9.100   5.937  0.0596 -0.0227 -0.0956
 1082YOPC   GL115133  14.447   9.390   6.273  0.2461 -0.0595  0.2094
 1082YOPC   GL215134  14.179   9.601   6.391 -0.0783  0.0238  0.2212
 1082YOPC   C1A15135  14.462   9.383   6.771 -0.0200 -0.0056  0.3520
 1082YOPC   D2A15136  14.595   9.665   7.044 -0.0135 -0.0651  0.0805
 1082YOPC   C3A15137  14.815   9.671   7.419 -0.0862 -0.1036  0.0888
 1082YOPC   C4A15138  15.035   9.935   7.688  0.0584 -0.3480  0.2826
 1082YOPC   C1B15139  13.967   9.496   6.705  0.0735  0.1892 -0.1529
 1082YOPC   C2B15140  13.904   9.598   7.124 -0.1877  0.2077 -0.0028
 1082YOPC   D3B15141  14.265   9.602   7.357 -0.0813  0.2800  0.1360
 1082YOPC   C4B15142  14.359   9.393   7.716  0.1230  0.3296 -0.4340
 1083YOPC   NC315143   6.111   3.334   5.509  0.3812  0.1577  0.0712
 1083YOPC   PO415144   6.253   3.701   5.789 -0.0760 -0.0919 -0.0428
 1083YOPC   GL115145   6.258   3.750   6.164  0.0184  0.0590  0.0133
 1083YOPC   GL215146   6.639   3.708   6.149  0.1732 -0.3024 -0.2191
 1083YOPC   C1A15147   6.231   3.799   6.567 -0.1663 -0.0475  0.0043
 1083YOPC   D2A15148   5.957   3.771   6.925  0.1307  0.2921  0.2407
 1083YOPC   C3A15149   6.029   3.530   7.230 -0.0962 -0.2864  0.1656
 1083YOPC   C4A15150   6.405   3.305   7.456  0.0824 -0.1284  0.2328
 1083YOPC   C1B15151   6.624   3.499   6.517 -0.1038 -0.0115  0.3636
 1083YOPC   C2B15152   6.161   3.280   6.557 -0.0680 -0.1270 -0.0576
 1083YOPC   D3B15153   5.891   3.182   6.874 -0.1754  0.0706  0.2173
 1083YOPC   C4B15154   5.493   3.120   7.082  0.0103 -0.0452 -0.3095
 1084YOPC   NC315155   6.452  16.002   5.578 -0.1103 -0.0890 -0.0012
 1084YOPC   PO415156   6.097  16.200   5.365  0.2821  0.0976 -0.2498
 1084YOPC   GL115157   5.982  15.994   5.827 -0.4374  0.1957  0.1179
 1084YOPC   GL215158   5.688  15.659   5.965 -0.0529 -0.1379 -0.0952
 1084YOPC   C1A15159   6.030  15.893   6.228  0.0302 -0.0025  0.0897
 1084YOPC   D2A15160   6.228  15.589   6.490 -0.1459 -0.1368 -0.0271
 1084YOPC   C3A15161   6.383  15.674   6.809 -0.1029 -0.0473  0.2488
 1084YOPC   C4A15162   6.190  15.969   7.131 -0.0220 -0.1357 -0.2036
 1084YOPC   C1B15163   5.618  15.675   6.427  0.0670 -0.1189  0.1925
 1084YOPC   C2B15164   5.437  15.791   6.813  0.1021  0.0406 -0.1591
 1084YOPC   D3B15165   5.582  15.910   7.186 -0.1440  0.2820  0.1793
 1084YOPC   C4B15166   5.833  15.929   7.586 -0.0486  0.1130  0.3096
 1085YOPC   NC315167  10.808  15.945   5.530  0.0995  0.0388 -0.1776
 1085YOPC   PO415168  10.495  15.696   5.519  0.0804 -0.1478 -0.3745
 1085YOPC   GL115169  10.263  15.822   5.858 -0.1400 -0.0465 -0.0227
 1085YOPC   GL215170  10.573  15.745   6.072 -0.5071 -0.1423  0.0295
 1085YOPC   C1A15171  10.086  15.648   6.234 -0.0554  0.3507 -0.1217
 1085YOPC   D2A15172   9.988  15.594   6.623 -0.2494  0.0211 -0.2909
 1085YOPC   C3A15173   9.894  15.814   6.946  0.0800 -0.0782 -0.0220
 1085YOPC   C4A15174   9.556  15.933   7.192  0.0705  0.0919  0.0893
 1085YOPC   C1B15175  10.474  15.644   6.530 -0.0487  0.2465  0.0286
 1085YOPC   C2B15176  10.402  15.261   6.726 -0.2701  0.0062  0.0569
 1085YOPC   D3B15177  10.682  15.017   6.915 -0.0791  0.1163  0.1235
 1085YOPC   C4B15178  10.979  14.846   7.154  0.3834 -0.0255 -0.0264
 1086YOPC   NC315179   1.531   9.369   5.444  0.2649  0.0510  0.0855
 1086YOPC   PO415180   1.780   9.672   5.271  0.1701 -0.1342  0.0856
 1086YOPC   GL115181   1.941   9.639   5.660 -0.0424  0.1897 -0.1896
 1086YOPC   GL215182   2.274   9.696   5.784  0.1166  0.1160  0.1846
 1086YOPC   C1A15183   1.870   9.703   6.065  0.0134 -0.2389  0.2340
 1086YOPC   D2A15184   1.915   9.731   6.525 -0.0660 -0.2920  0.1039
 1086YOPC   C3A15185   1.864   9.375   6.762 -0.1114 -0.0351  0.0981
 1086YOPC   C4A15186   1.736   9.113   7.023  0.2278 -0.1900  0.1855
 1086YOPC   C1B15187   2.369   9.569   6.203  0.1551 -0.0692  0.0690
 1086YOPC   C2B15188   2.384   9.661   6.705 -0.0144  0.0478  0.0194
 1086YOPC   D3B15189   2.067   9.808   7.092  0.2712 -0.0499 -0.1400
 1086YOPC   C4B15190   1.742   9.546   7.246 -0.0901 -0.2804 -0.0253
 1087YOPC   NC315191  10.628   2.466   4.617 -0.0034  0.2996  0.1583
 1087YOPC   PO415192  10.870   2.430   5.028 -0.0862  0.1543 -0.2463
 1087YOPC   GL115193  10.872   2.821   5.335  0.0965  0.0686  0.1861
 1087YOPC   GL215194  10.627   3.102   5.444 -0.5217  0.0064 -0.2691
 1087YOPC   C1A15195  11.004   2.900   5.855  0.0087  0.0850 -0.0078
 1087YOPC   D2A15196  10.990   2.961   6.414  0.2132 -0.2116  0.2188
 1087YOPC   C3A15197  10.839   2.805   6.908  0.2118 -0.0218  0.1892
 1087YOPC   C4A15198  10.695   2.955   7.286 -0.2583 -0.1714  0.2720
 1087YOPC   C1B15199  10.277   2.993   5.793 -0.3056 -0.1324  0.0752
 1087YOPC   C2B15200  10.122   2.959   6.177 -0.1907 -0.2577 -0.0660
 1087YOPC   D3B15201  10.187   2.552   6.366 -0.2456  0.1682  0.1512
 1087YOPC   C4B15202  10.294   2.267   6.748 -0.1653  0.1144 -0.0190
 1088YOPC   NC315203   1.716   3.637   4.945  0.2152 -0.0872  0.0041
 1088YOPC   PO415204   1.668   4.002   5.186 -0.2162 -0.2038 -0.4783
 1088YOPC   GL115205   1.722   4.105   5.657  0.1396 -0.0793  0.0217
 1088YOPC   GL215206   1.963   3.923   5.907 -0.0537 -0.1883 -0.1589
 1088YOPC   C1A15207   1.760   4.380   6.080  0.2302 -0.0461 -0.2752
 1088YOPC   D2A15208   2.148   4.353   6.251 -0.2612  0.2284  0.1621
 1088YOPC   C3A15209   2.509   4.607   6.494  0.1298  0.1470  0.0241
 1088YOPC   C4A15210   2.330   4.991   6.622 -0.0737 -0.0259 -0.3637
 1088YOPC   C1B15211   2.381   3.953   6.014  0.1483 -0.1526 -0.4799
 1088YOPC   C2B15212   2.723   4.214   6.126  0.0602 -0.4664 -0.0318
 1088YOPC   D3B15213   2.881   4.216   6.612 -0.0651  0.0634 -0.1381
 1088YOPC   C4B15214   2.606   4.339   6.901 -0.0595 -0.2217 -0.0283
 1089YOPC   NC315215   2.645   6.995   5.342 -0.2751 -0.0288 -0.1828
 1089YOPC   PO415216   3.086   7.123   5.153  0.4152  0.3385  0.1315
 1089YOPC   GL115217   3.462   7.036   5.396  0.2021 -0.2064  0.0373
 1089YOPC   GL215218   3.430   7.269   5.671  0.0878 -0.3277 -0.2353
 1089YOPC   C1A15219   3.495   6.815   5.829  0.3424  0.0213 -0.0338
 1089YOPC   D2A15220   3.551   6.650   6.346  0.1376 -0.1617  0.3539
 1089YOPC   C3A15221   3.201   6.377   6.422  0.2254  0.0647 -0.1870
 1089YOPC   C4A15222   2.846   6.263   6.456  0.0662  0.1664 -0.1965
 1089YOPC   C1B15223   3.549   7.228   6.136 -0.0422 -0.1003  0.3575
 1089YOPC   C2B15224   3.676   7.141   6.603 -0.2712  0.0464 -0.0023
 1089YOPC   D3B15225   3.382   7.317   6.944  0.0555  0.0585 -0.0324
 1089YOPC   C4B15226   3.204   7.468   7.352 -0.1733 -0.3041  0.0805
 1090YOPC   NC315227   7.358  11.390   5.246 -0.1280  0.0713 -0.1656
 1090YOPC   PO415228   7.406  11.061   5.046  0.2507 -0.1695 -0.0467
 1090YOPC   GL115229   7.319  11.013   5.490  0.0040  0.5039  0.0622
 1090YOPC   GL215230   7.255  11.341   5.715  0.0700 -0.2076  0.0779
 1090YOPC   C1A15231   7.510  10.865   5.927 -0.2203 -0.2435  0.1300
 1090YOPC   D2A15232   7.668  10.823   6.322  0.1656 -0.0824  0.0947
 1090YOPC   C3A15233   7.977  10.939   6.445  0.2534 -0.2676 -0.2575
 1090YOPC   C4A15234   8.100  11.339   6.350 -0.1179 -0.4161 -0.0703
 1090YOPC   C1B15235   7.163  11.530   6.108  0.0162 -0.1822 -0.0179
 1090YOPC   C2B15236   7.311  11.551   6.492 -0.0570 -0.1174  0.0371
 1090YOPC   D3B15237   7.707  11.453   6.631  0.0161  0.0663  0.0758
 1090YOPC   C4B15238   8.144  11.706   6.664 -0.0277 -0.1440  0.0075
 1091YOPC   NC315239  13.081   2.333   5.549  0.3377  0.0208  0.0223
 1091YOPC   PO415240  13.131   2.826   5.531  0.2788  0.0797  0.3290
 1091YOPC   GL115241  13.133   2.716   5.976 -0.0292  0.0092  0.0512
 1091YOPC   GL215242  13.169   2.360   6.072 -0.4321 -0.0435  0.1547
 1091YOPC   C1A15243  13.004   2.687   6.451 -0.0710 -0.2876 -0.0111
 1091YOPC   D2A15244  13.200   2.712   6.830  0.3220 -0.1825  0.1228
 1091YOPC   C3A15245  13.570   2.852   6.861 -0.0357  0.0389  0.2695
 1091YOPC   C4A15246  13.956   2.871   7.006 -0.0177  0.0064  0.0892
 1091YOPC   C1B15247  13.277   2.296   6.559  0.2788  0.0806 -0.0627
 1091YOPC   C2B15248  13.134   2.243   6.962  0.3877 -0.0033 -0.1768
 1091YOPC   D3B15249  12.796   2.377   7.191 -0.1270  0.1443 -0.2476
 1091YOPC   C4B15250  12.450   2.438   7.267 -0.1764 -0.0671 -0.2287
 1092YOPC   NC315251  18.244   4.705   5.848 -0.0405  0.0869  0.2243
 1092YOPC   PO415252  18.623   4.474   5.644  0.5581 -0.2389 -0.2007
 1092YOPC   GL115253  18.419   4.271   6.074 -0.1700 -0.0623  0.1929
 1092YOPC   GL215254  18.169   3.930   6.058 -0.0548  0.0785 -0.3419
 1092YOPC   C1A15255  18.318   4.186   6.471 -0.2786 -0.0495  0.0793
 1092YOPC   D2A15256  18.478   4.283   6.819 -0.1516  0.2056  0.1815
 1092YOPC   C3A15257  18.661   4.297   7.240  0.1192  0.0525  0.1149
 1092YOPC   C4A15258  18.774   4.362   7.651 -0.2238 -0.1148  0.0801
 1092YOPC   C1B15259  17.876   3.996   6.484 -0.0712  0.0226  0.0304
 1092YOPC   C2B15260  18.115   3.792   6.906 -0.0485  0.3981  0.1148
 1092YOPC   D3B15261  17.989   3.372   7.155  0.1110 -0.4394 -0.2302
 1092YOPC   C4B15262  17.908   3.013   6.951 -0.0622  0.0248 -0.0386
 1093YOPC   NC315263  17.935   6.304   5.574  0.2270  0.3008  0.2288
 1093YOPC   PO415264  17.972   5.869   5.422  0.1905 -0.1064  0.2614
 1093YOPC   GL115265  18.114   5.896   5.833 -0.0235 -0.3180  0.0452
 1093YOPC   GL215266  18.426   5.904   5.844  0.1313 -0.0641 -0.1231
 1093YOPC   C1A15267  18.024   6.009   6.276  0.0114  0.3077  0.0780
 1093YOPC   D2A15268  18.047   6.190   6.679 -0.1790  0.1535 -0.3036
 1093YOPC   C3A15269  18.305   6.078   7.027  0.1834  0.2066  0.0279
 1093YOPC   C4A15270  18.499   6.116   7.493  0.0331  0.4674  0.1231
 1093YOPC   C1B15271  18.499   5.808   6.217 -0.2728 -0.4072 -0.1128
 1093YOPC   C2B15272  18.579   5.354   6.547 -0.2750 -0.2926 -0.0207
 1093YOPC   D3B15273  18.995   5.385   6.763  0.3258  0.1637 -0.3519
 1093YOPC   C4B15274  19.231   5.289   7.019  0.0429 -0.0465  0.0927
 1094YOPC   NC315275  14.813  16.578   4.894  0.0555  0.2510  0.1269
 1094YOPC   PO415276  14.836  16.769   5.256 -0.4606  0.3034 -0.1644
 1094YOPC   GL115277  14.521  16.688   5.571  0.0926  0.0621 -0.2135
 1094YOPC   GL215278  14.470  16.369   5.696  0.0225 -0.2909 -0.0465
 1094YOPC   C1A15279  14.248  16.777   5.915 -0.4237  0.0685 -0.2366
 1094YOPC   D2A15280  14.065  16.909   6.272  0.0955  0.2649 -0.0935
 1094YOPC   C3A15281  14.100  17.141   6.637  0.0351  0.0277  0.0757
 1094YOPC   C4A15282  14.163  17.193   7.060 -0.1895 -0.1608 -0.2057
 1094YOPC   C1B15283  14.714  16.413   6.164 -0.1391  0.0577  0.2625
 1094YOPC   C2B15284  14.749  16.766   6.424  0.0409  0.2328  0.0834
 1094YOPC   D3B15285  14.431  16.793   6.825  0.0314  0.1176  0.2378
 1094YOPC   C4B15286  14.037  16.687   7.133  0.1308  0.0170  0.0496
 1095YOPC   NC315287  12.217   3.693   5.262 -0.3993  0.0464  0.2714
 1095YOPC   PO415288  12.556   3.518   5.425 -0.0806  0.1103 -0.2879
 1095YOPC   GL115289  12.692   3.257   5.842 -0.0137 -0.0277 -0.2293
 1095YOPC   GL215290  12.678   2.903   5.810 -0.0827 -0.1288  0.1236
 1095YOPC   C1A15291  12.670   3.153   6.284 -0.1408  0.0465  0.1996
 1095YOPC   D2A15292  12.776   3.109   6.657 -0.3609 -0.0178  0.1684
 1095YOPC   C3A15293  12.711   3.363   6.971 -0.3455 -0.0943 -0.1885
 1095YOPC   C4A15294  12.723   3.222   7.417  0.0096  0.1922 -0.0200
 1095YOPC   C1B15295  12.302   3.077   5.953  0.2279  0.1065 -0.4786
 1095YOPC   C2B15296  12.123   3.393   6.222  0.2611 -0.0700 -0.3663
 1095YOPC   D3B15297  12.267   3.357   6.631  0.1522  0.0365 -0.0639
 1095YOPC   C4B15298  12.271   3.295   7.208  0.0491  0.1075  0.2635
 1096YOPC   NC315299   6.339  14.596   5.563  0.2031 -0.0021 -0.2062
 1096YOPC   PO415300   6.389  14.194   5.776 -0.0985 -0.0728  0.2173
 1096YOPC   GL115301   6.324  14.135   6.219 -0.3767 -0.6552 -0.1830
 1096YOPC   GL215302   6.482  13.844   6.288 -0.0238 -0.0052  0.0552
 1096YOPC   C1A15303   6.400  14.437   6.499 -0.1880  0.1016 -0.2865
 1096YOPC   D2A15304   6.592  14.684   6.801  0.0915  0.0166 -0.0537
 1096YOPC   C3A15305   6.420  14.753   7.241 -0.0514 -0.2215  0.1093
 1096YOPC   C4A15306   6.184  14.930   7.491 -0.0902  0.1658 -0.1130
 1096YOPC   C1B15307   6.454  14.013   6.724  0.0964 -0.0573  0.2429
 1096YOPC   C2B15308   6.509  14.265   7.026 -0.0532 -0.0043 -0.0865
 1096YOPC   D3B15309   6.831  14.110   7.302  0.0802 -0.2004  0.2851
 1096YOPC   C4B15310   7.154  14.135   7.605 -0.0672 -0.1326 -0.1106
 1097YOPC   NC315311   0.939  10.401   4.955 -0.1968  0.0807  0.1140
 1097YOPC   PO415312   1.186  10.288   5.356  0.0619 -0.1098 -0.1896
 1097YOPC   GL115313   1.286  10.251   5.800 -0.1903  0.0540 -0.1234
 1097YOPC   GL215314   1.186  10.526   5.802  0.2586 -0.0004  0.0123
 1097YOPC   C1A15315   1.258  10.004   6.201 -0.1667 -0.1015 -0.1501
 1097YOPC   D2A15316   1.064   9.730   6.530  0.0781 -0.0434  0.5435
 1097YOPC   C3A15317   1.024   9.936   6.937 -0.2182 -0.2534 -0.3020
 1097YOPC   C4A15318   1.177   9.838   7.318 -0.2520 -0.0234  0.2216
 1097YOPC   C1B15319   1.295  10.469   6.261 -0.2958  0.1553 -0.3063
 1097YOPC   C2B15320   1.666  10.310   6.429 -0.1195 -0.1278 -0.0456
 1097YOPC   D3B15321   1.744  10.507   6.819  0.0935 -0.4178 -0.1290
 1097YOPC   C4B15322   1.834  10.574   7.226  0.0961 -0.2003 -0.2245
 1098YOPC   NC315323   1.095  13.458   5.922 -0.0210  0.2937 -0.0405
 1098YOPC   PO415324   0.640  13.397   5.908  0.1643 -0.1487  0.3044
 1098YOPC   GL115325   0.637  13.425   6.168 -0.1183 -0.3624  0.2799
 1098YOPC   GL215326   0.832  13.190   6.337  0.0589 -0.2882  0.0379
 1098YOPC   C1A15327   0.574  13.530   6.638 -0.2257  0.1022  0.3926
 1098YOPC   D2A15328   0.662  13.800   6.952  0.1493  0.1195 -0.0125
 1098YOPC   C3A15329   0.456  13.850   7.280  0.0449  0.0669 -0.0030
 1098YOPC   C4A15330   0.336  13.918   7.716  0.2690 -0.1607  0.0184
 1098YOPC   C1B15331   0.800  13.017   6.687  0.0328 -0.1773  0.2096
 1098YOPC   C2B15332   0.857  12.940   7.035 -0.1237 -0.0186 -0.0481
 1098YOPC   D3B15333   0.433  12.914   7.253 -0.0512  0.0430 -0.0262
 1098YOPC   C4B15334   0.108  13.015   7.321 -0.2145  0.1992 -0.0499
 1099YOPC   NC315335   4.758   3.237   4.882  0.0241 -0.0740 -0.1699
 1099YOPC   PO415336   5.213   3.244   4.804 -0.0303 -0.0610  0.1681
 1099YOPC   GL115337   5.301   3.121   5.207  0.2737  0.1922  0.0424
 1099YOPC   GL215338   5.426   3.346   5.386 -0.1183  0.2968 -0.1651
 1099YOPC   C1A15339   5.091   2.850   5.665  0.1250 -0.2152  0.1580
 1099YOPC   D2A15340   4.922   2.481   5.828  0.1175 -0.2621  0.0359
 1099YOPC   C3A15341   4.713   2.587   6.182  0.2324 -0.1297  0.0405
 1099YOPC   C4A15342   4.541   2.962   6.236 -0.3404  0.2715  0.2921
 1099YOPC   C1B15343   5.537   3.155   5.821  0.2514 -0.1491  0.2440
 1099YOPC   C2B15344   5.446   3.299   6.282  0.0254  0.0284  0.3121
 1099YOPC   D3B15345   5.054   3.102   6.612  0.0983  0.1449 -0.0183
 1099YOPC   C4B15346   4.856   2.697   6.673  0.0099  0.1298 -0.2922
 1100YOPC   NC315347  16.186   2.838   5.320 -0.0887  0.1281 -0.2305
 1100YOPC   PO415348  16.201   2.697   5.817 -0.2751 -0.1134  0.0590
 1100YOPC   GL115349  15.895   2.696   6.057 -0.1294 -0.1153 -0.0778
 1100YOPC   GL215350  15.539   2.587   6.029  0.3843  0.2648  0.2697
 1100YOPC   C1A15351  15.780   2.845   6.454 -0.1657  0.4379  0.3353
 1100YOPC   D2A15352  16.074   2.574   6.809  0.0352 -0.0470 -0.1089
 1100YOPC   C3A15353  15.972   2.793   7.238  0.2690  0.0110  0.0473
 1100YOPC   C4A15354  15.739   2.574   7.573  0.2336 -0.0592 -0.0690
 1100YOPC   C1B15355  15.383   2.466   6.446 -0.3694 -0.1586  0.1275
 1100YOPC   C2B15356  15.524   2.646   6.852 -0.2294  0.2259  0.0789
 1100YOPC   D3B15357  15.417   2.344   7.177 -0.1873 -0.1035 -0.2077
 1100YOPC   C4B15358  15.459   1.936   7.279 -0.1383  0.2960 -0.1599
 1101YOPC   NC315359   5.553  18.863   5.125 -0.1689 -0.0686  0.1152
 1101YOPC   PO415360   5.732  19.238   5.395 -0.2235  0.2518 -0.1089
 1101YOPC   GL115361   5.885  19.214   5.733 -0.1227  0.0133  0.0224
 1101YOPC   GL215362   5.846  19.053   5.914 -0.1197  0.1639  0.1989
 1101YOPC   C1A15363   6.252  19.243   6.126  0.3885 -0.2598  0.1102
 1101YOPC   D2A15364   6.221  19.036   6.461 -0.0333  0.0469 -0.0231
 1101YOPC   C3A15365   6.429  19.127   6.781 -0.1738 -0.3361 -0.1813
 1101YOPC   C4A15366   6.785  19.111   7.149 -0.1797  0.2082  0.1146
 1101YOPC   C1B15367   5.784  18.838   6.265 -0.1150 -0.2173 -0.0260
 1101YOPC   C2B15368   5.762  18.724   6.677 -0.1534 -0.0400 -0.2218
 1101YOPC   D3B15369   5.829  18.375   6.983 -0.1055  0.1333 -0.1831
 1101YOPC   C4B15370   5.822  18.246   7.441  0.3060 -0.2382  0.0245
 1102YOPC   NC315371  13.095  16.447   4.926 -0.1122  0.0624  0.3011
 1102YOPC   PO415372  12.985  16.647   5.284  0.1742 -0.2045  0.1595
 1102YOPC   GL115373  13.045  16.539   5.668 -0.0578  0.3734 -0.0411
 1102YOPC   GL215374  13.089  16.205   5.603  0.1390 -0.0507 -0.3318
 1102YOPC   C1A15375  12.725  16.241   6.064  0.2671  0.1504 -0.0349
 1102YOPC   D2A15376  12.369  16.323   6.326  0.1452  0.0545 -0.2221
 1102YOPC   C3A15377  12.207  16.671   6.570 -0.0572  0.1545 -0.1325
 1102YOPC   C4A15378  12.291  16.555   7.129  0.2622  0.0887  0.1807
 1102YOPC   C1B15379  13.231  16.337   6.108 -0.1130  0.0720 -0.0638
 1102YOPC   C2B15380  13.375  16.332   6.494 -0.2436  0.1390  0.2609
 1102YOPC   D3B15381  13.234  16.676   6.716  0.1288  0.0161  0.1543
 1102YOPC   C4B15382  13.153  16.741   7.216  0.2247 -0.3964 -0.2471
 1103YOPC   NC315383   8.481   5.370   5.396 -0.1753  0.0552  0.0201
 1103YOPC   PO415384   8.871   5.293   5.479 -0.0749  0.0100  0.2217
 1103YOPC   GL115385   8.767   5.436   5.824  0.0694 -0.3212  0.1020
 1103YOPC   GL215386   8.752   5.770   5.768  0.1336  0.2141  0.1039
 1103YOPC   C1A15387   8.638   5.170   6.183  0.0495 -0.2674  0.0878
 1103YOPC   D2A15388   8.457   5.178   6.564 -0.1944 -0.2007  0.0609
 1103YOPC   C3A15389   8.716   5.108   6.894 -0.1968 -0.3361 -0.0448
 1103YOPC   C4A15390   8.763   5.213   7.298 -0.0201 -0.1258  0.1880
 1103YOPC   C1B15391   9.182   5.864   5.887  0.0585  0.3517 -0.2254
 1103YOPC   C2B15392   9.525   6.133   6.071 -0.0316  0.1359  0.1968
 1103YOPC   D3B15393   9.270   6.397   6.232 -0.1060 -0.0369 -0.1224
 1103YOPC   C4B15394   8.968   6.719   6.412 -0.1136 -0.3138 -0.1466
 1104YOPC   NC315395  17.699   4.075   5.860 -0.1729  0.0775  0.0978
 1104YOPC   PO415396  17.877   4.403   5.961  0.2696 -0.2151  0.0418
 1104YOPC   GL115397  18.127   4.663   6.336 -0.1436  0.2076 -0.2576
 1104YOPC   GL215398  18.363   4.947   6.268 -0.2146  0.5307  0.3936
 1104YOPC   C1A15399  18.163   4.751   6.723 -0.0373  0.0886  0.0699
 1104YOPC   D2A15400  18.359   4.744   7.191 -0.2453  0.2004 -0.0219
 1104YOPC   C3A15401  18.111   4.693   7.598  0.0847 -0.1295  0.1041
 1104YOPC   C4A15402  17.966   4.949   7.993  0.1721  0.4461 -0.0538
 1104YOPC   C1B15403  18.623   4.717   6.537 -0.0288 -0.2347 -0.2611
 1104YOPC   C2B15404  18.912   4.797   6.918 -0.0593 -0.0448 -0.0196
 1104YOPC   D3B15405  18.911   4.748   7.328  0.2083  0.0543 -0.1560
 1104YOPC   C4B15406  19.214   4.752   7.655 -0.2386 -0.0480 -0.0030
 1105YOPC   NC315407  13.561  10.796   4.782  0.0895 -0.2731 -0.3015
 1105YOPC   PO415408  13.203  10.698   5.015 -0.1112 -0.1603 -0.0986
 1105YOPC   GL115409  13.056  10.781   5.537  0.3142  0.1576  0.2752
 1105YOPC   GL215410  13.197  10.993   5.664  0.0235  0.2336 -0.2042
 1105YOPC   C1A15411  13.014  10.613   5.940  0.0286  0.1336  0.1969
 1105YOPC   D2A15412  13.135  10.547   6.305  0.3792 -0.1484  0.0704
 1105YOPC   C3A15413  12.702  10.579   6.645 -0.0593  0.0996  0.1651
 1105YOPC   C4A15414  12.487  10.498   7.028  0.1595  0.2010  0.2316
 1105YOPC   C1B15415  13.350  10.919   6.104 -0.1075 -0.1179  0.0601
 1105YOPC   C2B15416  13.267  10.955   6.602  0.0288  0.2043 -0.0495
 1105YOPC   D3B15417  13.203  11.295   6.978  0.3298 -0.1178 -0.2384
 1105YOPC   C4B15418  13.062  11.358   7.379  0.0556 -0.2112 -0.0014
 1106YOPC   NC315419   7.339  18.801   5.246 -0.0528  0.0821 -0.6079
 1106YOPC   PO415420   7.810  18.571   5.275  0.1177  0.0163  0.0435
 1106YOPC   GL115421   7.587  18.619   5.674 -0.1397  0.0704 -0.3140
 1106YOPC   GL215422   7.673  18.865   5.819 -0.2991 -0.0097 -0.0296
 1106YOPC   C1A15423   7.347  18.509   6.089  0.3133  0.2250  0.0920
 1106YOPC   D2A15424   7.153  18.438   6.509 -0.1102  0.3103  0.1929
 1106YOPC   C3A15425   7.293  18.409   6.906 -0.1252  0.2602 -0.2057
 1106YOPC   C4A15426   7.445  18.253   7.319 -0.0557  0.1636  0.1430
 1106YOPC   C1B15427   7.453  18.945   6.236 -0.2663  0.1245 -0.1908
 1106YOPC   C2B15428   7.245  18.879   6.558 -0.3963 -0.0830 -0.2647
 1106YOPC   D3B15429   7.405  18.930   7.043 -0.0406  0.2168  0.0544
 1106YOPC   C4B15430   7.512  18.745   7.464 -0.1777  0.2320  0.1867
 1107YOPC   NC315431  17.703   1.334   5.104 -0.0120 -0.3492 -0.2565
 1107YOPC   PO415432  17.961   1.402   5.434 -0.1870 -0.2088  0.4672
 1107YOPC   GL115433  17.945   1.421   5.906 -0.2408  0.1606 -0.0777
 1107YOPC   GL215434  18.101   1.695   6.051 -0.0934 -0.2333  0.0774
 1107YOPC   C1A15435  17.803   1.478   6.368  0.0878  0.0038 -0.1130
 1107YOPC   D2A15436  17.892   1.278   6.831  0.1619 -0.1008 -0.1284
 1107YOPC   C3A15437  17.701   1.462   7.091  0.0395  0.1136  0.0236
 1107YOPC   C4A15438  17.586   1.775   7.171  0.0012  0.0147  0.1034
 1107YOPC   C1B15439  18.258   1.521   6.504 -0.3846  0.1061  0.0986
 1107YOPC   C2B15440  18.362   1.532   6.974  0.0899  0.0288  0.1638
 1107YOPC   D3B15441  18.196   1.382   7.325 -0.0291  0.0731 -0.1940
 1107YOPC   C4B15442  18.163   1.018   7.581  0.1825 -0.2926  0.0578
 1108YOPC   NC315443  11.436  17.472   5.312  0.0882 -0.0299 -0.0744
 1108YOPC   PO415444  11.622  17.835   5.432 -0.2821  0.1012 -0.0890
 1108YOPC   GL115445  11.519  17.648   5.773  0.0080  0.0157 -0.1558
 1108YOPC   GL215446  11.397  17.232   5.800 -0.2103  0.1099 -0.0409
 1108YOPC   C1A15447  11.800  17.711   6.131  0.1767  0.1428 -0.2023
 1108YOPC   D2A15448  11.863  18.169   6.300 -0.1325  0.1439 -0.2968
 1108YOPC   C3A15449  12.054  18.167   6.727 -0.2605 -0.1117  0.0900
 1108YOPC   C4A15450  12.229  18.520   6.846  0.1576 -0.0713  0.1502
 1108YOPC   C1B15451  11.469  17.374   6.302 -0.1205 -0.0408  0.0361
 1108YOPC   C2B15452  11.674  17.728   6.628  0.1268 -0.2374 -0.2213
 1108YOPC   D3B15453  11.851  17.329   6.872 -0.0467 -0.1621  0.2121
 1108YOPC   C4B15454  11.923  16.876   7.047  0.0652 -0.1018 -0.0295
 1109YOPC   NC315455   1.108  11.314   5.372 -0.1085  0.0197 -0.1075
 1109YOPC   PO415456   1.524  11.120   5.266 -0.0791 -0.2038 -0.1456
 1109YOPC   GL115457   1.403  11.182   5.715  0.0160  0.0172 -0.1884
 1109YOPC   GL215458   1.660  11.401   5.804  0.1683  0.3913 -0.1445
 1109YOPC   C1A15459   1.249  10.969   6.004 -0.5245 -0.0306 -0.1615
 1109YOPC   D2A15460   0.942  10.869   6.191  0.3269 -0.0543  0.1032
 1109YOPC   C3A15461   0.766  10.455   6.061 -0.0277  0.0088 -0.0820
 1109YOPC   C4A15462   0.772  10.137   6.305 -0.1937 -0.0671 -0.1271
 1109YOPC   C1B15463   1.569  11.322   6.173 -0.1529 -0.3577 -0.0725
 1109YOPC   C2B15464   1.268  11.264   6.551 -0.0002  0.1582 -0.0950
 1109YOPC   D3B15465   1.139  10.824   6.652 -0.1298 -0.0405 -0.1147
 1109YOPC   C4B15466   1.251  10.332   6.775  0.4257  0.0705 -0.2437
 1110YOPC   NC315467   7.010   8.598   4.747 -0.1505 -0.0888 -0.0816
 1110YOPC   PO415468   7.291   8.383   5.037  0.0106 -0.2161 -0.1750
 1110YOPC   GL115469   7.495   8.332   5.428  0.2114 -0.0992 -0.4238
 1110YOPC   GL215470   7.723   8.564   5.460  0.1748  0.0047  0.0551
 1110YOPC   C1A15471   7.539   8.063   5.825  0.1467  0.1409 -0.0380
 1110YOPC   D2A15472   7.270   7.856   6.125 -0.0960  0.2084 -0.1658
 1110YOPC   C3A15473   7.109   7.809   6.571 -0.1176 -0.1425  0.0104
 1110YOPC   C4A15474   6.788   7.696   6.717  0.1110  0.2719  0.0422
 1110YOPC   C1B15475   7.764   8.488   5.894  0.1511 -0.0188 -0.2414
 1110YOPC   C2B15476   8.011   8.623   6.345  0.3510  0.0056 -0.1924
 1110YOPC   D3B15477   8.302   8.359   6.268  0.2736  0.5106 -0.0412
 1110YOPC   C4B15478   8.426   7.899   6.250  0.2562 -0.3846  0.1383
 1111YOPC   NC315479   6.807   7.196   4.758  0.2038 -0.1411  0.4497
 1111YOPC   PO415480   6.656   7.065   5.119 -0.1426 -0.1595 -0.0630
 1111YOPC   GL115481   6.453   7.149   5.501  0.2242 -0.1751 -0.0281
 1111YOPC   GL215482   6.106   7.174   5.484  0.0708 -0.1462  0.1889
 1111YOPC   C1A15483   6.371   7.057   5.900 -0.0383 -0.0289  0.3719
 1111YOPC   D2A15484   6.222   7.235   6.249  0.0095  0.0748  0.4183
 1111YOPC   C3A15485   5.907   7.109   6.515  0.1337  0.0750 -0.3715
 1111YOPC   C4A15486   5.756   7.160   7.010  0.1204 -0.0244  0.2195
 1111YOPC   C1B15487   5.916   7.084   5.797 -0.0891  0.3186 -0.0253
 1111YOPC   C2B15488   5.557   6.860   5.864 -0.3131 -0.3490  0.0055
 1111YOPC   D3B15489   5.520   6.857   6.336  0.0244 -0.0336  0.1853
 1111YOPC   C4B15490   5.501   6.923   6.722  0.1347  0.1653 -0.3965
 1112YOPC   NC315491   3.181  11.139   4.993  0.1161  0.2494  0.1559
 1112YOPC   PO415492   3.510  11.385   5.128  0.0583  0.1940 -0.1346
 1112YOPC   GL115493   3.503  11.100   5.502 -0.0594  0.5901 -0.0620
 1112YOPC   GL215494   3.655  10.916   5.685 -0.1207  0.0482 -0.2713
 1112YOPC   C1A15495   3.453  11.328   5.922 -0.0345  0.2019 -0.3580
 1112YOPC   D2A15496   3.228  11.179   6.280  0.3703  0.0557 -0.1182
 1112YOPC   C3A15497   3.218  11.234   6.768  0.0789 -0.0405 -0.0251
 1112YOPC   C4A15498   3.264  10.956   7.275 -0.3735 -0.1241  0.0164
 1112YOPC   C1B15499   3.440  10.767   5.975  0.0091 -0.1161 -0.1245
 1112YOPC   C2B15500   3.296  10.666   6.320 -0.3214  0.1136 -0.2629
 1112YOPC   D3B15501   3.049  10.783   6.614 -0.2058 -0.2516 -0.2165
 1112YOPC   C4B15502   2.779  10.970   6.944  0.0215 -0.0990 -0.0439
 1113YOPC   NC315503   2.263  13.821   6.017  0.1735  0.1355 -0.0167
 1113YOPC   PO415504   1.988  14.176   6.155  0.0028 -0.0713 -0.0456
 1113YOPC   GL115505   2.143  14.182   6.540 -0.1962 -0.1687  0.0198
 1113YOPC   GL215506   2.236  13.910   6.564 -0.5817  0.1170 -0.2444
 1113YOPC   C1A15507   2.081  14.395   6.913  0.0286  0.0977 -0.0821
 1113YOPC   D2A15508   2.140  14.219   7.293  0.0838 -0.1569 -0.3001
 1113YOPC   C3A15509   1.987  14.310   7.669  0.1991 -0.2892  0.2663
 1113YOPC   C4A15510   1.958  14.250   8.053  0.0250 -0.2936  0.1322
 1113YOPC   C1B15511   2.115  13.695   6.863  0.1754 -0.1344  0.3420
 1113YOPC   C2B15512   2.248  13.526   7.237  0.0579 -0.0403  0.1962
 1113YOPC   D3B15513   2.190  13.321   7.543 -0.0816  0.1563  0.1240
 1113YOPC   C4B15514   1.972  13.229   7.953 -0.0736 -0.0560 -0.2910
 1114YOPC   NC315515   9.004   2.206   5.335  0.1803 -0.1843 -0.0650
 1114YOPC   PO415516   9.201   1.810   5.263 -0.0554 -0.1224 -0.1960
 1114YOPC   GL115517   9.142   1.564   5.627 -0.2696 -0.0280  0.2356
 1114YOPC   GL215518   9.378   1.535   5.863  0.1570  0.1469 -0.1499
 1114YOPC   C1A15519   8.790   1.630   5.942 -0.1527  0.0178 -0.0826
 1114YOPC   D2A15520   8.848   1.563   6.400 -0.0867 -0.2376  0.0537
 1114YOPC   C3A15521   9.141   1.385   6.615 -0.1650 -0.4264  0.1899
 1114YOPC   C4A15522   9.385   1.072   6.875 -0.1236  0.1718  0.1056
 1114YOPC   C1B15523   9.765   1.320   6.078 -0.1174 -0.0253 -0.0421
 1114YOPC   C2B15524  10.232   1.247   6.063 -0.0707 -0.0557  0.1904
 1114YOPC   D3B15525  10.126   0.860   6.106  0.0683  0.0477 -0.0025
 1114YOPC   C4B15526   9.814   0.522   6.152 -0.1033  0.2856 -0.0639
 1115YOPC   NC315527  14.403   2.526   5.350  0.0313  0.0703 -0.1151
 1115YOPC   PO415528  14.658   2.848   5.527 -0.0389  0.2326  0.0003
 1115YOPC   GL115529  14.634   2.905   5.944  0.1916 -0.4040  0.3132
 1115YOPC   GL215530  14.928   2.969   6.048  0.2143 -0.0696  0.0547
 1115YOPC   C1A15531  14.337   2.972   6.326 -0.2448  0.0512 -0.3600
 1115YOPC   D2A15532  14.343   2.652   6.701 -0.0636 -0.3821  0.4003
 1115YOPC   C3A15533  14.632   2.695   7.059 -0.3242 -0.0555 -0.1256
 1115YOPC   C4A15534  14.965   3.010   7.261 -0.2800 -0.2131 -0.0405
 1115YOPC   C1B15535  14.864   3.211   6.332  0.2231  0.0266  0.0492
 1115YOPC   C2B15536  14.609   3.544   6.477  0.2424  0.2475  0.0012
 1115YOPC   D3B15537  14.663   3.601   6.903 -0.0689 -0.0335 -0.0313
 1115YOPC   C4B15538  14.882   3.510   7.233  0.3172 -0.0974 -0.0715
 1116YOPC   NC315539   2.297  13.389   5.791 -0.0561  0.0376  0.2602
 1116YOPC   PO415540   2.682  13.449   5.902 -0.2750 -0.0977  0.0547
 1116YOPC   GL115541   2.442  13.291   6.244 -0.3396 -0.1911 -0.1912
 1116YOPC   GL215542   2.338  13.457   6.353 -0.1247  0.0836 -0.1216
 1116YOPC   C1A15543   2.462  12.941   6.446  0.0639 -0.0289 -0.0954
 1116YOPC   D2A15544   2.222  12.625   6.555 -0.2152  0.1467  0.0754
 1116YOPC   C3A15545   2.335  12.302   6.863 -0.0679  0.1726  0.0974
 1116YOPC   C4A15546   2.388  11.867   7.081  0.0578  0.0751 -0.1141
 1116YOPC   C1B15547   2.470  13.321   6.760 -0.1360  0.0758 -0.3308
 1116YOPC   C2B15548   2.535  13.011   7.078 -0.1961  0.1909  0.1618
 1116YOPC   D3B15549   2.471  12.917   7.519 -0.3424  0.0499 -0.2459
 1116YOPC   C4B15550   2.454  13.136   7.936 -0.1442 -0.1831 -0.0132
 1117YOPC   NC315551  13.388  16.928   4.515  0.1141  0.3006  0.0634
 1117YOPC   PO415552  13.513  16.795   4.884  0.0984 -0.1776  0.2431
 1117YOPC   GL115553  13.542  16.838   5.398  0.1078 -0.0430  0.1266
 1117YOPC   GL215554  13.629  17.152   5.535 -0.2670 -0.1105  0.1059
 1117YOPC   C1A15555  13.445  16.767   5.819 -0.0588  0.0751 -0.1745
 1117YOPC   D2A15556  13.396  16.821   6.229 -0.0252  0.1601  0.0279
 1117YOPC   C3A15557  13.210  17.163   6.491 -0.1201  0.0509  0.0547
 1117YOPC   C4A15558  12.988  17.551   6.487 -0.3880  0.0287 -0.0048
 1117YOPC   C1B15559  13.838  17.101   5.848 -0.3290  0.3199  0.2934
 1117YOPC   C2B15560  14.121  17.307   6.060 -0.0855  0.1756  0.1300
 1117YOPC   D3B15561  14.491  17.158   6.143 -0.0520 -0.0722  0.4921
 1117YOPC   C4B15562  14.780  16.894   5.966  0.0310 -0.1990 -0.0493
 1118YOPC   NC315563  15.072   4.525   5.495  0.2534 -0.2111 -0.1824
 1118YOPC   PO415564  15.357   4.836   5.831 -0.1531 -0.0257  0.0989
 1118YOPC   GL115565  15.525   5.043   6.206 -0.0949 -0.2268 -0.3756
 1118YOPC   GL215566  15.246   5.177   6.354 -0.1391  0.1514 -0.1399
 1118YOPC   C1A15567  15.778   5.186   6.471 -0.2339 -0.2997  0.0198
 1118YOPC   D2A15568  15.873   5.254   6.917 -0.0266  0.0517 -0.0443
 1118YOPC   C3A15569  16.007   5.436   7.328 -0.0207  0.1045  0.0022
 1118YOPC   C4A15570  15.918   5.599   7.741 -0.0044 -0.0739 -0.0302
 1118YOPC   C1B15571  15.425   5.248   6.784 -0.0370 -0.0272  0.0076
 1118YOPC   C2B15572  15.547   5.431   7.233 -0.1022  0.0025  0.0009
 1118YOPC   D3B15573  15.573   5.872   7.223 -0.2405 -0.3074 -0.3359
 1118YOPC   C4B15574  15.428   6.178   7.406 -0.1262  0.1069 -0.2278
 1119YOPC   NC315575   0.966  17.260   5.748  0.2157 -0.0200 -0.0229
 1119YOPC   PO415576   1.309  17.142   5.813  0.3317 -0.1059  0.1572
 1119YOPC   GL115577   1.361  17.418   6.099  0.0076  0.1161 -0.1034
 1119YOPC   GL215578   1.445  17.318   6.325  0.3097 -0.1034  0.2494
 1119YOPC   C1A15579   1.403  17.765   6.391  0.0319 -0.3722 -0.0776
 1119YOPC   D2A15580   1.511  18.123   6.588 -0.0935 -0.2196  0.0769
 1119YOPC   C3A15581   1.384  18.242   7.017 -0.0036 -0.1488 -0.1187
 1119YOPC   C4A15582   1.270  18.511   7.398  0.1288 -0.0924 -0.0337
 1119YOPC   C1B15583   1.653  17.385   6.635 -0.0338  0.0238  0.3778
 1119YOPC   C2B15584   1.566  17.513   6.946 -0.0380 -0.1858 -0.2633
 1119YOPC   D3B15585   1.347  17.739   7.263 -0.3148 -0.0027  0.0934
 1119YOPC   C4B15586   1.419  17.822   7.763  0.0060  0.1222 -0.1125
 1120YOPC   NC315587   4.003   8.090   5.479 -0.0147 -0.0004 -0.0514
 1120YOPC   PO415588   4.291   8.324   5.469  0.2759  0.3485 -0.1184
 1120YOPC   GL115589   4.367   8.470   5.817  0.3818  0.3094 -0.1759
 1120YOPC   GL215590   4.149   8.225   6.037  0.0399  0.3332  0.2324
 1120YOPC   C1A15591   4.596   8.496   6.256 -0.1717 -0.2656 -0.1717
 1120YOPC   D2A15592   4.594   8.405   6.673  0.2154 -0.0506 -0.0383
 1120YOPC   C3A15593   4.670   8.036   6.886  0.0094  0.2852  0.3970
 1120YOPC   C4A15594   4.861   7.968   7.241  0.2002 -0.1518  0.1144
 1120YOPC   C1B15595   3.903   8.269   6.321  0.1972 -0.0334  0.0950
 1120YOPC   C2B15596   3.794   8.235   6.748  0.1112  0.1113 -0.0957
 1120YOPC   D3B15597   3.810   7.801   6.940 -0.0258  0.0803  0.0112
 1120YOPC   C4B15598   3.709   7.571   7.204 -0.1294  0.2105 -0.2262
 1121YOPC   NC315599   0.542  17.824   5.215  0.1003 -0.0349 -0.4328
 1121YOPC   PO415600   0.741  17.912   5.610  0.1961  0.1339 -0.0369
 1121YOPC   GL115601   0.521  18.048   5.946  0.4071 -0.1832 -0.0213
 1121YOPC   GL215602   0.412  17.868   6.216  0.1476 -0.2264  0.1875
 1121YOPC   C1A15603   0.468  18.372   6.321 -0.0817 -0.1969  0.0588
 1121YOPC   D2A15604   0.572  18.390   6.729 -0.3489 -0.1144 -0.3216
 1121YOPC   C3A15605   0.488  18.672   7.069 -0.0168 -0.2912  0.3524
 1121YOPC   C4A15606   0.416  19.075   6.989 -0.0449  0.3207 -0.2283
 1121YOPC   C1B15607   0.489  17.436   6.353  0.1684 -0.2596 -0.0714
 1121YOPC   C2B15608   0.625  17.231   6.763 -0.1452 -0.0609 -0.2547
 1121YOPC   D3B15609   0.508  17.419   7.119  0.0300 -0.0651  0.1213
 1121YOPC   C4B15610   0.448  17.310   7.589 -0.4764 -0.0497 -0.2353
 1122YOPC   NC315611  15.347  12.798   4.802  0.0470  0.2878  0.3447
 1122YOPC   PO415612  15.258  13.035   5.176  0.2639  0.2208  0.2761
 1122YOPC   GL115613  15.161  13.302   5.578  0.0676 -0.0653 -0.3159
 1122YOPC   GL215614  15.128  13.681   5.512  0.0916  0.1315 -0.4439
 1122YOPC   C1A15615  15.244  13.184   5.984 -0.0447  0.1653 -0.0119
 1122YOPC   D2A15616  15.371  13.005   6.381 -0.1540 -0.1861  0.1176
 1122YOPC   C3A15617  15.578  13.030   6.920  0.0179  0.1067  0.3446
 1122YOPC   C4A15618  15.547  13.300   7.270 -0.0329  0.0347  0.2221
 1122YOPC   C1B15619  14.975  13.604   6.045 -0.0205  0.0123 -0.1281
 1122YOPC   C2B15620  14.833  13.618   6.467  0.1372 -0.0489  0.1201
 1122YOPC   D3B15621  14.426  13.712   6.474 -0.2139  0.1713 -0.0757
 1122YOPC   C4B15622  14.123  13.989   6.307  0.5059 -0.0448 -0.0109
 1123YOPC   NC315623   0.059   4.585   5.821  0.1781  0.0424 -0.0458
 1123YOPC   PO415624   0.413   4.434   5.665  0.2161 -0.2456  0.1505
 1123YOPC   GL115625   0.413   4.241   6.033 -0.0253  0.1444 -0.2023
 1123YOPC   GL215626   0.527   3.871   6.107  0.0263 -0.2783 -0.3148
 1123YOPC   C1A15627   0.387   4.124   6.494 -0.0298  0.2193 -0.1880
 1123YOPC   D2A15628   0.469   4.190   7.002 -0.1925 -0.1028  0.3756
 1123YOPC   C3A15629   0.892   4.230   7.290 -0.0082  0.1667 -0.1038
 1123YOPC   C4A15630   1.224   4.452   7.352 -0.3135 -0.0744 -0.0082
 1123YOPC   C1B15631   0.806   3.740   6.397  0.1875  0.0794  0.1334
 1123YOPC   C2B15632   0.633   3.761   6.829  0.0223  0.0253 -0.1944
 1123YOPC   D3B15633   0.854   3.755   7.326  0.2806  0.2114 -0.2018
 1123YOPC   C4B15634   0.952   3.921   7.765 -0.0789  0.0073  0.0197
 1124YOPC   NC315635   8.172  12.496   5.483  0.0826 -0.0541 -0.2368
 1124YOPC   PO415636   7.790  12.351   5.568 -0.3778 -0.0004  0.1276
 1124YOPC   GL115637   7.984  12.549   5.986 -0.0653  0.0988 -0.1286
 1124YOPC   GL215638   8.084  12.274   6.004 -0.0712  0.0608  0.1526
 1124YOPC   C1A15639   7.998  12.982   6.174 -0.1920 -0.0011  0.1242
 1124YOPC   D2A15640   8.025  13.355   6.464  0.2794  0.0293 -0.4980
 1124YOPC   C3A15641   7.928  13.356   6.911  0.0505 -0.0043 -0.1903
 1124YOPC   C4A15642   8.213  13.353   7.206  0.1722 -0.0446  0.0440
 1124YOPC   C1B15643   8.139  12.187   6.438 -0.1643 -0.1605 -0.2587
 1124YOPC   C2B15644   8.216  12.231   6.831 -0.1457 -0.1325 -0.2045
 1124YOPC   D3B15645   8.347  11.892   7.123 -0.0749  0.1637 -0.0832
 1124YOPC   C4B15646   8.353  11.655   7.481  0.3617  0.1441 -0.2557
 1125YOPC   NC315647  10.060  14.844   5.579  0.1744 -0.0741 -0.1450
 1125YOPC   PO415648   9.797  15.117   5.754 -0.0729 -0.4657  0.0969
 1125YOPC   GL115649   9.993  15.150   6.047 -0.1915  0.1338 -0.2447
 1125YOPC   GL215650   9.895  15.217   6.329  0.1204  0.1151  0.0843
 1125YOPC   C1A15651  10.402  15.200   6.240 -0.1209  0.1632  0.2793
 1125YOPC   D2A15652  10.847  15.215   6.497 -0.1398 -0.2554 -0.0260
 1125YOPC   C3A15653  10.950  15.416   6.960  0.0223 -0.4736  0.1561
 1125YOPC   C4A15654  11.021  15.340   7.350 -0.0363  0.5168 -0.2654
 1125YOPC   C1B15655   9.919  15.108   6.761 -0.0615  0.1223 -0.1324
 1125YOPC   C2B15656  10.151  15.332   7.137  0.1962  0.1147  0.1612
 1125YOPC   D3B15657  10.066  15.617   7.472  0.3791 -0.0680  0.2506
 1125YOPC   C4B15658   9.879  15.899   7.552  0.0576  0.0665  0.0057
 1126YOPC   NC315659   2.918   4.312   4.732  0.2125 -0.0314  0.0210
 1126YOPC   PO415660   3.124   4.526   4.972 -0.0034  0.1377  0.1706
 1126YOPC   GL115661   3.344   4.739   5.353 -0.0486 -0.2503 -0.1149
 1126YOPC   GL215662   3.231   4.910   5.681  0.0322  0.2214  0.2291
 1126YOPC   C1A15663   3.671   4.752   5.751  0.0416  0.2170 -0.0892
 1126YOPC   D2A15664   3.734   4.616   6.234  0.1018 -0.2705 -0.2494
 1126YOPC   C3A15665   3.583   4.291   6.403  0.0329  0.4307 -0.0530
 1126YOPC   C4A15666   3.759   3.981   6.721  0.2462 -0.0884  0.1622
 1126YOPC   C1B15667   3.437   5.050   6.090  0.1890  0.1145 -0.1707
 1126YOPC   C2B15668   3.796   5.089   6.353  0.3635  0.2037  0.1582
 1126YOPC   D3B15669   3.705   4.923   6.711  0.0771 -0.0708 -0.0849
 1126YOPC   C4B15670   3.636   4.740   7.125  0.0101  0.1307 -0.1092
 1127YOPC   NC315671  16.429   2.399   5.161 -0.1727  0.1405 -0.0135
 1127YOPC   PO415672  16.215   2.384   5.489 -0.0615  0.0845  0.1140
 1127YOPC   GL115673  16.306   2.025   5.737  0.2532 -0.0416  0.0544
 1127YOPC   GL215674  16.206   1.811   6.073 -0.0700 -0.0422 -0.2217
 1127YOPC   C1A15675  16.613   1.656   5.825 -0.0295  0.0906 -0.2877
 1127YOPC   D2A15676  17.043   1.660   6.074 -0.3178  0.2112  0.0122
 1127YOPC   C3A15677  17.400   1.453   6.133 -0.0401  0.1217  0.2982
 1127YOPC   C4A15678  17.549   1.056   6.228  0.0239  0.1907  0.0108
 1127YOPC   C1B15679  15.781   2.028   6.139 -0.3620  0.0502 -0.2064
 1127YOPC   C2B15680  15.504   1.927   6.232 -0.0791  0.0162  0.0604
 1127YOPC   D3B15681  15.136   2.154   6.202 -0.1311  0.0072 -0.2714
 1127YOPC   C4B15682  14.727   2.295   6.278  0.0585 -0.3002  0.2271
 1128YOPC   NC315683  17.320  17.893   5.552  0.1626 -0.1139 -0.2078
 1128YOPC   PO415684  16.988  17.866   5.826 -0.1058 -0.2203  0.0591
 1128YOPC   GL115685  17.079  18.046   6.117 -0.1530 -0.1300  0.0636
 1128YOPC   GL215686  17.477  18.071   6.074 -0.0436 -0.1979 -0.1541
 1128YOPC   C1A15687  16.979  18.179   6.483  0.0001 -0.0300  0.1184
 1128YOPC   D2A15688  16.738  18.532   6.518 -0.2990 -0.4762 -0.1179
 1128YOPC   C3A15689  16.743  18.785   6.922  0.1019 -0.1938 -0.0145
 1128YOPC   C4A15690  16.494  18.630   7.269  0.2494  0.3188 -0.1172
 1128YOPC   C1B15691  17.295  18.469   6.235 -0.1015  0.1604 -0.0591
 1128YOPC   C2B15692  17.286  18.639   6.625  0.2535 -0.0314 -0.1951
 1128YOPC   D3B15693  17.204  18.405   6.873 -0.3431  0.3318 -0.1232
 1128YOPC   C4B15694  17.134  18.090   7.076  0.0715 -0.1378 -0.2414
 1129YOPC   NC315695   1.400  14.584   5.584 -0.2270  0.0469 -0.0224
 1129YOPC   PO415696   1.061  14.430   5.840 -0.0958  0.1361  0.3767
 1129YOPC   GL115697   1.300  14.761   6.126 -0.0307  0.3066 -0.1583
 1129YOPC   GL215698   1.175  14.585   6.444 -0.0906  0.3090 -0.0010
 1129YOPC   C1A15699   1.417  15.013   6.468  0.0169 -0.1829 -0.2223
 1129YOPC   D2A15700   1.674  15.280   6.797 -0.1269  0.1238  0.0413
 1129YOPC   C3A15701   1.642  15.179   7.204  0.2272  0.4000  0.2642
 1129YOPC   C4A15702   1.700  15.422   7.594 -0.4175  0.0029 -0.2120
 1129YOPC   C1B15703   0.997  14.483   6.807  0.1283  0.1587 -0.1410
 1129YOPC   C2B15704   0.994  14.143   7.020  0.0222  0.0039  0.2244
 1129YOPC   D3B15705   1.206  13.830   7.067 -0.0200 -0.0228  0.0978
 1129YOPC   C4B15706   1.339  13.730   7.308  0.3770 -0.2167  0.0379
 1130YOPC   NC315707  12.169   9.511   5.421 -0.3432  0.0365  0.2482
 1130YOPC   PO415708  11.875   9.185   5.405  0.1080  0.1582 -0.1478
 1130YOPC   GL115709  11.776   9.191   5.802  0.1406 -0.0085  0.1721
 1130YOPC   GL215710  11.388   9.316   5.922  0.1075  0.0238  0.0552
 1130YOPC   C1A15711  11.817   9.453   6.150  0.1597  0.0878 -0.0839
 1130YOPC   D2A15712  12.001   9.679   6.548 -0.1377 -0.1300  0.0172
 1130YOPC   C3A15713  12.359   9.854   6.904 -0.1238 -0.2420  0.2058
 1130YOPC   C4A15714  12.605   9.978   7.254  0.1881 -0.0193 -0.2275
 1130YOPC   C1B15715  11.398   9.280   6.405  0.0217 -0.1365  0.0206
 1130YOPC   C2B15716  11.103   9.404   6.699 -0.1056  0.0936  0.3332
 1130YOPC   D3B15717  11.073   9.601   7.068 -0.0209 -0.2808  0.0968
 1130YOPC   C4B15718  11.258   9.425   7.487 -0.1855  0.3158  0.0718
 1131YOPC   NC315719  10.809  10.198   5.057  0.0292  0.1547  0.0801
 1131YOPC   PO415720  11.194  10.263   5.216  0.0033 -0.1136 -0.0966
 1131YOPC   GL115721  11.176  10.630   5.721 -0.2205 -0.0180  0.1720
 1131YOPC   GL215722  11.161  10.326   5.943 -0.0830 -0.1595 -0.0522
 1131YOPC   C1A15723  11.310  10.781   6.080 -0.0900 -0.2202 -0.1275
 1131YOPC   D2A15724  11.379  10.482   6.365 -0.0160  0.1373 -0.2105
 1131YOPC   C3A15725  11.067  10.225   6.429 -0.3049 -0.1938  0.1357
 1131YOPC   C4A15726  10.893   9.856   6.705  0.1372  0.1317  0.1028
 1131YOPC   C1B15727  10.829  10.017   6.062 -0.0427 -0.0790 -0.1846
 1131YOPC   C2B15728  10.501   9.806   6.294 -0.3490 -0.1848  0.0042
 1131YOPC   D3B15729  10.459   9.704   6.688  0.2950 -0.0041 -0.0011
 1131YOPC   C4B15730  10.435   9.695   7.129 -0.0278 -0.1341  0.0574
 1132YOPC   NC315731   6.043   7.812   4.816 -0.1913  0.1923  0.1153
 1132YOPC   PO415732   6.248   7.926   5.213 -0.0299 -0.0804  0.0006
 1132YOPC   GL115733   6.015   7.872   5.559  0.0269  0.2724 -0.1254
 1132YOPC   GL215734   5.945   7.599   5.725 -0.1786  0.2401  0.0759
 1132YOPC   C1A15735   5.770   8.108   5.879 -0.0906 -0.2261  0.2430
 1132YOPC   D2A15736   5.607   8.424   6.044 -0.0239 -0.1839  0.0303
 1132YOPC   C3A15737   5.578   8.371   6.495 -0.1395 -0.0167  0.1766
 1132YOPC   C4A15738   5.719   8.398   6.815 -0.2727  0.3188 -0.0899
 1132YOPC   C1B15739   5.971   7.686   6.140 -0.1365  0.0493 -0.5221
 1132YOPC   C2B15740   5.922   7.592   6.592  0.0432  0.0531  0.1444
 1132YOPC   D3B15741   6.051   7.597   6.932 -0.1760  0.1132  0.0928
 1132YOPC   C4B15742   6.421   7.722   7.067  0.0909  0.0856 -0.0392
 1133YOPC   NC315743  10.880   5.327   5.074 -0.0406 -0.0074 -0.3632
 1133YOPC   PO415744  11.297   5.084   5.219  0.2847  0.1428  0.0222
 1133YOPC   GL115745  11.510   5.035   5.595 -0.2254 -0.2077  0.1787
 1133YOPC   GL215746  11.315   5.049   5.873 -0.0035 -0.1079  0.1947
 1133YOPC   C1A15747  11.709   4.733   5.821  0.0482 -0.0535 -0.2282
 1133YOPC   D2A15748  11.472   4.358   5.775  0.1794 -0.0157  0.0080
 1133YOPC   C3A15749  11.133   4.093   6.113  0.3192  0.4447 -0.1753
 1133YOPC   C4A15750  11.058   3.771   6.460 -0.0506 -0.1480  0.0339
 1133YOPC   C1B15751  11.236   5.176   6.278  0.0975  0.0456  0.2586
 1133YOPC   C2B15752  11.151   5.054   6.665 -0.0066  0.3514 -0.1261
 1133YOPC   D3B15753  11.071   4.551   6.781  0.0961  0.1516 -0.2571
 1133YOPC   C4B15754  11.370   4.222   6.606  0.0804 -0.0666 -0.0501
 1134YOPC   NC315755   0.818   1.161   5.263 -0.2326  0.1306  0.3170
 1134YOPC   PO415756   0.620   1.583   5.416  0.0441 -0.0537  0.1521
 1134YOPC   GL115757   0.732   1.646   5.939 -0.0520  0.1855 -0.0437
 1134YOPC   GL215758   0.554   1.367   6.162 -0.1642 -0.2904  0.1239
 1134YOPC   C1A15759   0.946   1.543   6.346  0.1700  0.3191 -0.2622
 1134YOPC   D2A15760   0.805   1.465   6.686 -0.2085  0.1309 -0.0178
 1134YOPC   C3A15761   0.968   1.647   7.083 -0.4089 -0.1374 -0.2504
 1134YOPC   C4A15762   1.076   1.958   7.507  0.0259 -0.0604  0.0507
 1134YOPC   C1B15763   0.277   1.237   6.625  0.1594  0.0252 -0.1660
 1134YOPC   C2B15764   0.254   0.955   6.824  0.0768 -0.1450  0.0213
 1134YOPC   D3B15765  -0.044   0.772   7.046  0.0531  0.0506 -0.0761
 1134YOPC   C4B15766  -0.315   0.621   7.365 -0.1017 -0.0822 -0.0435
 1135YOPC   NC315767  10.235   9.369   5.065  0.0261  0.0029  0.0898
 1135YOPC   PO415768  10.667   9.408   5.063 -0.0933  0.0504  0.0923
 1135YOPC   GL115769  10.916   9.284   5.527 -0.0040 -0.1185 -0.0580
 1135YOPC   GL215770  10.964   9.523   5.768  0.1138 -0.0184  0.0739
 1135YOPC   C1A15771  10.961   9.026   5.905 -0.1681  0.1422 -0.2851
 1135YOPC   D2A15772  11.053   8.952   6.421  0.0952 -0.3164  0.2509
 1135YOPC   C3A15773  10.957   8.913   6.811 -0.1126 -0.1410 -0.1090
 1135YOPC   C4A15774  11.047   8.875   7.259 -0.2133  0.1187  0.1762
 1135YOPC   C1B15775  10.970   9.547   6.134 -0.1607 -0.2990  0.1852
 1135YOPC   C2B15776  10.699   9.287   6.418  0.0341 -0.1014 -0.1581
 1135YOPC   D3B15777  10.692   9.359   6.920  0.0954 -0.2270  0.3416
 1135YOPC   C4B15778  10.813   9.311   7.321  0.6237  0.1410  0.1939
 1136YOPC   NC315779  17.074   7.434   5.608 -0.0044  0.1053  0.1639
 1136YOPC   PO415780  16.881   7.923   5.733  0.3517  0.3990  0.0925
 1136YOPC   GL115781  16.779   7.821   6.067 -0.1557  0.1599 -0.2180
 1136YOPC   GL215782  16.731   7.585   6.127 -0.0114 -0.1385  0.1302
 1136YOPC   C1A15783  17.058   7.747   6.483  0.0066 -0.3579 -0.1059
 1136YOPC   D2A15784  16.963   7.916   6.865 -0.4244  0.0692 -0.0315
 1136YOPC   C3A15785  17.290   7.964   7.299  0.1063 -0.4958  0.0498
 1136YOPC   C4A15786  17.465   8.008   7.708  0.0648 -0.2413 -0.1960
 1136YOPC   C1B15787  16.601   7.408   6.477  0.3331 -0.1286  0.0364
 1136YOPC   C2B15788  16.173   7.318   6.680 -0.1317 -0.0686  0.2779
 1136YOPC   D3B15789  16.090   7.323   7.101 -0.0302 -0.0387  0.2344
 1136YOPC   C4B15790  15.783   6.995   7.304  0.1631  0.0205  0.0056
 1137YOPC   NC315791   7.760   7.174   4.971  0.0511 -0.1422  0.2044
 1137YOPC   PO415792   7.525   6.777   5.081  0.1552  0.0112  0.0129
 1137YOPC   GL115793   7.502   7.003   5.582  0.0909  0.2385 -0.1926
 1137YOPC   GL215794   7.119   7.145   5.693  0.1116 -0.2297  0.1312
 1137YOPC   C1A15795   7.735   7.429   5.819 -0.1364 -0.0571 -0.0898
 1137YOPC   D2A15796   8.084   7.476   5.981 -0.1229 -0.0739  0.1658
 1137YOPC   C3A15797   8.197   7.416   6.329 -0.1588 -0.2083  0.0736
 1137YOPC   C4A15798   7.967   7.393   6.720 -0.0848 -0.1586  0.2935
 1137YOPC   C1B15799   7.324   7.332   6.032 -0.1429  0.2978 -0.0531
 1137YOPC   C2B15800   7.633   7.550   6.301  0.2575 -0.0614 -0.1154
 1137YOPC   D3B15801   7.610   7.815   6.670 -0.1957  0.0518  0.2211
 1137YOPC   C4B15802   7.378   8.023   6.982 -0.1789 -0.2191 -0.0431
 1138YOPC   NC315803   7.202   1.970   4.808 -0.2161 -0.1263 -0.0631
 1138YOPC   PO415804   7.428   1.810   5.236  0.0755 -0.0011 -0.1553
 1138YOPC   GL115805   7.574   1.630   5.635 -0.1163  0.3390 -0.0821
 1138YOPC   GL215806   7.667   1.925   5.820  0.0495 -0.3236  0.1542
 1138YOPC   C1A15807   7.369   1.525   5.956 -0.2020 -0.2367  0.0079
 1138YOPC   D2A15808   7.156   1.616   6.385  0.2345 -0.2319 -0.3582
 1138YOPC   C3A15809   7.194   1.512   6.821  0.1164 -0.3922 -0.0224
 1138YOPC   C4A15810   7.270   1.585   7.232 -0.1053  0.1879  0.3248
 1138YOPC   C1B15811   7.635   1.737   6.299 -0.0864 -0.2071 -0.0341
 1138YOPC   C2B15812   7.721   1.559   6.636  0.1398 -0.2878 -0.0719
 1138YOPC   D3B15813   7.752   1.695   7.073 -0.0581  0.0213  0.0741
 1138YOPC   C4B15814   7.947   1.937   7.276  0.3252  0.0080 -0.0719
 1139YOPC   NC315815  10.185   8.494   5.190  0.0966  0.2554 -0.2582
 1139YOPC   PO415816  10.185   8.966   5.319 -0.0911 -0.0690  0.1771
 1139YOPC   GL115817  10.199   9.161   5.760  0.0399  0.0244 -0.0583
 1139YOPC   GL215818  10.001   8.956   5.841 -0.0868 -0.2549  0.3280
 1139YOPC   C1A15819  10.259   9.242   6.172  0.3338 -0.0406 -0.2352
 1139YOPC   D2A15820  10.227   9.200   6.617 -0.0052 -0.1290  0.0878
 1139YOPC   C3A15821   9.955   9.501   6.847  0.0079 -0.1158 -0.1629
 1139YOPC   C4A15822   9.587   9.466   6.959  0.3335  0.2081  0.1123
 1139YOPC   C1B15823   9.898   8.885   6.156  0.0809  0.1139 -0.0623
 1139YOPC   C2B15824   9.820   8.737   6.693 -0.1050 -0.1208  0.3758
 1139YOPC   D3B15825   9.861   9.013   6.979 -0.0778 -0.1774 -0.2258
 1139YOPC   C4B15826   9.944   8.957   7.408  0.1647 -0.1042 -0.1259
 1140YOPC   NC315827   7.171  17.256   5.521 -0.0958  0.3009 -0.1958
 1140YOPC   PO415828   7.548  17.418   5.695  0.0285 -0.0731 -0.1016
 1140YOPC   GL115829   7.398  17.096   5.983  0.4721 -0.0596 -0.1603
 1140YOPC   GL215830   7.425  16.815   5.801 -0.0110  0.0445  0.0342
 1140YOPC   C1A15831   7.470  17.026   6.381 -0.0101 -0.2537  0.0071
 1140YOPC   D2A15832   7.421  17.064   6.733 -0.2981  0.2049  0.1376
 1140YOPC   C3A15833   7.108  17.157   7.015  0.1196  0.0090  0.2796
 1140YOPC   C4A15834   6.954  17.517   7.268  0.0748 -0.3272 -0.3314
 1140YOPC   C1B15835   7.236  16.574   6.157  0.2373 -0.3210 -0.2659
 1140YOPC   C2B15836   7.014  16.528   6.590 -0.0774 -0.1383  0.0467
 1140YOPC   D3B15837   7.188  16.637   6.984  0.2556 -0.0898 -0.1056
 1140YOPC   C4B15838   7.481  16.867   7.269 -0.0077 -0.1456 -0.1607
 1141YOPC   NC315839   1.224  17.843   5.712 -0.0047 -0.2611  0.2483
 1141YOPC   PO415840   1.516  17.836   5.776 -0.0954  0.4764  0.0393
 1141YOPC   GL115841   1.771  18.009   6.101  0.0990  0.0477  0.3053
 1141YOPC   GL215842   2.021  18.317   6.123 -0.1007 -0.3573 -0.0201
 1141YOPC   C1A15843   2.062  18.018   6.507 -0.0313 -0.0018 -0.0994
 1141YOPC   D2A15844   2.097  17.682   6.787  0.0209  0.0360  0.3074
 1141YOPC   C3A15845   2.263  17.889   7.144 -0.0494 -0.2492  0.0861
 1141YOPC   C4A15846   1.937  18.052   7.473  0.0011  0.2751  0.1502
 1141YOPC   C1B15847   2.250  18.494   6.379 -0.4291 -0.2374 -0.3858
 1141YOPC   C2B15848   2.327  18.781   6.744  0.0226  0.0478  0.0649
 1141YOPC   D3B15849   1.971  18.742   7.046  0.0117  0.0641  0.0822
 1141YOPC   C4B15850   1.671  18.690   7.495 -0.0081  0.1004  0.0777
 1142YOPC   NC315851  14.299  12.337   5.350  0.0014 -0.1082  0.2511
 1142YOPC   PO415852  13.817  12.243   5.426  0.1997 -0.2678 -0.0423
 1142YOPC   GL115853  14.070  12.206   5.830 -0.2915 -0.0502  0.1444
 1142YOPC   GL215854  14.369  12.400   5.841  0.2153 -0.2042 -0.1161
 1142YOPC   C1A15855  13.905  12.029   6.152  0.0611  0.0457 -0.0067
 1142YOPC   D2A15856  13.664  11.947   6.489  0.1461 -0.0702  0.1528
 1142YOPC   C3A15857  13.233  11.975   6.393 -0.0089 -0.3861  0.0366
 1142YOPC   C4A15858  12.998  11.921   6.052  0.0205 -0.2027 -0.0146
 1142YOPC   C1B15859  14.152  12.473   6.211  0.2065  0.2534  0.1116
 1142YOPC   C2B15860  14.104  12.176   6.654  0.1048  0.0116 -0.2272
 1142YOPC   D3B15861  14.245  12.289   7.013 -0.1199 -0.0904 -0.0115
 1142YOPC   C4B15862  14.294  12.431   7.442 -0.2284 -0.2974 -0.2760
 1143ERGO   ROH15863   3.506   4.315   5.385 -0.2246  0.1176  0.1078
 1143ERGO    R115864   3.678   4.194   5.575 -0.2868  0.0105  0.0960
 1143ERGO    R215865   3.912   4.314   5.661 -0.1198 -0.2106 -0.0481
 1143ERGO    R315866   3.803   4.275   5.907 -0.0699  0.0217  0.0136
 1143ERGO    R415867   4.093   4.278   5.953 -0.0392 -0.3171 -0.1096
 1143ERGO    R515868   3.953   4.122   6.015 -0.2105 -0.1240  0.0101
 1143ERGO    C115869   4.096   4.221   6.355  0.0545 -0.1610 -0.0874
 1143ERGO    C215870   4.129   4.304   6.484 -0.1074 -0.0515 -0.0082
 1144ERGO   ROH15871   8.567  13.219   5.909 -0.0959 -0.0369 -0.0678
 1144ERGO    R115872   8.457  13.245   6.168 -0.0423  0.0407 -0.0539
 1144ERGO    R215873   8.414  13.029   6.334 -0.2375  0.0655 -0.0808
 1144ERGO    R315874   8.563  13.174   6.509 -0.0778 -0.1043 -0.0700
 1144ERGO    R415875   8.481  12.936   6.661 -0.0754 -0.1931 -0.1830
 1144ERGO    R515876   8.452  13.144   6.720  0.0317 -0.2144 -0.0201
 1144ERGO    C115877   8.659  13.019   7.015  0.1688 -0.5030 -0.2324
 1144ERGO    C215878   8.891  12.914   7.187  0.3581  0.1753 -0.2808
 1145ERGO   ROH15879  14.053  11.045   5.863 -0.2512  0.0713 -0.1519
 1145ERGO    R115880  13.848  11.088   6.053  0.0071 -0.0823  0.1734
 1145ERGO    R215881  13.898  11.102   6.324  0.4818  0.2966  0.0867
 1145ERGO    R315882  13.769  11.340   6.303  0.0291  0.0585  0.0386
 1145ERGO    R415883  13.706  11.246   6.573  0.2727  0.0325  0.0822
 1145ERGO    R515884  13.563  11.308   6.421  0.1152 -0.2820  0.0998
 1145ERGO    C115885  13.474  11.554   6.698 -0.2741 -0.3448  0.0345
 1145ERGO    C215886  13.324  11.823   6.875  0.1415 -0.2812 -0.0160
 1146ERGO   ROH15887  10.220   8.501   5.710 -0.2832 -0.0949 -0.0737
 1146ERGO    R115888  10.370   8.529   5.948 -0.2612 -0.4267 -0.0423
 1146ERGO    R215889  10.447   8.776   6.047  0.4550 -0.5794 -0.1447
 1146ERGO    R315890  10.324   8.686   6.272  0.0969 -0.1100 -0.1382
 1146ERGO    R415891  10.543   8.852   6.370  0.3492 -0.4439 -0.1445
 1146ERGO    R515892  10.502   8.646   6.427 -0.1012 -0.3099  0.0400
 1146ERGO    C115893  10.484   8.812   6.770 -0.0486  0.0757 -0.1384
 1146ERGO    C215894  10.413   8.737   7.161 -0.2014 -0.2646 -0.3282
 1147ERGO   ROH15895  13.997  13.509   6.170 -0.2244 -0.3315  0.0047
 1147ERGO    R115896  13.857  13.495   6.416 -0.0142 -0.2904  0.1295
 1147ERGO    R215897  13.986  13.491   6.661  0.1919 -0.0195  0.0330
 1147ERGO    R315898  13.824  13.703   6.713  0.0536 -0.1209  0.0197
 1147ERGO    R415899  13.965  13.653   6.965  0.1947  0.0823 -0.0208
 1147ERGO    R515900  13.749  13.666   6.938  0.1737 -0.0909  0.0634
 1147ERGO    C115901  13.801  13.946   7.192  0.0664  0.0465 -0.0647
 1147ERGO    C215902  13.863  14.194   7.423 -0.1453  0.1592 -0.1140
 1148ERGO   ROH15903   9.185  10.095   5.733  0.0353 -0.2341  0.0134
 1148ERGO    R115904   9.211  10.014   6.003 -0.0575 -0.1298  0.0550
 1148ERGO    R215905   9.224  10.194   6.212  0.0639 -0.0392 -0.0262
 1148ERGO    R315906   9.017  10.046   6.309 -0.0661  0.1694  0.0202
 1148ERGO    R415907   9.140  10.170   6.546  0.3607 -0.2636  0.0367
 1148ERGO    R515908   9.101   9.957   6.516  0.0085 -0.1775 -0.1540
 1148ERGO    C115909   8.897  10.017   6.833  0.4117 -0.1984  0.1169
 1148ERGO    C215910   8.909  10.184   7.159  0.0826 -0.0963  0.0123
 1149ERGO   ROH15911   0.811  18.857   5.868 -0.1595  0.0790 -0.0965
 1149ERGO    R115912   0.775  18.945   6.135 -0.2134 -0.1544 -0.0242
 1149ERGO    R215913   0.747  18.771   6.347  0.0963 -0.3437 -0.1342
 1149ERGO    R315914   0.954  18.914   6.450 -0.0781 -0.1155 -0.0956
 1149ERGO    R415915   0.756  18.900   6.667 -0.1208 -0.3112 -0.1400
 1149ERGO    R515916   0.848  19.081   6.586 -0.2916 -0.2162 -0.1317
 1149ERGO    C115917   0.955  19.111   6.950 -0.4109 -0.0779 -0.1071
 1149ERGO    C215918   1.046  19.216   7.277 -0.2581  0.0347  0.1077
 1150ERGO   ROH15919   6.743  12.971   6.398 -0.1797  0.0643 -0.0707
 1150ERGO    R115920   6.657  12.882   6.652 -0.1462 -0.0013 -0.0800
 1150ERGO    R215921   6.806  12.920   6.882 -0.0832 -0.1110 -0.0892
 1150ERGO    R315922   6.576  13.034   6.973 -0.0386 -0.0836 -0.0167
 1150ERGO    R415923   6.757  13.036   7.204 -0.0317 -0.2205 -0.0432
 1150ERGO    R515924   6.555  12.954   7.197 -0.0447 -0.1569 -0.0523
 1150ERGO    C115925   6.514  13.210   7.476  0.0402 -0.2585  0.0517
 1150ERGO    C215926   6.652  13.202   7.742 -0.2757  0.0462 -0.0148
 1151ERGO   ROH15927   5.451  18.040   5.692  0.1412 -0.1919  0.0045
 1151ERGO    R115928   5.409  17.860   5.906  0.1457 -0.1804  0.0150
 1151ERGO    R215929   5.598  17.815   6.103  0.0722 -0.0199  0.1239
 1151ERGO    R315930   5.393  17.880   6.270 -0.0600 -0.1231  0.0044
 1151ERGO    R415931   5.510  17.637   6.385  0.0362 -0.0300  0.1067
 1151ERGO    R515932   5.301  17.668   6.334  0.0412 -0.1733 -0.0112
 1151ERGO    C115933   5.267  17.593   6.707 -0.1088 -0.1328 -0.0156
 1151ERGO    C215934   5.317  17.572   7.050  0.0911 -0.0289  0.0029
 1152ERGO   ROH15935   0.366   1.893   6.181 -0.2285 -0.0400  0.1048
 1152ERGO    R115936   0.299   1.924   6.454 -0.2411 -0.1016  0.1100
 1152ERGO    R215937   0.121   1.757   6.584 -0.2156 -0.1611  0.0788
 1152ERGO    R315938   0.328   1.725   6.758 -0.2102 -0.1530  0.0721
 1152ERGO    R415939   0.091   1.762   6.928 -0.1404  0.2345  0.0841
 1152ERGO    R515940   0.277   1.875   6.938 -0.0415  0.0834 -0.0764
 1152ERGO    C115941   0.267   1.734   7.292 -0.0914  0.4725  0.0810
 1152ERGO    C215942   0.267   1.464   7.554 -0.2151  0.2262 -0.0204
 1153ERGO   ROH15943  13.092  17.043   5.614 -0.1020 -0.2382 -0.2475
 1153ERGO    R115944  13.006  16.992   5.879 -0.1831 -0.1003 -0.2465
 1153ERGO    R215945  12.762  16.875   5.936 -0.1105 -0.2641 -0.2725
 1153ERGO    R315946  12.916  16.699   6.075 -0.0235 -0.0243 -0.0558
 1153ERGO    R415947  12.668  16.719   6.230 -0.2431 -0.3337 -0.3503
 1153ERGO    R515948  12.870  16.748   6.305 -0.3649 -0.0357 -0.1148
 1153ERGO    C115949  12.757  16.463   6.531 -0.2387 -0.1491 -0.1922
 1153ERGO    C215950  12.680  16.310   6.846  0.0085 -0.0173  0.4958
 1154ERGO   ROH15951   8.456  15.375   5.963 -0.2176  0.0437  0.0113
 1154ERGO    R115952   8.519  15.496   6.211 -0.1953  0.0931 -0.0176
 1154ERGO    R215953   8.327  15.554   6.401 -0.1671  0.0334  0.0353
 1154ERGO    R315954   8.490  15.408   6.563 -0.0597  0.1117 -0.0025
 1154ERGO    R415955   8.277  15.503   6.739 -0.1212 -0.0949  0.0229
 1154ERGO    R515956   8.491  15.527   6.770 -0.1431  0.0541  0.0271
 1154ERGO    C115957   8.400  15.337   7.088  0.0065 -0.0960 -0.0199
 1154ERGO    C215958   8.220  15.328   7.346  0.1292  0.0025  0.2383
 1155ERGO   ROH15959  12.589   5.042   5.548 -0.1123 -0.0764 -0.0928
 1155ERGO    R115960  12.568   4.845   5.750 -0.1288  0.0507  0.0300
 1155ERGO    R215961  12.786   4.755   5.894 -0.1274  0.0719  0.0336
 1155ERGO    R315962  12.633   4.824   6.107 -0.0584  0.2426  0.0303
 1155ERGO    R415963  12.862   4.683   6.223 -0.2431 -0.0802  0.0292
 1155ERGO    R515964  12.652   4.638   6.257 -0.3121  0.1885  0.0041
 1155ERGO    C115965  12.763   4.707   6.615 -0.2458 -0.0086  0.0236
 1155ERGO    C215966  12.945   4.793   6.825  0.0517  0.0201 -0.0183
 1156ERGO   ROH15967   8.388   9.349   5.623  0.0430  0.2815  0.0063
 1156ERGO    R115968   8.511   9.431   5.864  0.0675  0.0785  0.0651
 1156ERGO    R215969   8.379   9.426   6.108  0.0503 -0.0060  0.0538
 1156ERGO    R315970   8.594   9.279   6.184 -0.0240 -0.1540 -0.0195
 1156ERGO    R415971   8.466   9.358   6.435  0.0848 -0.1054  0.0242
 1156ERGO    R515972   8.675   9.388   6.381  0.0929 -0.2305 -0.0227
 1156ERGO    C115973   8.718   9.180   6.698  0.0353 -0.3024 -0.0619
 1156ERGO    C215974   8.594   9.053   7.068  0.0923 -0.3435 -0.4510
 1157ERGO   ROH15975   0.967  17.529   6.659 -0.1238  0.0468 -0.1111
 1157ERGO    R115976   1.027  17.691   6.883 -0.2352 -0.2595  0.1466
 1157ERGO    R215977   0.985  17.964   6.884  0.2113 -0.1900  0.3170
 1157ERGO    R315978   0.843  17.909   7.109 -0.2706 -0.1681  0.0339
 1157ERGO    R415979   0.886  18.199   7.117  0.3050 -0.2369  0.4074
 1157ERGO    R515980   0.934  18.056   7.275 -0.2287 -0.5216  0.3466
 1157ERGO    C115981   0.694  18.284   7.464 -0.0930 -0.2436  0.1942
 1157ERGO    C215982   0.484  18.266   7.688 -0.0927  0.3518 -0.0322
 1158ERGO   ROH15983   0.049   0.585   5.826 -0.2493 -0.1628  0.1389
 1158ERGO    R115984   0.013   0.503   6.094 -0.1071 -0.1376  0.1673
 1158ERGO    R215985   0.199   0.352   6.230 -0.0583 -0.1758  0.0665
 1158ERGO    R315986   0.184   0.554   6.411  0.0988 -0.1575  0.0598
 1158ERGO    R415987   0.323   0.337   6.552 -0.1045 -0.2688  0.0797
 1158ERGO    R515988   0.144   0.442   6.620 -0.0173 -0.1139  0.0583
 1158ERGO    C115989   0.380   0.517   6.910  0.0161 -0.3058  0.0810
 1158ERGO    C215990   0.470   0.742   7.212  0.1763  0.0588  0.0530
 1159ERGO   ROH15991   5.329   8.350   5.621  0.2697  0.1361 -0.0643
 1159ERGO    R115992   5.203   8.193   5.821  0.0916  0.2631 -0.0750
 1159ERGO    R215993   5.313   7.959   5.918 -0.1559  0.1474 -0.0673
 1159ERGO    R315994   5.282   8.082   6.158 -0.0493  0.1794 -0.0691
 1159ERGO    R415995   5.452   7.850   6.215 -0.3741 -0.0580 -0.0380
 1159ERGO    R515996   5.265   7.902   6.315 -0.3320  0.1900 -0.0813
 1159ERGO    C115997   5.503   7.901   6.614 -0.4011 -0.1473 -0.0228
 1159ERGO    C215998   5.608   7.846   6.891 -0.2072 -0.4317 -0.0790
 1160ERGO   ROH15999  10.743  10.479   6.197  0.0972  0.0335  0.0160
 1160ERGO    R116000  10.530  10.457   6.382  0.0449 -0.0555 -0.0528
 1160ERGO    R216001  10.523  10.264   6.580  0.0411 -0.0847 -0.0786
 1160ERGO    R316002  10.490  10.478   6.744 -0.0733 -0.1148 -0.0623
 1160ERGO    R416003  10.409  10.248   6.905  0.0949 -0.1745 -0.0644
 1160ERGO    R516004  10.292  10.428   6.868 -0.0242 -0.2470 -0.0382
 1160ERGO    C116005  10.311  10.440   7.249  0.0189 -0.2550 -0.0409
 1160ERGO    C216006  10.207  10.464   7.572 -0.1000 -0.0803 -0.1233
 1161ERGO   ROH16007   7.668  13.891   5.618  0.1356 -0.0843  0.0922
 1161ERGO    R116008   7.840  13.966   5.830 -0.1060  0.3642  0.1419
 1161ERGO    R216009   7.751  14.107   6.050 -0.6051 -0.0675  0.2351
 1161ERGO    R316010   7.862  13.900   6.188  0.1054  0.1928  0.1005
 1161ERGO    R416011   7.758  14.080   6.395 -0.7263 -0.3587  0.2180
 1161ERGO    R516012   7.961  14.003   6.380 -0.3918  0.4134  0.2602
 1161ERGO    C116013   7.866  13.870   6.724 -0.1300 -0.2840  0.0817
 1161ERGO    C216014   8.001  13.868   7.012  0.2287  0.0942  0.0532
 1162ERGO   ROH16015   6.345   4.203   6.071  0.1646  0.0403  0.1910
 1162ERGO    R116016   6.321   4.252   6.349 -0.0146  0.0658  0.1719
 1162ERGO    R216017   6.200   4.479   6.450 -0.1548  0.0335  0.0738
 1162ERGO    R316018   6.050   4.299   6.587 -0.1703 -0.0026  0.0108
 1162ERGO    R416019   6.004   4.554   6.725 -0.1783 -0.0362  0.0767
 1162ERGO    R516020   6.069   4.367   6.816 -0.1888 -0.0639  0.0323
 1162ERGO    C116021   5.748   4.428   7.013 -0.2065 -0.1106  0.0192
 1162ERGO    C216022   5.760   4.579   7.358  0.1276 -0.1633  0.0799
 1163ERGO   ROH16023  15.187  11.336   5.982 -0.0893  0.0816 -0.0197
 1163ERGO    R116024  15.384  11.370   6.183 -0.0066 -0.0218 -0.0830
 1163ERGO    R216025  15.494  11.616   6.243  0.1050 -0.0725 -0.0837
 1163ERGO    R316026  15.414  11.554   6.495  0.1711 -0.0807 -0.0641
 1163ERGO    R416027  15.637  11.740   6.532  0.2440 -0.1555 -0.1156
 1163ERGO    R516028  15.617  11.542   6.621  0.2118 -0.1619 -0.1350
 1163ERGO    C116029  15.645  11.753   6.937  0.3871 -0.2115 -0.1158
 1163ERGO    C216030  15.534  11.791   7.321  0.2632  0.1310 -0.1081
 1164ERGO   ROH16031   2.159   1.592   5.539  0.1902 -0.0072  0.0699
 1164ERGO    R116032   2.206   1.560   5.816  0.2115  0.0115  0.0688
 1164ERGO    R216033   2.452   1.609   5.932  0.2059  0.0755  0.0562
 1164ERGO    R316034   2.307   1.774   6.093  0.1725  0.0441  0.0581
 1164ERGO    R416035   2.574   1.767   6.214  0.1645  0.0672  0.0785
 1164ERGO    R516036   2.385   1.725   6.314  0.1616  0.0354  0.0602
 1164ERGO    C116037   2.510   2.014   6.529  0.1091  0.0330  0.0932
 1164ERGO    C216038   2.424   2.202   6.811  0.0161 -0.2339  0.2012
 1165ERGO   ROH16039  11.864   6.860   5.749 -0.0473 -0.0151  0.0838
 1165ERGO    R116040  11.749   6.969   5.983 -0.0960 -0.0553  0.0788
 1165ERGO    R216041  11.571   6.827   6.141 -0.1110 -0.0910  0.0311
 1165ERGO    R316042  11.747   6.890   6.338 -0.1491 -0.1020  0.0684
 1165ERGO    R416043  11.528   6.751   6.475 -0.2562  0.0406  0.0436
 1165ERGO    R516044  11.609   6.947   6.525 -0.1865  0.0223  0.0035
 1165ERGO    C116045  11.669   6.765   6.855 -0.3764  0.1070  0.0858
 1165ERGO    C216046  11.598   6.612   7.065 -0.1638  0.0031 -0.0213
 1166ERGO   ROH16047  16.368   8.031   5.677  0.1709 -0.1467 -0.1475
 1166ERGO    R116048  16.262   8.051   5.939  0.1724 -0.0398 -0.1554
 1166ERGO    R216049  16.225   7.830   6.101  0.1239  0.0238 -0.0879
 1166ERGO    R316050  16.375   7.973   6.276  0.1495  0.0460 -0.1263
 1166ERGO    R416051  16.275   7.747   6.432  0.0051  0.1629 -0.0331
 1166ERGO    R516052  16.256   7.958   6.483  0.0884  0.2028 -0.1442
 1166ERGO    C116053  16.446   7.834   6.790 -0.0402  0.2646 -0.0373
 1166ERGO    C216054  16.542   7.541   6.988  0.2782 -0.2069 -0.0863
 1167ERGO   ROH16055   1.892   2.877   5.833 -0.0103  0.0777 -0.1558
 1167ERGO    R116056   1.884   2.895   6.115 -0.0372  0.1444 -0.1607
 1167ERGO    R216057   1.701   3.053   6.249 -0.1366  0.0707 -0.2125
 1167ERGO    R316058   1.643   2.820   6.378 -0.0088  0.0702 -0.1546
 1167ERGO    R416059   1.582   3.030   6.573 -0.1508  0.0956 -0.2160
 1167ERGO    R516060   1.713   2.859   6.604 -0.0483  0.1782 -0.1575
 1167ERGO    C116061   1.460   2.799   6.883 -0.0392  0.1096 -0.1637
 1167ERGO    C216062   1.183   2.956   7.039 -0.0243 -0.2039  0.0612
 1168ERGO   ROH16063  15.764  13.216   6.088  0.1757 -0.1705  0.1719
 1168ERGO    R116064  15.822  13.371   6.318  0.1269 -0.1507  0.1740
 1168ERGO    R216065  15.819  13.265   6.574  0.0477 -0.1271  0.1960
 1168ERGO    R316066  16.071  13.366   6.584  0.0538 -0.1538  0.2378
 1168ERGO    R416067  15.975  13.378   6.861 -0.1181  0.2347  0.1476
 1168ERGO    R516068  16.058  13.543   6.745 -0.0179  0.0602 -0.0103
 1168ERGO    C116069  16.303  13.538   7.037 -0.2087  0.4204  0.1585
 1168ERGO    C216070  16.377  13.713   7.255 -0.2881 -0.1747  0.0521
 1169ERGO   ROH16071  10.907  17.047   5.917  0.2346 -0.1471 -0.0359
 1169ERGO    R116072  10.941  17.229   6.131  0.1290 -0.1320 -0.0314
 1169ERGO    R216073  10.777  17.229   6.353  0.1638 -0.2718 -0.0054
 1169ERGO    R316074  11.013  17.207   6.487  0.2039 -0.0972 -0.0440
 1169ERGO    R416075  10.815  17.268   6.695  0.2021 -0.1840 -0.0190
 1169ERGO    R516076  11.001  17.375   6.657  0.1281 -0.0722 -0.0733
 1169ERGO    C116077  11.058  17.269   7.019  0.2621  0.0311 -0.0632
 1169ERGO    C216078  10.940  17.312   7.407  0.3214 -0.1928  0.1498
 1170ERGO   ROH16079   7.523   1.073   5.847  0.1514 -0.1952  0.1689
 1170ERGO    R116080   7.574   1.003   6.117  0.0545  0.0806  0.2623
 1170ERGO    R216081   7.474   1.148   6.329 -0.3151  0.1029  0.0826
 1170ERGO    R316082   7.377   0.906   6.407 -0.0255  0.0154  0.1857
 1170ERGO    R416083   7.384   1.066   6.653 -0.2353  0.1329  0.1130
 1170ERGO    R516084   7.474   0.869   6.622  0.0065  0.2283  0.2077
 1170ERGO    C116085   7.241   0.791   6.914  0.0831  0.0683  0.2273
 1170ERGO    C216086   7.156   0.970   7.226  0.2608  0.0232  0.2640
 1171ERGO   ROH16087   2.607  16.897   5.883 -0.2107  0.0505  0.0304
 1171ERGO    R116088   2.761  16.929   6.119 -0.1837  0.0281  0.0144
 1171ERGO    R216089   2.786  17.172   6.248 -0.1728  0.0096  0.0330
 1171ERGO    R316090   2.700  17.030   6.463 -0.1398 -0.0091  0.0354
 1171ERGO    R416091   2.849  17.254   6.578 -0.2607  0.0902  0.0308
 1171ERGO    R516092   2.880  17.043   6.620 -0.1626  0.1025  0.0618
 1171ERGO    C116093   2.804  17.169   6.972 -0.2809  0.1195  0.0317
 1171ERGO    C216094   3.026  17.249   7.287  0.2286 -0.2612 -0.0855
 1172ERGO   ROH16095  14.086   9.034   6.321 -0.1842 -0.0531 -0.0528
 1172ERGO    R116096  13.981   9.038   6.584 -0.0225 -0.0163  0.0127
 1172ERGO    R216097  14.034   8.840   6.769  0.1537  0.0512  0.0318
 1172ERGO    R316098  14.114   9.049   6.922  0.1833  0.1151 -0.0694
 1172ERGO    R416099  13.956   8.883   7.103  0.2397  0.1632  0.0380
 1172ERGO    R516100  13.927   9.095   7.064  0.2140  0.1521 -0.0347
 1172ERGO    C116101  13.986   9.106   7.441  0.3175  0.2886 -0.0535
 1172ERGO    C216102  13.826   9.023   7.835 -0.0069  0.0702  0.1355
 1173ERGO   ROH16103  10.603   3.679   5.576 -0.1705 -0.2359 -0.1715
 1173ERGO    R116104  10.610   3.457   5.751 -0.1293 -0.1686 -0.0868
 1173ERGO    R216105  10.721   3.469   6.004 -0.1073 -0.0594 -0.1010
 1173ERGO    R316106  10.478   3.375   6.081 -0.0899 -0.0573 -0.0433
 1173ERGO    R416107  10.649   3.342   6.317 -0.0121 -0.1397 -0.1113
 1173ERGO    R516108  10.529   3.188   6.221 -0.0598 -0.1011 -0.1129
 1173ERGO    C116109  10.379   3.180   6.572  0.0598 -0.1845 -0.0631
 1173ERGO    C216110  10.410   3.206   6.957  0.1225  0.1880 -0.0849
 1174ERGO   ROH16111   3.229  15.685   6.050 -0.0366  0.0609  0.1306
 1174ERGO    R116112   3.362  15.646   6.297 -0.0935 -0.2011  0.1241
 1174ERGO    R216113   3.396  15.849   6.482  0.2939 -0.2637  0.1363
 1174ERGO    R316114   3.277  15.672   6.650 -0.0361 -0.0592  0.1272
 1174ERGO    R416115   3.389  15.877   6.826  0.1743 -0.1800  0.1275
 1174ERGO    R516116   3.423  15.662   6.840 -0.1364 -0.2256  0.1948
 1174ERGO    C116117   3.274  15.726   7.185 -0.2052  0.0608  0.1136
 1174ERGO    C216118   2.979  15.852   7.487 -0.1161 -0.0518 -0.2467
 1175ERGO   ROH16119   2.225  10.748   5.894 -0.0060  0.0146 -0.0712
 1175ERGO    R116120   2.266  10.714   6.172 -0.1926 -0.1269 -0.0584
 1175ERGO    R216121   2.362  10.916   6.334  0.0416 -0.3132  0.0423
 1175ERGO    R316122   2.139  10.862   6.479 -0.1176 -0.0116 -0.0821
 1175ERGO    R416123   2.341  10.939   6.678 -0.0647 -0.4504  0.0455
 1175ERGO    R516124   2.221  10.756   6.678 -0.3777 -0.2550 -0.0970
 1175ERGO    C116125   2.119  10.902   7.015 -0.2761 -0.2471 -0.0693
 1175ERGO    C216126   1.984  11.033   7.458 -0.0975  0.1169  0.1875
 1176ERGO   ROH16127   5.592  11.816   6.284 -0.0133 -0.0403 -0.2080
 1176ERGO    R116128   5.483  11.893   6.533 -0.0252 -0.1966 -0.1642
 1176ERGO    R216129   5.390  12.149   6.583  0.0639 -0.2001  0.0228
 1176ERGO    R316130   5.163  12.017   6.655  0.0013 -0.1712 -0.1179
 1176ERGO    R416131   5.151  12.272   6.799 -0.0271 -0.1852 -0.0854
 1176ERGO    R516132   5.133  12.073   6.886 -0.1093 -0.1980 -0.1230
 1176ERGO    C116133   4.798  12.221   6.993 -0.1389 -0.1494 -0.2805
 1176ERGO    C216134   4.587  12.463   7.161  0.0665 -0.2072 -0.3128
 1177ERGO   ROH16135  18.850  16.465   6.387  0.1860  0.2970 -0.1615
 1177ERGO    R116136  18.862  16.477   6.669  0.1202  0.2113 -0.1545
 1177ERGO    R216137  18.988  16.284   6.822  0.0523  0.1465 -0.1817
 1177ERGO    R316138  19.123  16.498   6.922  0.0627  0.0950 -0.0843
 1177ERGO    R416139  19.146  16.292   7.129 -0.0937  0.0546 -0.1035
 1177ERGO    R516140  19.073  16.496   7.156 -0.0518  0.0715 -0.1076
 1177ERGO    C116141  19.364  16.497   7.403 -0.1690 -0.0474  0.0336
 1177ERGO    C216142  19.592  16.408   7.601  0.0653 -0.0545 -0.1258
 1178ERGO   ROH16143   3.350   4.388   5.875  0.3413 -0.0142  0.0916
 1178ERGO    R116144   3.251   4.592   6.045  0.2707 -0.0021  0.0364
 1178ERGO    R216145   3.082   4.539   6.258  0.1839  0.0127 -0.0280
 1178ERGO    R316146   3.272   4.674   6.399  0.1262  0.0241  0.0392
 1178ERGO    R416147   3.021   4.727   6.541  0.1073 -0.1686  0.0771
 1178ERGO    R516148   3.162   4.876   6.468  0.0361 -0.0629  0.1532
 1178ERGO    C116149   3.163   4.962   6.839  0.0086 -0.2635  0.2013
 1178ERGO    C216150   3.201   4.890   7.212 -0.1436  0.4204 -0.2882
 1179ERGO   ROH16151  16.853  17.718   6.667 -0.2161 -0.0529 -0.2079
 1179ERGO    R116152  16.830  17.733   6.948  0.0403 -0.1251 -0.1797
 1179ERGO    R216153  16.587  17.770   7.076  0.1982  0.2545  0.0328
 1179ERGO    R316154  16.661  17.546   7.210 -0.0842  0.0616 -0.1252
 1179ERGO    R416155  16.428  17.647   7.357  0.0927  0.2975 -0.0078
 1179ERGO    R516156  16.624  17.599   7.441  0.0477 -0.0316 -0.0828
 1179ERGO    C116157  16.405  17.365   7.647 -0.2339  0.1416 -0.1799
 1179ERGO    C216158  16.255  17.260   7.893  0.2055  0.0978 -0.1137
 1180ERGO   ROH16159   9.338   3.592   5.982 -0.0768  0.0379  0.0677
 1180ERGO    R116160   9.507   3.627   6.207 -0.0880  0.0739  0.0691
 1180ERGO    R216161   9.578   3.876   6.303 -0.1620  0.0845  0.0803
 1180ERGO    R316162   9.480   3.778   6.536 -0.1292  0.0468  0.0800
 1180ERGO    R416163   9.697   3.957   6.617 -0.2000  0.1469  0.0799
 1180ERGO    R516164   9.673   3.749   6.675 -0.1142  0.1321  0.0849
 1180ERGO    C116165   9.674   3.912   7.019 -0.1915  0.1479  0.0795
 1180ERGO    C216166   9.587   4.094   7.409  0.1610  0.0154 -0.0279
 1181ERGO   ROH16167   9.864  17.223   6.099 -0.0803 -0.0323  0.0139
 1181ERGO    R116168  10.019  17.114   6.309  0.0927  0.0784 -0.0540
 1181ERGO    R216169  10.216  17.259   6.440 -0.1322  0.3103  0.0331
 1181ERGO    R316170  10.075  17.187   6.661 -0.0237 -0.0495 -0.0073
 1181ERGO    R416171  10.339  17.266   6.763 -0.1046  0.2037  0.0254
 1181ERGO    R516172  10.236  17.078   6.801  0.1338  0.0362 -0.1155
 1181ERGO    C116173  10.279  17.204   7.158  0.0133 -0.1960 -0.0169
 1181ERGO    C216174  10.249  17.209   7.469  0.2739 -0.2146  0.2493
 1182ERGO   ROH16175   7.293   4.129   5.970  0.0073 -0.4192 -0.0068
 1182ERGO    R116176   7.393   4.177   6.231  0.0050 -0.4861  0.0056
 1182ERGO    R216177   7.341   4.410   6.369  0.5761 -0.2124 -0.2157
 1182ERGO    R316178   7.252   4.238   6.560 -0.0145  0.1780 -0.1112
 1182ERGO    R416179   7.411   4.436   6.707  0.7857 -0.3113 -0.2497
 1182ERGO    R516180   7.435   4.219   6.713 -0.0087 -0.4298 -0.1637
 1182ERGO    C116181   7.369   4.290   7.082  0.3532 -0.0024 -0.1713
 1182ERGO    C216182   7.277   4.266   7.273  0.0149  0.0574 -0.1239
 1183ERGO   ROH16183   8.811  14.190   6.073 -0.1982  0.0632 -0.1305
 1183ERGO    R116184   8.941  14.103   6.308 -0.0681  0.1497 -0.1679
 1183ERGO    R216185   8.920  14.238   6.548 -0.0961  0.1318 -0.1550
 1183ERGO    R316186   8.841  13.995   6.641  0.0998  0.0724 -0.1425
 1183ERGO    R416187   8.925  14.143   6.881  0.0193  0.1316 -0.1572
 1183ERGO    R516188   8.995  13.946   6.818  0.1581  0.1867 -0.1647
 1183ERGO    C116189   8.853  13.859   7.161  0.2704  0.0755 -0.1469
 1183ERGO    C216190   8.744  13.790   7.660  0.1850 -0.0917  0.1439
 1184ERGO   ROH16191  17.762  17.420   6.646  0.0599  0.3034  0.0011
 1184ERGO    R116192  17.735  17.463   6.924  0.0230  0.0109  0.0458
 1184ERGO    R216193  17.939  17.411   7.103  0.0795  0.0413 -0.0117
 1184ERGO    R316194  17.897  17.670   7.177 -0.1760 -0.0658  0.2398
 1184ERGO    R416195  18.012  17.543   7.415  0.2283 -0.1223  0.0247
 1184ERGO    R516196  17.826  17.656   7.405  0.0693 -0.3447  0.3062
 1184ERGO    C116197  18.015  17.862   7.664  0.0753 -0.3183  0.2818
 1184ERGO    C216198  18.116  17.963   7.887  0.3641 -0.0006  0.1155
 1185ERGO   ROH16199  12.954  18.489   6.312 -0.0091  0.0030  0.1403
 1185ERGO    R116200  13.066  18.549   6.565  0.1968  0.0095  0.0500
 1185ERGO    R216201  12.941  18.481   6.803  0.2533  0.2578  0.1546
 1185ERGO    R316202  13.179  18.360   6.855  0.1569  0.0281  0.0775
 1185ERGO    R416203  13.038  18.361   7.112  0.1764  0.0114  0.0857
 1185ERGO    R516204  13.239  18.438   7.074  0.2391 -0.1371  0.1146
 1185ERGO    C116205  13.318  18.178   7.341  0.0412 -0.3475 -0.0268
 1185ERGO    C216206  13.431  18.173   7.693 -0.0728 -0.2518  0.0061
 1186ERGO   ROH16207   3.805  12.272   5.930 -0.0685 -0.2092  0.1354
 1186ERGO    R116208   3.738  12.281   6.205 -0.1360 -0.1589  0.1169
 1186ERGO    R216209   3.624  12.068   6.338 -0.1195 -0.1496  0.1375
 1186ERGO    R316210   3.835  12.102   6.506 -0.1696 -0.0659  0.1853
 1186ERGO    R416211   3.673  11.891   6.631  0.1291 -0.4943 -0.1024
 1186ERGO    R516212   3.741  12.076   6.725 -0.1463 -0.5110  0.1562
 1186ERGO    C116213   3.900  11.821   6.960  0.2267 -0.6163 -0.1974
 1186ERGO    C216214   3.984  11.612   7.187 -0.1504 -0.0861 -0.1167
 1187ERGO   ROH16215   2.329   2.023   7.526  0.0889 -0.2360  0.0835
 1187ERGO    R116216   2.388   2.099   7.793  0.0582 -0.2966  0.1088
 1187ERGO    R216217   2.420   2.362   7.869  0.3177 -0.3224  0.1184
 1187ERGO    R316218   2.229   2.299   8.052  0.1620 -0.1149  0.0319
 1187ERGO    R416219   2.402   2.491   8.189  0.1667 -0.1382  0.0374
 1187ERGO    R516220   2.347   2.293   8.260  0.0138 -0.0628  0.1129
 1187ERGO    C116221   2.213   2.506   8.547 -0.0675  0.1639 -0.0910
 1187ERGO    C216222   2.185   2.571   8.976  0.0025 -0.1016 -0.2373
 1188ERGO   ROH16223   4.079   4.752   5.407 -0.0344 -0.0920  0.1531
 1188ERGO    R116224   4.130   4.658   5.668  0.4086 -0.0652  0.0834
 1188ERGO    R216225   4.335   4.758   5.824  0.1756  0.5467  0.0305
 1188ERGO    R316226   4.135   4.799   6.004  0.0991 -0.2043  0.1483
 1188ERGO    R416227   4.382   4.823   6.160  0.1109  0.5855  0.0319
 1188ERGO    R516228   4.213   4.693   6.205  0.5635 -0.0252  0.0707
 1188ERGO    C116229   4.223   4.900   6.525  0.0014 -0.0970  0.1434
 1188ERGO    C216230   4.163   5.080   6.906  0.0997  0.2031  0.0400
 1189ERGO   ROH16231   7.789  11.337   5.512  0.0964 -0.1353 -0.0898
 1189ERGO    R116232   7.931  11.548   5.638  0.0906 -0.1114 -0.1223
 1189ERGO    R216233   7.916  11.595   5.909 -0.0399  0.0323 -0.1513
 1189ERGO    R316234   8.187  11.577   5.895 -0.0370 -0.0565 -0.0015
 1189ERGO    R416235   8.136  11.780   6.101 -0.0807  0.1139 -0.1827
 1189ERGO    R516236   8.263  11.803   5.925  0.0138 -0.0568 -0.1357
 1189ERGO    C116237   8.519  11.870   6.200 -0.1018  0.0783 -0.0603
 1189ERGO    C216238   8.833  11.992   6.389  0.1840  0.2607  0.0802
 1190ERGO   ROH16239  17.115   2.667   6.410  0.3646 -0.2288 -0.1266
 1190ERGO    R116240  17.213   2.606   6.669  0.3791  0.2616 -0.0066
 1190ERGO    R216241  17.215   2.791   6.875 -0.3675  0.4367 -0.1254
 1190ERGO    R316242  17.078   2.597   7.006  0.1417  0.0703 -0.1037
 1190ERGO    R416243  17.188   2.767   7.218 -0.3476  0.4309 -0.1240
 1190ERGO    R516244  17.211   2.551   7.200  0.2533  0.4747 -0.0761
 1190ERGO    C116245  17.043   2.571   7.542  0.1420  0.0836 -0.1029
 1190ERGO    C216246  16.873   2.708   7.818 -0.2175  0.3110  0.1579
 1191ERGO   ROH16247  12.399   0.688   5.930  0.2803  0.1154  0.1129
 1191ERGO    R116248  12.382   0.896   6.121  0.2159  0.0869  0.1397
 1191ERGO    R216249  12.160   0.931   6.283  0.1445  0.0789  0.0569
 1191ERGO    R316250  12.345   0.920   6.482  0.0655  0.0258  0.1267
 1191ERGO    R416251  12.133   1.090   6.589  0.0686  0.0348  0.0728
 1191ERGO    R516252  12.344   1.139   6.577  0.0705  0.0029  0.1613
 1191ERGO    C116253  12.290   1.173   6.953 -0.0496 -0.0408  0.1476
 1191ERGO    C216254  12.423   1.296   7.110  0.1547 -0.0178 -0.0666
 1192ERGO   ROH16255   8.988   2.481   5.803 -0.1479  0.0832 -0.0307
 1192ERGO    R116256   8.928   2.626   6.039 -0.1599 -0.1685  0.1260
 1192ERGO    R216257   9.004   2.538   6.290  0.2736 -0.1983  0.0015
 1192ERGO    R316258   9.118   2.785   6.306 -0.1491  0.0038  0.0147
 1192ERGO    R416259   9.159   2.666   6.571  0.5675 -0.1751 -0.1686
 1192ERGO    R516260   9.067   2.859   6.529  0.1246 -0.2996  0.1810
 1192ERGO    C116261   9.357   2.971   6.750  0.3418  0.0281 -0.2553
 1192ERGO    C216262   9.542   2.930   7.044  0.0988  0.2837 -0.0678
 1193ERGO   ROH16263  17.805   0.074   6.192  0.0089 -0.0545 -0.0270
 1193ERGO    R116264  17.742   0.109   6.466  0.1103 -0.1356  0.0062
 1193ERGO    R216265  17.764  -0.095   6.652  0.4222 -0.1186 -0.0194
 1193ERGO    R316266  17.919   0.086   6.783  0.2956  0.0382 -0.0797
 1193ERGO    R416267  17.797  -0.073   6.995  0.3745  0.0272 -0.0219
 1193ERGO    R516268  17.793   0.143   6.978  0.2321  0.0284 -0.1090
 1193ERGO    C116269  17.962   0.109   7.318  0.2279  0.2594 -0.0801
 1193ERGO    C216270  18.118   0.094   7.590  0.1814 -0.3050 -0.2310
 1194ERGO   ROH16271   6.464  17.664   5.890 -0.0706 -0.2138 -0.0678
 1194ERGO    R116272   6.361  17.493   6.091  0.0754 -0.5589 -0.2776
 1194ERGO    R216273   6.488  17.259   6.166  0.6945 -0.1815 -0.0636
 1194ERGO    R316274   6.473  17.368   6.414 -0.1300 -0.2182 -0.0698
 1194ERGO    R416275   6.526  17.084   6.461  0.6639 -0.0787  0.0017
 1194ERGO    R516276   6.363  17.201   6.546  0.1147 -0.5717 -0.2987
 1194ERGO    C116277   6.535  17.084   6.866 -0.1281 -0.0533  0.0339
 1194ERGO    C216278   6.655  16.936   7.157  0.0630 -0.0393  0.2947
 1195ERGO   ROH16279  17.807  11.066   6.020 -0.0691 -0.1079 -0.1599
 1195ERGO    R116280  17.719  10.996   6.279  0.1269  0.0501 -0.0483
 1195ERGO    R216281  17.613  10.747   6.339 -0.1543  0.2022  0.0986
 1195ERGO    R316282  17.806  10.747   6.530  0.0687 -0.0413 -0.1169
 1195ERGO    R416283  17.590  10.583   6.642 -0.0098  0.2043  0.1120
 1195ERGO    R516284  17.685  10.755   6.737  0.3060  0.0892  0.0240
 1195ERGO    C116285  17.758  10.488   6.998  0.2839 -0.0230 -0.0827
 1195ERGO    C216286  17.792  10.197   7.224 -0.3588  0.2674  0.2967
 1196ERGO   ROH16287   7.622  17.567   6.220  0.0674  0.0413 -0.0577
 1196ERGO    R116288   7.855  17.602   6.377  0.0510 -0.0937 -0.0005
 1196ERGO    R216289   7.991  17.842   6.390  0.1507 -0.1494  0.0864
 1196ERGO    R316290   7.956  17.809   6.658  0.0773 -0.2031  0.0699
 1196ERGO    R416291   8.245  17.844   6.624  0.0894 -0.2801  0.1543
 1196ERGO    R516292   8.145  17.679   6.727  0.0190 -0.2722  0.0892
 1196ERGO    C116293   8.361  17.813   7.011 -0.0153 -0.4065  0.1783
 1196ERGO    C216294   8.288  17.793   7.345  0.3729  0.1213  0.1162
 1197ERGO   ROH16295   3.504   8.167   5.956  0.0813 -0.2078 -0.0724
 1197ERGO    R116296   3.331   8.262   6.159  0.0661 -0.0692 -0.1496
 1197ERGO    R216297   3.362   8.195   6.426 -0.0708 -0.0473 -0.1263
 1197ERGO    R316298   3.363   8.465   6.459  0.0834 -0.0410 -0.1712
 1197ERGO    R416299   3.266   8.359   6.714  0.3088  0.0516 -0.0499
 1197ERGO    R516300   3.168   8.509   6.591  0.2431  0.0707  0.0298
 1197ERGO    C116301   3.210   8.708   6.914  0.6746  0.1152 -0.0475
 1197ERGO    C216302   3.346   8.901   7.077  0.0957 -0.2513 -0.0446
 1198ERGO   ROH16303   9.150  14.804   6.055  0.0265  0.1386  0.0023
 1198ERGO    R116304   9.065  14.669   6.289 -0.1739  0.2669  0.0063
 1198ERGO    R216305   9.240  14.534   6.455 -0.3795 -0.0878 -0.0512
 1198ERGO    R316306   9.129  14.693   6.646 -0.0383  0.1058 -0.0069
 1198ERGO    R416307   9.285  14.496   6.795 -0.3949 -0.2241 -0.0642
 1198ERGO    R516308   9.075  14.543   6.824 -0.3019  0.1843 -0.0204
 1198ERGO    C116309   9.207  14.622   7.173 -0.0836 -0.1218 -0.0303
 1198ERGO    C216310   9.439  14.621   7.411  0.0433 -0.2498 -0.0858
 1199ERGO   ROH16311  10.661   0.806   6.169  0.1246  0.0463  0.0308
 1199ERGO    R116312  10.532   0.902   6.402  0.0872  0.0284  0.0174
 1199ERGO    R216313  10.339   0.756   6.535  0.1272 -0.0186  0.0244
 1199ERGO    R316314  10.501   0.798   6.749  0.1076  0.0514  0.0259
 1199ERGO    R416315  10.238   0.740   6.866  0.1190 -0.0000  0.0230
 1199ERGO    R516316  10.363   0.914   6.907  0.0723  0.0370  0.0050
 1199ERGO    C116317  10.332   0.770   7.259  0.0957  0.0764  0.0236
 1199ERGO    C216318  10.382   0.559   7.519  0.0261  0.0501  0.0097
 1200ERGO   ROH16319   1.286  18.839   5.894 -0.0164  0.0207 -0.0125
 1200ERGO    R116320   1.451  18.835   6.123 -0.0191  0.0656 -0.0086
 1200ERGO    R216321   1.376  18.712   6.359  0.0092  0.0432 -0.0071
 1200ERGO    R316322   1.612  18.581   6.329  0.0443  0.1078 -0.0070
 1200ERGO    R416323   1.562  18.581   6.619  0.0459  0.0898 -0.0108
 1200ERGO    R516324   1.742  18.651   6.517  0.0252  0.1387 -0.0080
 1200ERGO    C116325   1.892  18.382   6.742  0.1001  0.1774 -0.0128
 1200ERGO    C216326   1.975  18.249   6.967 -0.3734 -0.0453 -0.2499
 1201ERGO   ROH16327  15.515   5.548   6.296  0.1193  0.0739 -0.0834
 1201ERGO    R116328  15.592   5.742   6.487  0.0954 -0.0201  0.0237
 1201ERGO    R216329  15.717   5.676   6.724  0.2326 -0.1250 -0.0725
 1201ERGO    R316330  15.903   5.855   6.639  0.1005  0.0350 -0.0294
 1201ERGO    R416331  15.980   5.793   6.916  0.1324  0.0511 -0.0408
 1201ERGO    R516332  15.946   5.991   6.831 -0.0155  0.0374 -0.0075
 1201ERGO    C116333  16.308   6.029   6.947 -0.0499  0.3038  0.0180
 1201ERGO    C216334  16.461   6.108   7.130 -0.0377 -0.0190 -0.0480
 1202ERGO   ROH16335  16.192   2.320   6.184  0.3716  0.0761  0.0070
 1202ERGO    R116336  16.182   2.243   6.456  0.2787  0.0280 -0.0089
 1202ERGO    R216337  16.197   1.980   6.537  0.1233  0.0014 -0.0558
 1202ERGO    R316338  16.402   2.071   6.690  0.1442 -0.1345 -0.0016
 1202ERGO    R416339  16.275   1.863   6.852  0.0813 -0.1732 -0.1092
 1202ERGO    R516340  16.315   2.068   6.913  0.1390 -0.2176 -0.0071
 1202ERGO    C116341  16.513   1.881   7.180  0.0766 -0.4025 -0.0895
 1202ERGO    C216342  16.508   1.811   7.541  0.0185  0.0078  0.1028
 1203ERGO   ROH16343   4.627  12.036   5.852 -0.1087 -0.0935 -0.0127
 1203ERGO    R116344   4.577  11.985   6.126 -0.0522  0.2317  0.0635
 1203ERGO    R216345   4.624  11.739   6.242 -0.6194  0.1689  0.2024
 1203ERGO    R316346   4.773  11.885   6.416 -0.0933 -0.0856 -0.0166
 1203ERGO    R416347   4.673  11.661   6.575 -0.4764  0.2368  0.1963
 1203ERGO    R516348   4.654  11.873   6.623  0.0755  0.3146  0.1091
 1203ERGO    C116349   4.842  11.754   6.932  0.1008  0.0374 -0.0128
 1203ERGO    C216350   4.911  11.576   7.174 -0.1955  0.0055 -0.1062
 1204ERGO   ROH16351  12.964   6.221   6.088 -0.0229  0.0803 -0.0392
 1204ERGO    R116352  13.012   6.217   6.367  0.2506 -0.1046 -0.0840
 1204ERGO    R216353  12.809   6.195   6.553  0.3528  0.4329  0.1162
 1204ERGO    R316354  12.957   5.985   6.642 -0.1333 -0.0176 -0.0834
 1204ERGO    R416355  12.780   6.054   6.867  0.1761  0.3299  0.0549
 1204ERGO    R516356  12.998   6.036   6.872  0.1449 -0.2466 -0.0803
 1204ERGO    C116357  12.903   5.775   7.133 -0.3830 -0.1530 -0.1682
 1204ERGO    C216358  12.786   5.547   7.171  0.0731  0.1746  0.2092
 1205ERGO   ROH16359  17.334   2.296   6.142 -0.1790  0.1102  0.0318
 1205ERGO    R116360  17.356   2.174   6.397 -0.3799  0.0821  0.0379
 1205ERGO    R216361  17.185   1.974   6.481 -0.2716 -0.1345 -0.2337
 1205ERGO    R316362  17.417   1.839   6.524 -0.1690  0.1216  0.0421
 1205ERGO    R416363  17.205   1.643   6.578 -0.0172 -0.1358 -0.2864
 1205ERGO    R516364  17.369   1.697   6.712 -0.2550  0.0238 -0.0553
 1205ERGO    C116365  17.435   1.323   6.675  0.2275  0.1039 -0.0582
 1205ERGO    C216366  17.479   1.051   6.744 -0.3532  0.1968 -0.2622
 1206ERGO   ROH16367  16.540   0.760   6.041  0.1266  0.0161 -0.0056
 1206ERGO    R116368  16.544   0.772   6.324  0.1962 -0.0905 -0.0016
 1206ERGO    R216369  16.313   0.779   6.476  0.2308  0.1597  0.0428
 1206ERGO    R316370  16.426   0.564   6.598 -0.0264 -0.0374 -0.0553
 1206ERGO    R416371  16.207   0.644   6.775  0.1554  0.2385  0.0520
 1206ERGO    R516372  16.415   0.617   6.832  0.1433 -0.0767 -0.0375
 1206ERGO    C116373  16.251   0.364   7.065 -0.1301  0.0994 -0.0346
 1206ERGO    C216374  16.352   0.146   7.204  0.0754  0.1599 -0.1840
 1207ERGO   ROH16375   5.357   0.417   5.772  0.0623  0.0403  0.0195
 1207ERGO    R116376   5.333   0.223   5.976 -0.0983 -0.0262 -0.0618
 1207ERGO    R216377   5.495   0.221   6.199 -0.0773 -0.2732 -0.0813
 1207ERGO    R316378   5.258   0.221   6.332 -0.0639 -0.1113 -0.0536
 1207ERGO    R416379   5.453   0.122   6.528 -0.0506  0.0440  0.0219
 1207ERGO    R516380   5.267   0.025   6.469 -0.0749  0.0130  0.1337
 1207ERGO    C116381   5.205   0.065   6.844 -0.0224  0.3807  0.1080
 1207ERGO    C216382   5.184   0.168   7.126  0.2225  0.2736  0.1758
 1208ERGO   ROH16383  18.399   6.309   6.328  0.0223 -0.0083 -0.0481
 1208ERGO    R116384  18.512   6.218   6.571  0.0313 -0.1767 -0.1146
 1208ERGO    R216385  18.785   6.222   6.618  0.0176 -0.0271 -0.0494
 1208ERGO    R316386  18.711   6.361   6.840 -0.1354 -0.3075  0.0815
 1208ERGO    R416387  19.000   6.316   6.872 -0.0629  0.0465 -0.0079
 1208ERGO    R516388  18.844   6.266   7.016  0.0216 -0.2836 -0.0202
 1208ERGO    C116389  19.056   6.502   7.228 -0.2537 -0.1739  0.1392
 1208ERGO    C216390  19.090   6.570   7.551 -0.1934 -0.0062 -0.0136
 1209ERGO   ROH16391   8.997   1.204   5.943  0.0494 -0.0569  0.0002
 1209ERGO    R116392   8.900   1.103   6.189  0.0484 -0.0160  0.0173
 1209ERGO    R216393   8.889   0.833   6.246 -0.0056 -0.0120  0.0410
 1209ERGO    R316394   9.032   0.906   6.465  0.0308 -0.0223  0.0200
 1209ERGO    R416395   8.876   0.674   6.552  0.0384 -0.0135  0.0417
 1209ERGO    R516396   8.882   0.870   6.648  0.0614 -0.0183  0.0428
 1209ERGO    C116397   9.002   0.650   6.937  0.0983 -0.0240  0.0222
 1209ERGO    C216398   9.167   0.399   7.171 -0.0783 -0.0986 -0.1412
 1210ERGO   ROH16399   7.886  11.661   9.290 -0.1592  0.0461 -0.1143
 1210ERGO    R116400   7.905  11.480   9.074 -0.1628  0.0391 -0.1089
 1210ERGO    R216401   7.689  11.334   8.982 -0.1720  0.0592 -0.1208
 1210ERGO    R316402   7.756  11.446   8.743 -0.1435  0.0478 -0.1183
 1210ERGO    R416403   7.715  11.162   8.683  0.1248 -0.0033 -0.0628
 1210ERGO    R516404   7.892  11.280   8.635  0.0506  0.1304 -0.0044
 1210ERGO    C116405   7.793  11.168   8.285  0.3243 -0.0506 -0.0267
 1210ERGO    C216406   7.894  11.064   7.968 -0.1319 -0.0396 -0.1063
 1211ERGO   ROH16407  17.806  12.465   6.040  0.0620  0.0398 -0.1117
 1211ERGO    R116408  17.597  12.405   6.221  0.0381  0.0978 -0.1208
 1211ERGO    R216409  17.640  12.275   6.461 -0.0189  0.0128 -0.1585
 1211ERGO    R316410  17.511  12.491   6.563  0.0921  0.0503 -0.0945
 1211ERGO    R416411  17.586  12.331   6.797 -0.2483 -0.2142 -0.1538
 1211ERGO    R516412  17.386  12.403   6.748 -0.1457  0.0090 -0.2673
 1211ERGO    C116413  17.433  12.567   7.090 -0.2777 -0.3113 -0.0910
 1211ERGO    C216414  17.361  12.643   7.410 -0.1229 -0.3973 -0.1467
 1212ERGO   ROH16415   7.492  13.023   6.243  0.1356 -0.0918  0.1334
 1212ERGO    R116416   7.607  13.015   6.501  0.0733 -0.0126  0.1640
 1212ERGO    R216417   7.484  13.127   6.722  0.0098  0.0335  0.1038
 1212ERGO    R316418   7.517  12.878   6.827  0.0082  0.0656  0.1802
 1212ERGO    R416419   7.568  13.062   7.051  0.1815  0.1491  0.0834
 1212ERGO    R516420   7.701  12.903   6.979  0.1045  0.0863  0.0672
 1212ERGO    C116421   7.649  12.790   7.340  0.2799  0.2465  0.1434
 1212ERGO    C216422   7.615  12.918   7.637  0.2841 -0.3304 -0.0033
 1213ERGO   ROH16423   4.577   9.056   5.964 -0.0325 -0.4813 -0.0865
 1213ERGO    R116424   4.698   9.095   6.217 -0.0412 -0.2599 -0.1135
 1213ERGO    R216425   4.645   8.932   6.434  0.0337 -0.1407  0.0028
 1213ERGO    R316426   4.915   8.905   6.438  0.0447 -0.0229  0.0068
 1213ERGO    R416427   4.829   8.815   6.702  0.0990  0.0237  0.0300
 1213ERGO    R516428   4.979   8.966   6.660  0.0284  0.0712 -0.0193
 1213ERGO    C116429   5.189   8.721   6.862  0.1474  0.2301  0.0495
 1213ERGO    C216430   5.378   8.644   7.162 -0.1425 -0.0739  0.1900
 1214ERGO   ROH16431   7.728  10.616   5.601  0.1399 -0.0935 -0.0685
 1214ERGO    R116432   7.825  10.477   5.827  0.1231 -0.0377 -0.0269
 1214ERGO    R216433   8.095  10.435   5.872  0.1378  0.2386  0.1599
 1214ERGO    R316434   8.040  10.552   6.111 -0.1604  0.1326  0.1474
 1214ERGO    R416435   8.208  10.320   6.177  0.0116  0.2746  0.2211
 1214ERGO    R516436   8.012  10.367   6.262 -0.1024  0.0690  0.0818
 1214ERGO    C116437   8.223  10.362   6.580 -0.3417  0.1961  0.2449
 1214ERGO    C216438   8.457  10.319   6.803  0.1436 -0.0981  0.1499
 1215ERGO   ROH16439  18.303   7.601   6.056 -0.2174  0.0190 -0.1154
 1215ERGO    R116440  18.228   7.741   6.291  0.1098  0.0314 -0.0146
 1215ERGO    R216441  18.056   7.635   6.479  0.1229  0.1707  0.0695
 1215ERGO    R316442  18.259   7.690   6.650  0.3075 -0.1163 -0.0485
 1215ERGO    R416443  18.049   7.574   6.819  0.1600  0.3029  0.0944
 1215ERGO    R516444  18.150   7.765   6.850  0.5151  0.1532 -0.0227
 1215ERGO    C116445  18.237   7.591   7.178  0.3552  0.1104 -0.0019
 1215ERGO    C216446  18.144   7.489   7.435  0.1693  0.1876  0.1119
 1216ERGO   ROH16447  13.199   9.554   6.002 -0.1474 -0.1245 -0.1228
 1216ERGO    R116448  13.123   9.644   6.260 -0.0946 -0.0384 -0.1363
 1216ERGO    R216449  12.859   9.656   6.341 -0.0769 -0.0553 -0.0695
 1216ERGO    R316450  12.950   9.504   6.547  0.0081  0.0399 -0.0361
 1216ERGO    R416451  12.699   9.618   6.645  0.0624  0.0989  0.0242
 1216ERGO    R516452  12.893   9.628   6.744  0.1062  0.1359 -0.0699
 1216ERGO    C116453  12.691   9.454   7.016  0.2233  0.2781  0.1101
 1216ERGO    C216454  12.564   9.183   7.256 -0.2183 -0.1690  0.0665
 1217ERGO   ROH16455  16.490   4.322   6.271  0.2602 -0.2189 -0.2608
 1217ERGO    R116456  16.661   4.198   6.459  0.2196  0.0690 -0.0268
 1217ERGO    R216457  16.758   4.330   6.681 -0.3016  0.2404  0.1145
 1217ERGO    R316458  16.651   4.119   6.814 -0.1332  0.0555 -0.0369
 1217ERGO    R416459  16.870   4.210   6.986 -0.2728  0.1760  0.0787
 1217ERGO    R516460  16.839   4.008   6.912 -0.0509  0.1850 -0.0463
 1217ERGO    C116461  16.833   3.942   7.288 -0.0981 -0.0351 -0.0842
 1217ERGO    C216462  17.042   3.781   7.622 -0.1762 -0.2044 -0.3539
 1218ERGO   ROH16463   1.089   2.359   5.873  0.0386 -0.2078 -0.2462
 1218ERGO    R116464   1.281   2.283   6.066  0.1021 -0.2617 -0.3300
 1218ERGO    R216465   1.342   2.440   6.285  0.4688 -0.1286 -0.5212
 1218ERGO    R316466   1.283   2.214   6.424  0.3003  0.0671 -0.2631
 1218ERGO    R416467   1.491   2.347   6.582  0.4945  0.0356 -0.4813
 1218ERGO    R516468   1.494   2.141   6.511  0.2666 -0.0478 -0.2722
 1218ERGO    C116469   1.523   2.081   6.886  0.3513  0.3149 -0.2158
 1218ERGO    C216470   1.430   1.898   7.152  0.1385 -0.1655  0.1032
 1219ERGO   ROH16471   4.499  14.901   6.331  0.0200  0.1129  0.0818
 1219ERGO    R116472   4.434  15.176   6.315  0.0673  0.1106 -0.1614
 1219ERGO    R216473   4.355  15.324   6.535 -0.2036  0.2431 -0.3477
 1219ERGO    R316474   4.559  15.487   6.459 -0.0876  0.1824 -0.1771
 1219ERGO    R416475   4.389  15.655   6.628 -0.2639  0.2761 -0.4364
 1219ERGO    R516476   4.456  15.700   6.426 -0.0211  0.1871 -0.3820
 1219ERGO    C116477   4.601  16.000   6.612 -0.1900  0.2384 -0.3278
 1219ERGO    C216478   4.669  16.429   6.581  0.0738  0.3819  0.4374
 1220ERGO   ROH16479   8.924   4.812   5.793 -0.1535 -0.2382 -0.0080
 1220ERGO    R116480   8.846   4.759   6.060 -0.1163 -0.0607  0.0390
 1220ERGO    R216481   9.001   4.612   6.233 -0.1876 -0.1193  0.0483
 1220ERGO    R316482   8.974   4.831   6.393  0.0473 -0.0301 -0.0287
 1220ERGO    R416483   9.102   4.629   6.563 -0.0669 -0.0780  0.0103
 1220ERGO    R516484   8.920   4.741   6.608  0.0372  0.0967  0.0253
 1220ERGO    C116485   9.136   4.845   6.905  0.2239  0.0298 -0.0842
 1220ERGO    C216486   9.324   5.022   7.167  0.2578  0.1894  0.0501
 1221ERGO   ROH16487  11.900  15.238   7.367  0.1919 -0.3066  0.0596
 1221ERGO    R116488  12.060  15.457   7.449  0.0988 -0.2590  0.1188
 1221ERGO    R216489  12.335  15.460   7.421  0.0898 -0.0711 -0.0210
 1221ERGO    R316490  12.287  15.693   7.290 -0.1275 -0.0181  0.1496
 1221ERGO    R416491  12.542  15.736   7.426  0.0082 -0.0086 -0.1187
 1221ERGO    R516492  12.366  15.863   7.439 -0.0139 -0.0694  0.1429
 1221ERGO    C116493  12.618  16.116   7.306 -0.2435  0.0776 -0.0154
 1221ERGO    C216494  12.777  16.418   7.406 -0.0778  0.3042  0.2046
 1222ERGO   ROH16495   1.021   0.936   6.134  0.1071  0.1713 -0.0562
 1222ERGO    R116496   1.030   1.056   6.390  0.0588  0.2808 -0.1057
 1222ERGO    R216497   1.146   0.932   6.609 -0.1339  0.3009  0.0069
 1222ERGO    R316498   1.288   1.163   6.623  0.0147  0.2130 -0.0238
 1222ERGO    R416499   1.296   1.054   6.895 -0.1007  0.2661  0.0050
 1222ERGO    R516500   1.232   1.254   6.837  0.0376  0.2973 -0.0514
 1222ERGO    C116501   1.517   1.341   7.076  0.0581  0.1632 -0.0250
 1222ERGO    C216502   1.702   1.359   7.286 -0.3783 -0.2346 -0.2908
 1223ERGO   ROH16503   6.265   9.360   5.953 -0.0956 -0.0369 -0.0220
 1223ERGO    R116504   6.307   9.159   6.148 -0.1511  0.0041  0.0327
 1223ERGO    R216505   6.557   9.098   6.247 -0.1551 -0.0968 -0.0141
 1223ERGO    R316506   6.437   9.143   6.487 -0.0693  0.0474  0.0030
 1223ERGO    R416507   6.703   9.039   6.555 -0.0508  0.0857 -0.0271
 1223ERGO    R516508   6.512   8.962   6.626 -0.0253  0.1306  0.0864
 1223ERGO    C116509   6.675   9.047   6.960  0.0906  0.3276 -0.0186
 1223ERGO    C216510   6.849   9.132   7.245  0.1441  0.0552  0.0513
 1224ERGO   ROH16511   6.111  11.603   6.628  0.1433  0.3227  0.3107
 1224ERGO    R116512   6.283  11.516   6.835  0.0288  0.1124  0.3201
 1224ERGO    R216513   6.200  11.495   7.098 -0.0683  0.0105  0.2830
 1224ERGO    R316514   6.292  11.240   7.072 -0.2004 -0.0270  0.1714
 1224ERGO    R416515   6.297  11.293   7.361 -0.1136 -0.1327  0.1907
 1224ERGO    R516516   6.464  11.222   7.239 -0.1740 -0.1722  0.1301
 1224ERGO    C116517   6.440  10.936   7.491 -0.2641 -0.2511  0.0322
 1224ERGO    C216518   6.339  10.671   7.694 -0.1182 -0.3136 -0.3189
 1225ERGO   ROH16519   7.976   0.233   6.038  0.2853  0.2029 -0.0838
 1225ERGO    R116520   7.952   0.082   6.276  0.0175  0.1089 -0.1667
 1225ERGO    R216521   8.106   0.133   6.500  0.0050 -0.1927 -0.0883
 1225ERGO    R316522   7.864   0.148   6.623 -0.0215  0.0420 -0.1634
 1225ERGO    R416523   8.059   0.152   6.842 -0.0772 -0.0200 -0.1081
 1225ERGO    R516524   7.890   0.016   6.821 -0.1778  0.0991 -0.1020
 1225ERGO    C116525   7.804   0.178   7.156 -0.1500  0.3009 -0.1901
 1225ERGO    C216526   7.727   0.176   7.524 -0.1121  0.0232  0.1435
 1226ERGO   ROH16527   3.930   5.832   5.664  0.1712 -0.0980 -0.1586
 1226ERGO    R116528   4.046   5.863   5.920  0.1574 -0.0691 -0.1559
 1226ERGO    R216529   4.272   5.726   5.999  0.2104  0.0127 -0.1627
 1226ERGO    R316530   4.365   5.975   6.054  0.1139  0.0457 -0.1475
 1226ERGO    R416531   4.507   5.801   6.242  0.1482  0.0971 -0.1282
 1226ERGO    R516532   4.391   5.979   6.292  0.0781  0.0551 -0.1443
 1226ERGO    C116533   4.730   6.079   6.435  0.0214  0.1771 -0.0937
 1226ERGO    C216534   4.931   6.065   6.626 -0.0231  0.0642 -0.1079
 1227ERGO   ROH16535   6.473  18.744   5.723 -0.2201  0.0673 -0.0655
 1227ERGO    R116536   6.433  18.735   6.003  0.0574 -0.0129 -0.0253
 1227ERGO    R216537   6.190  18.666   6.116  0.1381  0.0665  0.1917
 1227ERGO    R316538   6.341  18.484   6.249  0.1830 -0.0560 -0.0205
 1227ERGO    R416539   6.077  18.468   6.376  0.2518 -0.0672  0.1408
 1227ERGO    R516540   6.268  18.500   6.477  0.3302 -0.1766  0.0411
 1227ERGO    C116541   6.154  18.181   6.652  0.3602 -0.2601 -0.0880
 1227ERGO    C216542   6.200  18.020   6.902  0.0150 -0.0230  0.0876
 1228ERGO   ROH16543  12.881   1.956   6.020 -0.2167  0.0700  0.1231
 1228ERGO    R116544  12.853   2.002   6.298 -0.2333 -0.0759  0.1471
 1228ERGO    R216545  12.801   2.252   6.404  0.0598 -0.0702  0.2992
 1228ERGO    R316546  12.592   2.123   6.521 -0.1403  0.1161  0.1506
 1228ERGO    R416547  12.582   2.396   6.629  0.1457  0.0664  0.2949
 1228ERGO    R516548  12.586   2.211   6.744 -0.1202 -0.0012  0.1940
 1228ERGO    C116549  12.258   2.359   6.870  0.0080  0.3208  0.1529
 1228ERGO    C216550  11.931   2.292   7.044  0.3495  0.0524 -0.0911
 1229ERGO   ROH16551  17.131  14.983   6.044  0.1604 -0.1133 -0.0900
 1229ERGO    R116552  16.988  14.982   6.289  0.2376  0.2325 -0.0392
 1229ERGO    R216553  16.910  14.748   6.414 -0.2282  0.4169  0.0159
 1229ERGO    R316554  17.043  14.855   6.626  0.0790  0.1593 -0.0373
 1229ERGO    R416555  16.906  14.618   6.734 -0.3610  0.4023  0.0094
 1229ERGO    R516556  16.894  14.822   6.811  0.0732  0.4443  0.0230
 1229ERGO    C116557  17.028  14.643   7.119 -0.1501  0.1520 -0.0443
 1229ERGO    C216558  17.115  14.493   7.349  0.2241 -0.2926 -0.2482
 1230ERGO   ROH16559  12.288   1.063   5.669  0.0550  0.0814  0.0940
 1230ERGO    R116560  12.239   1.293   5.827  0.1201  0.0695  0.1310
 1230ERGO    R216561  12.007   1.326   5.973  0.0375  0.2031 -0.0308
 1230ERGO    R316562  12.180   1.364   6.179 -0.0825  0.0016  0.1129
 1230ERGO    R416563  11.914   1.396   6.299 -0.1526  0.0803 -0.0560
 1230ERGO    R516564  12.080   1.538   6.310 -0.0811 -0.0118  0.1340
 1230ERGO    C116565  12.023   1.473   6.681 -0.3761 -0.1803  0.0642
 1230ERGO    C216566  11.905   1.488   6.970  0.2052  0.0149  0.0874
 1231ERGO   ROH16567  12.377   7.747   5.651  0.2195 -0.0913 -0.1476
 1231ERGO    R116568  12.500   7.723   5.905  0.3386 -0.0951 -0.2053
 1231ERGO    R216569  12.374   7.609   6.122  0.2890  0.2591 -0.0417
 1231ERGO    R316570  12.595   7.452   6.128  0.0545 -0.0837 -0.0663
 1231ERGO    R416571  12.444   7.377   6.368  0.1166  0.3891  0.1335
 1231ERGO    R516572  12.653   7.439   6.361  0.2157  0.0603 -0.0958
 1231ERGO    C116573  12.693   7.094   6.517 -0.2039  0.1431  0.2125
 1231ERGO    C216574  12.838   6.909   6.595 -0.0136  0.2676  0.1420
 1232ERGO   ROH16575   0.570   7.622   6.218  0.0254  0.0025 -0.2656
 1232ERGO    R116576   0.790   7.570   6.389 -0.0424 -0.1026 -0.2090
 1232ERGO    R216577   1.037   7.493   6.294  0.0007 -0.0292 -0.1592
 1232ERGO    R316578   1.124   7.706   6.440 -0.0675 -0.1218  0.0187
 1232ERGO    R416579   1.341   7.509   6.458  0.1316  0.0449 -0.4028
 1232ERGO    R516580   1.240   7.607   6.625  0.1823 -0.2422 -0.1950
 1232ERGO    C116581   1.599   7.717   6.691  0.1438  0.0011 -0.3776
 1232ERGO    C216582   1.862   7.828   6.708 -0.2209 -0.1975  0.2660
 1233ERGO   ROH16583  16.144   3.236   6.076 -0.0358  0.2954  0.2628
 1233ERGO    R116584  16.158   3.131   6.339  0.0415  0.1158  0.1880
 1233ERGO    R216585  16.384   3.151   6.495 -0.0153  0.2832  0.2457
 1233ERGO    R316586  16.212   3.262   6.674 -0.1915 -0.0647  0.3000
 1233ERGO    R416587  16.407   3.117   6.838  0.0616  0.1728  0.2300
 1233ERGO    R516588  16.190   3.096   6.846  0.0852 -0.1809  0.2330
 1233ERGO    C116589  16.258   3.201   7.206 -0.0592 -0.2181  0.2719
 1233ERGO    C216590  16.275   3.137   7.616 -0.2035  0.0912  0.2308
 1234ERGO   ROH16591   6.482   7.665   5.563 -0.0446 -0.0203  0.0245
 1234ERGO    R116592   6.666   7.531   5.731 -0.0544 -0.1020 -0.0266
 1234ERGO    R216593   6.761   7.641   5.966  0.2445 -0.0392 -0.1610
 1234ERGO    R316594   6.669   7.409   6.074  0.0707  0.1254  0.0522
 1234ERGO    R416595   6.868   7.507   6.266  0.3113  0.0177 -0.1606
 1234ERGO    R516596   6.863   7.309   6.173  0.0268 -0.0289 -0.0317
 1234ERGO    C116597   6.846   7.210   6.541  0.1870  0.2053  0.0396
 1234ERGO    C216598   6.925   7.180   6.896  0.1371 -0.2110 -0.3232
 1235ERGO   ROH16599   2.521  18.119   6.152  0.0143 -0.0181 -0.0813
 1235ERGO    R116600   2.624  18.105   6.416 -0.0015  0.0010 -0.0743
 1235ERGO    R216601   2.697  18.329   6.560 -0.0471  0.0135 -0.0723
 1235ERGO    R316602   2.525  18.227   6.744 -0.0430 -0.0112 -0.0820
 1235ERGO    R416603   2.686  18.421   6.893 -0.0294 -0.0411 -0.0564
 1235ERGO    R516604   2.655  18.212   6.945 -0.0346 -0.0492 -0.0898
 1235ERGO    C116605   2.520  18.378   7.260 -0.0152 -0.0961 -0.0562
 1235ERGO    C216606   2.272  18.489   7.377 -0.0389 -0.0156 -0.1217
 1236ERGO   ROH16607  17.161  16.819   6.319 -0.2253  0.0140  0.0065
 1236ERGO    R116608  17.155  16.774   6.598 -0.0356 -0.1286 -0.0093
 1236ERGO    R216609  16.965  16.888   6.763  0.2190 -0.0114  0.2184
 1236ERGO    R316610  16.921  16.630   6.838  0.0112 -0.0087  0.1075
 1236ERGO    R416611  16.853  16.789   7.075  0.4075 -0.0762  0.2661
 1236ERGO    R516612  16.992  16.621   7.066  0.2186 -0.2222  0.0350
 1236ERGO    C116613  16.746  16.489   7.326  0.3223 -0.1113  0.1899
 1236ERGO    C216614  16.700  16.468   7.698  0.0225  0.2455  0.2914
 1237ERGO   ROH16615  16.970  10.464   5.788 -0.0730 -0.0643  0.0873
 1237ERGO    R116616  16.797  10.308   5.950 -0.2834  0.1329  0.0551
 1237ERGO    R216617  16.890  10.112   6.121 -0.5519 -0.1041 -0.0735
 1237ERGO    R316618  16.748  10.252   6.306 -0.2788  0.0321  0.0422
 1237ERGO    R416619  16.843  10.014   6.449 -0.5144 -0.1577 -0.0832
 1237ERGO    R516620  16.636  10.083   6.434 -0.4416  0.1261  0.0387
 1237ERGO    C116621  16.681  10.087   6.813 -0.2364 -0.0612  0.0200
 1237ERGO    C216622  16.788   9.946   7.125 -0.3998 -0.0287  0.0438
 1238ERGO   ROH16623   4.694  17.177   5.762  0.0121 -0.2927  0.0406
 1238ERGO    R116624   4.767  17.222   6.032  0.0790 -0.0942 -0.0090
 1238ERGO    R216625   4.856  17.468   6.123 -0.0682  0.0240 -0.1727
 1238ERGO    R316626   4.655  17.437   6.303  0.0187 -0.0309 -0.0842
 1238ERGO    R416627   4.829  17.640   6.421 -0.0237  0.0657 -0.1929
 1238ERGO    R516628   4.762  17.457   6.516  0.0959  0.0548 -0.1314
 1238ERGO    C116629   4.625  17.713   6.763  0.0839  0.0385 -0.1216
 1238ERGO    C216630   4.632  17.936   6.912  0.2972 -0.4838 -0.1728
 1239ERGO   ROH16631  12.684   0.385   6.089  0.0712 -0.3185  0.2625
 1239ERGO    R116632  12.534   0.471   6.313  0.0549 -0.1629  0.1930
 1239ERGO    R216633  12.569   0.363   6.565  0.0571  0.0322  0.2756
 1239ERGO    R316634  12.606   0.623   6.636  0.0269  0.0905  0.0831
 1239ERGO    R416635  12.568   0.482   6.890  0.2928  0.2251  0.2090
 1239ERGO    R516636  12.457   0.656   6.820  0.1693  0.1463  0.1930
 1239ERGO    C116637  12.602   0.795   7.145  0.4017  0.3922 -0.0105
 1239ERGO    C216638  12.566   0.860   7.440  0.0743  0.1619 -0.0084
 1240ERGO   ROH16639   1.097   5.039   6.042 -0.2905 -0.0720 -0.0880
 1240ERGO    R116640   1.132   4.786   6.165 -0.0231 -0.0739 -0.1606
 1240ERGO    R216641   1.381   4.688   6.235  0.0665  0.2794  0.0398
 1240ERGO    R316642   1.265   4.662   6.480 -0.1381  0.0027 -0.0804
 1240ERGO    R416643   1.493   4.478   6.486 -0.1434 -0.0102 -0.1023
 1240ERGO    R516644   1.286   4.430   6.532 -0.1860 -0.0609 -0.3284
 1240ERGO    C116645   1.450   4.332   6.862 -0.4577 -0.4386 -0.2979
 1240ERGO    C216646   1.773   4.376   7.221 -0.0600  0.0610 -0.3606
 1241ERGO   ROH16647   2.866  12.738   6.184  0.0880  0.0871  0.0166
 1241ERGO    R116648   2.971  12.871   6.411  0.1062  0.0760  0.0135
 1241ERGO    R216649   2.930  13.140   6.458 -0.0139  0.0366  0.1039
 1241ERGO    R316650   2.837  13.051   6.697  0.1259 -0.0730  0.1203
 1241ERGO    R416651   2.950  13.315   6.755 -0.1284  0.0564  0.1014
 1241ERGO    R516652   2.998  13.129   6.856  0.0888  0.0934  0.0871
 1241ERGO    C116653   2.875  13.334   7.153 -0.0638 -0.0348  0.1152
 1241ERGO    C216654   2.711  13.402   7.471  0.0889  0.1530  0.1266
 1242ERGO   ROH16655  11.759   5.544   5.668  0.1152 -0.2820 -0.0792
 1242ERGO    R116656  11.861   5.414   5.898  0.0576 -0.1172  0.0421
 1242ERGO    R216657  11.757   5.456   6.151 -0.1127 -0.0550 -0.0345
 1242ERGO    R316658  11.732   5.186   6.151  0.0398 -0.0702  0.0748
 1242ERGO    R416659  11.687   5.265   6.430 -0.1456  0.0284  0.0147
 1242ERGO    R516660  11.831   5.117   6.358 -0.0270  0.0768  0.1548
 1242ERGO    C116661  11.622   4.899   6.592 -0.0217  0.0626  0.1458
 1242ERGO    C216662  11.571   4.655   6.818 -0.1659  0.2128  0.2950
 1243ERGO   ROH16663  15.818   6.893   6.036  0.2043 -0.1421  0.0862
 1243ERGO    R116664  15.704   6.888   6.295  0.0599 -0.0561  0.0259
 1243ERGO    R216665  15.855   6.926   6.524 -0.0524 -0.0669  0.1008
 1243ERGO    R316666  15.671   7.120   6.573 -0.0131  0.0058 -0.0339
 1243ERGO    R416667  15.791   7.068   6.833 -0.0691  0.1132  0.0163
 1243ERGO    R516668  15.579   7.065   6.786 -0.0633  0.1411 -0.0183
 1243ERGO    C116669  15.581   7.332   7.058 -0.0420  0.2863 -0.1594
 1243ERGO    C216670  15.622   7.533   7.319  0.4194  0.1622 -0.0572
 1244ERGO   ROH16671  11.610   2.390   5.324 -0.0548 -0.0289 -0.1594
 1244ERGO    R116672  11.581   2.281   5.584 -0.0270  0.0206 -0.1370
 1244ERGO    R216673  11.797   2.238   5.752 -0.0246  0.1557 -0.1141
 1244ERGO    R316674  11.652   2.389   5.924 -0.1021  0.1294 -0.1536
 1244ERGO    R416675  11.769   2.180   6.091  0.0802  0.2719 -0.0837
 1244ERGO    R516676  11.558   2.232   6.078  0.0346  0.1206 -0.0710
 1244ERGO    C116677  11.616   2.288   6.451  0.0686  0.3149 -0.1031
 1244ERGO    C216678  11.509   2.165   6.722 -0.0924 -0.0125  0.3073
 1245ERGO   ROH16679  16.756  17.255   6.529  0.0719  0.1580  0.2154
 1245ERGO    R116680  16.678  17.240   6.801  0.0788  0.0502  0.2124
 1245ERGO    R216681  16.435  17.334   6.891  0.1612  0.2012  0.2889
 1245ERGO    R316682  16.412  17.082   6.992 -0.0433  0.1530  0.1268
 1245ERGO    R416683  16.256  17.251   7.175  0.1917  0.1764  0.3006
 1245ERGO    R516684  16.417  17.113   7.229  0.0785 -0.0160  0.1457
 1245ERGO    C116685  16.130  16.967   7.435  0.0173  0.1168  0.1553
 1245ERGO    C216686  15.835  17.090   7.642  0.0955 -0.0879  0.1725
 1246ERGO   ROH16687  12.561  12.944   5.880  0.0909  0.0045  0.0772
 1246ERGO    R116688  12.681  12.963   6.136  0.0346  0.1107  0.0971
 1246ERGO    R216689  12.556  13.083   6.350 -0.0770  0.0687  0.0620
 1246ERGO    R316690  12.608  12.846   6.472  0.0403  0.1125  0.0972
 1246ERGO    R416691  12.599  13.042   6.691 -0.2490  0.0977  0.0877
 1246ERGO    R516692  12.761  12.902   6.648 -0.1136  0.2308  0.1893
 1246ERGO    C116693  12.672  12.795   7.004 -0.2389  0.1556  0.1356
 1246ERGO    C216694  12.910  12.657   7.180  0.1691  0.0447 -0.1996
 1247ERGO   ROH16695  10.689  11.580   6.085 -0.1891 -0.1246  0.0344
 1247ERGO    R116696  10.644  11.624   6.361 -0.1086 -0.0087  0.0299
 1247ERGO    R216697  10.608  11.416   6.541 -0.1157  0.0685  0.1172
 1247ERGO    R316698  10.812  11.539   6.672 -0.0516  0.0673  0.0205
 1247ERGO    R416699  10.643  11.430   6.884  0.0166  0.1146  0.1027
 1247ERGO    R516700  10.709  11.636   6.865  0.0309  0.1062  0.0465
 1247ERGO    C116701  10.854  11.553   7.208  0.1537  0.1405  0.0035
 1247ERGO    C216702  11.139  11.622   7.538  0.1033 -0.1661 -0.0270
 1248ERGO   ROH16703   5.344   5.885   5.548 -0.1742  0.0487  0.0867
 1248ERGO    R116704   5.390   5.735   5.783 -0.1616 -0.0855 -0.0024
 1248ERGO    R216705   5.640   5.639   5.852 -0.1476 -0.0439 -0.0281
 1248ERGO    R316706   5.590   5.771   6.085 -0.2218 -0.2151  0.0566
 1248ERGO    R416707   5.822   5.601   6.143  0.0480  0.0561 -0.1339
 1248ERGO    R516708   5.635   5.608   6.255  0.0775 -0.2474 -0.0390
 1248ERGO    C116709   5.882   5.702   6.531  0.0923 -0.0464 -0.1159
 1248ERGO    C216710   5.994   5.901   6.805 -0.1961  0.3432  0.3603
 1249ERGO   ROH16711  16.230  15.788   6.135  0.2097 -0.1464  0.0039
 1249ERGO    R116712  16.370  15.648   6.337  0.1636 -0.0879  0.0770
 1249ERGO    R216713  16.492  15.775   6.550  0.0125 -0.0359  0.1324
 1249ERGO    R316714  16.341  15.603   6.697  0.0044 -0.0871  0.0654
 1249ERGO    R416715  16.539  15.709   6.886 -0.2571  0.1570  0.2116
 1249ERGO    R516716  16.498  15.498   6.845 -0.0525  0.1033  0.2656
 1249ERGO    C116717  16.425  15.509   7.219 -0.4219  0.2213  0.1948
 1249ERGO    C216718  16.538  15.426   7.575  0.1771 -0.1476 -0.2886
 1250ERGO   ROH16719  15.057  15.446   5.702 -0.0100 -0.0385  0.0814
 1250ERGO    R116720  15.190  15.379   5.942 -0.0622 -0.1185  0.0882
 1250ERGO    R216721  15.353  15.557   6.078  0.0659 -0.2270  0.0772
 1250ERGO    R316722  15.190  15.496   6.287  0.0192 -0.0933  0.0806
 1250ERGO    R416723  15.438  15.591   6.411  0.1818 -0.4782  0.0751
 1250ERGO    R516724  15.336  15.402   6.451 -0.0706 -0.3630  0.0143
 1250ERGO    C116725  15.334  15.553   6.801  0.2055 -0.4989  0.0769
 1250ERGO    C216726  15.327  15.676   7.079  0.2156 -0.1654 -0.1647
 1251ERGO   ROH16727  10.473   7.583   6.090  0.1933 -0.0207  0.2088
 1251ERGO    R116728  10.322   7.752   6.259  0.0974 -0.0132  0.1184
 1251ERGO    R216729  10.091   7.668   6.385  0.1629 -0.0908  0.1987
 1251ERGO    R316730  10.221   7.753   6.608  0.1369  0.1363  0.1286
 1251ERGO    R416731   9.938   7.748   6.685  0.1441  0.1390  0.1291
 1251ERGO    R516732  10.074   7.917   6.704  0.1012  0.1856 -0.0158
 1251ERGO    C116733   9.971   7.874   7.069  0.1086  0.4860  0.0228
 1251ERGO    C216734   9.852   7.782   7.306  0.0426  0.1131 -0.0028
 1252ERGO   ROH16735  12.160   2.607   5.877 -0.2027  0.2810  0.0216
 1252ERGO    R116736  11.972   2.683   6.075 -0.1687  0.2659  0.0595
 1252ERGO    R216737  11.939   2.542   6.310 -0.1470  0.2328  0.0413
 1252ERGO    R316738  11.983   2.785   6.424 -0.1122  0.2114  0.0742
 1252ERGO    R416739  11.908   2.610   6.647  0.0292  0.1481  0.0756
 1252ERGO    R516740  11.816   2.801   6.596 -0.0220  0.1512  0.1699
 1252ERGO    C116741  11.931   2.877   6.951  0.1645  0.0787  0.1265
 1252ERGO    C216742  12.097   2.784   7.276  0.0132 -0.1725  0.1451
 1253ERGO   ROH16743   6.485  13.308   6.342 -0.0492 -0.2542  0.0166
 1253ERGO    R116744   6.555  13.332   6.616  0.0352 -0.0952 -0.0179
 1253ERGO    R216745   6.651  13.568   6.724 -0.0421  0.0041 -0.1582
 1253ERGO    R316746   6.446  13.532   6.900  0.0351 -0.0193 -0.0718
 1253ERGO    R416747   6.661  13.652   7.059  0.0915 -0.0186 -0.1556
 1253ERGO    R516748   6.553  13.468   7.104  0.1231 -0.0257 -0.1215
 1253ERGO    C116749   6.474  13.668   7.419  0.2418 -0.0538 -0.0731
 1253ERGO    C216750   6.528  13.939   7.655  0.0819 -0.1141  0.0958
 1254ERGO   ROH16751   7.982   5.056   5.930 -0.1770  0.2865 -0.0860
 1254ERGO    R116752   7.977   5.126   6.204 -0.1457  0.1149 -0.0374
 1254ERGO    R216753   8.095   5.357   6.301  0.0706 -0.0466  0.1362
 1254ERGO    R316754   7.848   5.401   6.404  0.0917  0.1158  0.1110
 1254ERGO    R416755   8.022   5.584   6.551  0.1455  0.0831  0.0381
 1254ERGO    R516756   7.886   5.439   6.637  0.0825  0.1954  0.0876
 1254ERGO    C116757   7.748   5.758   6.793  0.2089  0.3111 -0.0427
 1254ERGO    C216758   7.416   5.828   6.920 -0.2200  0.0836  0.1212
 1255ERGO   ROH16759   4.253  11.190   5.682  0.0341 -0.0071  0.0451
 1255ERGO    R116760   4.059  11.078   5.854 -0.1198  0.1884  0.0031
 1255ERGO    R216761   4.125  10.903   6.059 -0.3650 -0.0998 -0.1564
 1255ERGO    R316762   3.989  11.082   6.211 -0.0127  0.0210  0.0274
 1255ERGO    R416763   3.877  10.822   6.285 -0.4100  0.1447 -0.1144
 1255ERGO    R516764   3.765  10.997   6.219 -0.1556  0.3793  0.0552
 1255ERGO    C116765   3.605  10.942   6.560 -0.1055  0.4003  0.0825
 1255ERGO    C216766   3.566  10.854   6.846 -0.2745 -0.2645  0.1340
 1256ERGO   ROH16767   1.705   8.436   6.349 -0.1473 -0.0948  0.0705
 1256ERGO    R116768   1.546   8.384   6.577 -0.2302 -0.3304 -0.0405
 1256ERGO    R216769   1.539   8.137   6.700  0.3848 -0.2374  0.1941
 1256ERGO    R316770   1.603   8.282   6.922 -0.2633  0.1907  0.1321
 1256ERGO    R416771   1.484   8.033   7.025  0.5764 -0.2213  0.2344
 1256ERGO    R516772   1.423   8.237   7.075 -0.2195 -0.3702  0.0529
 1256ERGO    C116773   1.512   8.107   7.423  0.0796  0.1900  0.1997
 1256ERGO    C216774   1.649   7.863   7.567 -0.3304 -0.0540  0.0312
 1257ERGO   ROH16775   5.150   1.203   6.075  0.0394 -0.0582  0.0155
 1257ERGO    R116776   5.294   1.127   6.306  0.0324  0.0074  0.0417
 1257ERGO    R216777   5.330   1.297   6.521 -0.0160  0.0518  0.0160
 1257ERGO    R316778   5.223   1.090   6.661  0.0072  0.0573  0.0416
 1257ERGO    R416779   5.270   1.298   6.862  0.2333 -0.0134  0.0618
 1257ERGO    R516780   5.340   1.092   6.870  0.1608 -0.0417 -0.0428
 1257ERGO    C116781   5.135   1.105   7.191  0.4002 -0.0463  0.1125
 1257ERGO    C216782   5.011   1.354   7.369 -0.0796 -0.0772  0.0418
 1258ERGO   ROH16783   7.656   6.979   6.062  0.3715 -0.0054 -0.2240
 1258ERGO    R116784   7.745   7.020   6.328 -0.0269 -0.0341 -0.0791
 1258ERGO    R216785   7.655   6.868   6.540 -0.0109 -0.3649 -0.3034
 1258ERGO    R316786   7.921   6.826   6.581  0.0292  0.0991 -0.0139
 1258ERGO    R416787   7.791   6.718   6.820 -0.1102 -0.5595 -0.3587
 1258ERGO    R516788   7.952   6.865   6.815 -0.3797 -0.2166  0.1056
 1258ERGO    C116789   8.119   6.591   7.021 -0.1303 -0.2373 -0.1190
 1258ERGO    C216790   8.298   6.388   7.047 -0.0879 -0.1063  0.2362
 1259ERGO   ROH16791  12.912   8.499   5.844  0.1254  0.0233 -0.0183
 1259ERGO    R116792  13.105   8.463   6.047  0.0603 -0.1614  0.0120
 1259ERGO    R216793  13.102   8.608   6.283  0.2146 -0.0882 -0.0322
 1259ERGO    R316794  13.106   8.361   6.396 -0.1056 -0.0639  0.0427
 1259ERGO    R416795  13.085   8.546   6.622  0.3773  0.0566  0.0039
 1259ERGO    R516796  13.234   8.389   6.596  0.1040 -0.2046 -0.0655
 1259ERGO    C116797  13.079   8.279   6.927  0.1718  0.1637  0.0952
 1259ERGO    C216798  12.901   8.207   7.165 -0.0604 -0.4518  0.0174
 1260ERGO   ROH16799  10.184  14.221   5.934 -0.0257 -0.0372 -0.0112
 1260ERGO    R116800  10.118  14.152   6.201  0.1552 -0.2281 -0.0157
 1260ERGO    R216801  10.309  14.076   6.386  0.3588  0.2401 -0.0341
 1260ERGO    R316802  10.197  14.276   6.534 -0.1499 -0.0471 -0.0039
 1260ERGO    R416803  10.298  14.084   6.731  0.5846  0.2582 -0.0247
 1260ERGO    R516804  10.095  14.163   6.718  0.3088 -0.3444  0.0954
 1260ERGO    C116805  10.187  14.276   7.071  0.2385 -0.0010  0.0091
 1260ERGO    C216806  10.141  14.211   7.342  0.0610 -0.0917 -0.0157
 1261ERGO   ROH16807  17.008   7.013   6.381  0.0701 -0.2218  0.0572
 1261ERGO    R116808  17.054   7.006   6.660 -0.0471 -0.1863  0.0776
 1261ERGO    R216809  17.211   7.193   6.789  0.0197 -0.2569  0.0961
 1261ERGO    R316810  16.990   7.226   6.943 -0.0230 -0.0790  0.0013
 1261ERGO    R416811  17.167   7.447   7.019 -0.0376  0.0059 -0.1981
 1261ERGO    R516812  17.075   7.302   7.154 -0.0776  0.1558 -0.0581
 1261ERGO    C116813  16.933   7.626   7.298 -0.1109  0.3260 -0.4585
 1261ERGO    C216814  16.912   7.896   7.564  0.5272 -0.2723 -0.1213
 1262ERGO   ROH16815   1.219  16.824   6.222  0.2121  0.1345  0.0391
 1262ERGO    R116816   1.202  16.625   6.422  0.0611  0.0982 -0.0088
 1262ERGO    R216817   1.420  16.477   6.504 -0.0311 -0.0250  0.0205
 1262ERGO    R316818   1.348  16.566   6.750 -0.0575 -0.0431  0.0192
 1262ERGO    R416819   1.439  16.291   6.795 -0.1017 -0.0587  0.0037
 1262ERGO    R516820   1.248  16.375   6.856 -0.0989 -0.0403 -0.0169
 1262ERGO    C116821   1.383  16.266   7.196 -0.1675 -0.0954 -0.0073
 1262ERGO    C216822   1.449  15.976   7.412 -0.1034 -0.0769  0.0409
 1263ERGO   ROH16823   7.904   4.089   5.881 -0.0467  0.3417 -0.0241
 1263ERGO    R116824   7.935   4.075   6.163 -0.1820  0.1226 -0.0161
 1263ERGO    R216825   8.064   4.272   6.309  0.1697 -0.2033  0.1486
 1263ERGO    R316826   7.832   4.273   6.450  0.1017  0.1844  0.0432
 1263ERGO    R416827   8.041   4.306   6.652  0.0489 -0.1296  0.1322
 1263ERGO    R516828   7.884   4.155   6.651 -0.1896  0.1253  0.0796
 1263ERGO    C116829   7.809   4.326   6.984 -0.0852  0.2772  0.0236
 1263ERGO    C216830   7.676   4.693   7.123 -0.1758  0.1561  0.1844
 1264ERGO   ROH16831   3.615  16.548   5.858 -0.1758 -0.1947 -0.0768
 1264ERGO    R116832   3.688  16.610   6.124 -0.2003 -0.1316 -0.0855
 1264ERGO    R216833   3.896  16.781   6.185 -0.2070 -0.1209 -0.1081
 1264ERGO    R316834   3.706  16.910   6.330 -0.2169 -0.0829 -0.1531
 1264ERGO    R416835   3.961  16.987   6.454 -0.2223 -0.0916 -0.1261
 1264ERGO    R516836   3.788  16.901   6.555 -0.2479 -0.0627 -0.1386
 1264ERGO    C116837   3.820  17.229   6.748 -0.2404 -0.0388 -0.1788
 1264ERGO    C216838   3.672  17.438   7.106  0.0062 -0.1569 -0.2227
 1265ERGO   ROH16839   3.814   1.229   5.946 -0.0527  0.0668  0.0620
 1265ERGO    R116840   3.926   1.323   6.188 -0.0942  0.0027  0.1077
 1265ERGO    R216841   3.981   1.591   6.233  0.0056 -0.0191  0.1469
 1265ERGO    R316842   3.827   1.553   6.453 -0.0890  0.0266  0.0872
 1265ERGO    R416843   4.023   1.754   6.534 -0.0191 -0.0896  0.1875
 1265ERGO    R516844   3.979   1.567   6.637 -0.1496 -0.0798  0.1425
 1265ERGO    C116845   3.901   1.814   6.917 -0.1223 -0.0877  0.1552
 1265ERGO    C216846   3.790   2.148   7.107 -0.4801  0.0246  0.1292
 1266ERGO   ROH16847   7.156   2.549   5.856 -0.0113  0.2661 -0.0395
 1266ERGO    R116848   6.967   2.516   6.065  0.2187 -0.0110  0.1333
 1266ERGO    R216849   7.019   2.592   6.325  0.2204  0.4106  0.0220
 1266ERGO    R316850   6.788   2.733   6.296 -0.1846 -0.2185  0.0214
 1266ERGO    R416851   6.841   2.734   6.585  0.3491  0.7092 -0.0492
 1266ERGO    R516852   6.657   2.670   6.487  0.3051 -0.0215  0.4411
 1266ERGO    C116853   6.521   2.948   6.710  0.0439  0.2926 -0.0913
 1266ERGO    C216854   6.455   3.213   6.978 -0.0782 -0.0191  0.3481
 1267ERGO   ROH16855   8.751  15.989   5.835  0.0773 -0.1422 -0.0233
 1267ERGO    R116856   8.633  15.925   6.084 -0.1508  0.0029 -0.0914
 1267ERGO    R216857   8.782  15.871   6.310 -0.3393 -0.3995 -0.0583
 1267ERGO    R316858   8.629  16.067   6.419  0.0239 -0.1157 -0.0364
 1267ERGO    R416859   8.779  15.958   6.645 -0.1645 -0.4298 -0.0475
 1267ERGO    R516860   8.563  15.981   6.632 -0.1341 -0.0233 -0.0422
 1267ERGO    C116861   8.633  16.193   6.941  0.2782 -0.1808 -0.0207
 1267ERGO    C216862   8.589  16.556   7.157  0.0556  0.0514 -0.0512
 1268ERGO   ROH16863  14.232   3.488   7.172 -0.0993  0.0035 -0.1750
 1268ERGO    R116864  14.144   3.519   7.440  0.1799 -0.2470 -0.0499
 1268ERGO    R216865  13.887   3.597   7.504  0.3884  0.1877  0.2734
 1268ERGO    R316866  13.890   3.369   7.653  0.0367 -0.0734 -0.0919
 1268ERGO    R416867  13.671   3.529   7.765  0.5021  0.2899  0.3961
 1268ERGO    R516868  13.839   3.443   7.875  0.4487 -0.2822  0.0919
 1268ERGO    C116869  13.549   3.276   8.058  0.2382  0.1042  0.1248
 1268ERGO    C216870  13.332   3.316   8.275 -0.0468  0.0197  0.1434
 1269ERGO   ROH16871   0.393  14.012   6.311  0.1269 -0.0798  0.2465
 1269ERGO    R116872   0.369  14.013   6.593  0.0309  0.0670  0.2385
 1269ERGO    R216873   0.207  14.192   6.728 -0.1110  0.0560  0.0815
 1269ERGO    R316874   0.103  13.965   6.836 -0.0257  0.0605  0.1762
 1269ERGO    R416875  -0.039  14.184   6.970 -0.3311  0.0681 -0.1375
 1269ERGO    R516876   0.068  14.020   7.066 -0.2820  0.2326  0.1022
 1269ERGO    C116877  -0.281  13.967   7.212 -0.3794  0.0793 -0.1761
 1269ERGO    C216878  -0.584  14.083   7.456  0.1298  0.0113 -0.2171
 1270ERGO   ROH16879  17.647   1.951   6.156 -0.0447  0.2335  0.0850
 1270ERGO    R116880  17.834   1.935   6.369 -0.0795  0.1087  0.1074
 1270ERGO    R216881  17.859   2.133   6.559  0.1053  0.1457  0.0488
 1270ERGO    R316882  17.820   1.927   6.732 -0.1247  0.2365  0.1085
 1270ERGO    R416883  18.031   2.089   6.856  0.0331  0.0520  0.0771
 1270ERGO    R516884  18.039   1.875   6.813 -0.1859  0.0303  0.1431
 1270ERGO    C116885  18.095   1.869   7.190 -0.2249  0.0827  0.1495
 1270ERGO    C216886  18.257   1.886   7.407  0.1974 -0.0825  0.0026
 1271ERGO   ROH16887  14.289   5.939   5.857 -0.1499  0.0711  0.0953
 1271ERGO    R116888  14.146   5.890   6.097 -0.2454 -0.0915  0.0062
 1271ERGO    R216889  13.925   5.725   6.108 -0.0543 -0.3538 -0.1312
 1271ERGO    R316890  14.068   5.601   6.304 -0.0347 -0.1809 -0.0337
 1271ERGO    R416891  13.797   5.623   6.413 -0.0652 -0.2116 -0.0869
 1271ERGO    R516892  13.981   5.691   6.507 -0.1004 -0.0833 -0.1008
 1271ERGO    C116893  13.856   5.448   6.773 -0.0531  0.0335  0.0304
 1271ERGO    C216894  13.711   5.345   6.986 -0.0456 -0.1788  0.2070
 1272ERGO   ROH16895   2.206  15.543   6.134 -0.0468 -0.0626  0.0557
 1272ERGO    R116896   2.337  15.691   6.336  0.1091  0.0446 -0.1202
 1272ERGO    R216897   2.396  15.960   6.310 -0.1586  0.0991 -0.1977
 1272ERGO    R316898   2.261  15.979   6.545  0.1463 -0.0276 -0.0062
 1272ERGO    R416899   2.447  16.205   6.548 -0.0226  0.1199 -0.2478
 1272ERGO    R516900   2.425  16.053   6.702  0.3087  0.0882 -0.2248
 1272ERGO    C116901   2.350  16.365   6.907  0.3428  0.0129 -0.0971
 1272ERGO    C216902   2.254  16.462   7.265  0.1144  0.1192 -0.1147
 1273ERGO   ROH16903   5.639  16.424   5.648  0.1828 -0.0811  0.1224
 1273ERGO    R116904   5.537  16.404   5.912  0.1606  0.1530  0.1341
 1273ERGO    R216905   5.600  16.194   6.080 -0.2266  0.0488  0.1621
 1273ERGO    R316906   5.675  16.394   6.248  0.1727 -0.0611  0.1235
 1273ERGO    R416907   5.567  16.186   6.424 -0.2582  0.1873  0.1625
 1273ERGO    R516908   5.506  16.395   6.418  0.1630  0.3148  0.1180
 1273ERGO    C116909   5.618  16.368   6.782  0.0983  0.1646  0.1264
 1273ERGO    C216910   5.823  16.350   7.141 -0.3798 -0.2116  0.0892
 1274ERGO   ROH16911   7.023   8.366   5.811  0.1882  0.2660 -0.1329
 1274ERGO    R116912   7.153   8.458   6.046  0.1872  0.1296 -0.0795
 1274ERGO    R216913   7.155   8.313   6.281  0.1997 -0.0137 -0.1716
 1274ERGO    R316914   7.424   8.343   6.259  0.1991  0.0160 -0.1532
 1274ERGO    R416915   7.377   8.298   6.545  0.1635  0.1884 -0.1273
 1274ERGO    R516916   7.486   8.465   6.456  0.1504  0.1524 -0.2183
 1274ERGO    C116917   7.760   8.319   6.679  0.1418  0.3340 -0.0841
 1274ERGO    C216918   7.895   8.213   6.906  0.0396 -0.1119 -0.0006
 1275ERGO   ROH16919   2.986  11.821   5.687  0.2371  0.3151 -0.0363
 1275ERGO    R116920   3.020  11.684   5.932  0.2581  0.1184 -0.1453
 1275ERGO    R216921   3.248  11.712   6.088  0.1363  0.2535  0.0163
 1275ERGO    R316922   3.068  11.776   6.281 -0.0644 -0.1534 -0.0240
 1275ERGO    R416923   3.313  11.707   6.427  0.0968  0.4636  0.0273
 1275ERGO    R516924   3.115  11.623   6.459  0.2861 -0.0223  0.0047
 1275ERGO    C116925   3.183  11.765   6.806 -0.1147  0.2040 -0.0043
 1275ERGO    C216926   3.365  11.728   7.001 -0.2340  0.0498 -0.2489
 1276ERGO   ROH16927  13.775  17.592   5.784 -0.1672 -0.1374  0.0853
 1276ERGO    R116928  13.760  17.699   6.045 -0.1142 -0.0040  0.0328
 1276ERGO    R216929  13.985  17.759   6.194 -0.0888 -0.0096 -0.0146
 1276ERGO    R316930  13.869  18.004   6.212 -0.0008  0.0422 -0.1187
 1276ERGO    R416931  14.084  18.009   6.411 -0.0377  0.0132 -0.0625
 1276ERGO    R516932  13.874  18.055   6.446 -0.0358  0.1060 -0.1265
 1276ERGO    C116933  14.033  18.385   6.554  0.0747  0.0750 -0.1881
 1276ERGO    C216934  14.151  18.691   6.625  0.0746  0.2101 -0.2435
 1277ERGO   ROH16935   9.698   9.933   5.781  0.0726 -0.0128 -0.0879
 1277ERGO    R116936   9.725   9.878   6.057 -0.0025 -0.1308 -0.1035
 1277ERGO    R216937   9.682  10.069   6.252  0.2415 -0.1288 -0.0484
 1277ERGO    R316938   9.509   9.883   6.350 -0.0038  0.0618 -0.1069
 1277ERGO    R416939   9.568  10.059   6.578  0.2748 -0.1209 -0.0363
 1277ERGO    R516940   9.588   9.842   6.573 -0.0268 -0.1493 -0.1372
 1277ERGO    C116941   9.340   9.879   6.860  0.0638  0.0628 -0.0843
 1277ERGO    C216942   9.346   9.960   7.120  0.0074  0.1042 -0.0263
 1278ERGO   ROH16943  15.944  18.884   6.238 -0.0496 -0.1435  0.0334
 1278ERGO    R116944  15.901  18.837   6.514  0.0102 -0.0459  0.0602
 1278ERGO    R216945  15.866  19.042   6.696  0.0343  0.0199 -0.0059
 1278ERGO    R316946  15.638  18.905   6.756  0.0553  0.0262  0.0882
 1278ERGO    R416947  15.763  18.960   7.016  0.1222  0.0858  0.0396
 1278ERGO    R516948  15.700  18.766   6.940  0.1077  0.0690  0.1013
 1278ERGO    C116949  15.489  18.784   7.258  0.1929  0.1300  0.1543
 1278ERGO    C216950  15.445  18.649   7.464  0.0112  0.0156 -0.0391
 1279ERGO   ROH16951   7.030   9.890   5.651 -0.0259  0.0183  0.0124
 1279ERGO    R116952   7.119   9.960   5.910  0.0196  0.0480 -0.0111
 1279ERGO    R216953   6.950  10.060   6.104  0.0786  0.1976 -0.0349
 1279ERGO    R316954   7.049   9.854   6.251 -0.0277  0.1872  0.0232
 1279ERGO    R416955   7.051  10.084   6.434 -0.0701  0.1970  0.0113
 1279ERGO    R516956   7.220   9.955   6.386 -0.0713  0.1630  0.0971
 1279ERGO    C116957   7.203   9.906   6.764 -0.2564  0.1868  0.0928
 1279ERGO    C216958   7.339   9.877   7.054  0.0428  0.0692 -0.3076
 1280ERGO   ROH16959   4.259  12.302   5.894  0.0130  0.1010 -0.1282
 1280ERGO    R116960   4.350  12.362   6.155  0.1211 -0.0092 -0.1408
 1280ERGO    R216961   4.189  12.337   6.379  0.1386  0.1339 -0.1190
 1280ERGO    R316962   4.393  12.181   6.468  0.0022 -0.0749 -0.1596
 1280ERGO    R416963   4.218  12.215   6.701  0.0617  0.0975 -0.1246
 1280ERGO    R516964   4.432  12.257   6.692  0.1109 -0.1130 -0.1593
 1280ERGO    C116965   4.426  11.998   6.973 -0.1112 -0.1196 -0.1660
 1280ERGO    C216966   4.398  11.978   7.288 -0.0086 -0.0309 -0.1610
 1281ERGO   ROH16967  11.051  17.712   5.528  0.0439 -0.3446  0.0685
 1281ERGO    R116968  11.035  17.697   5.811 -0.0490 -0.1890  0.0729
 1281ERGO    R216969  10.897  17.882   5.962 -0.1519 -0.1386 -0.0780
 1281ERGO    R316970  10.772  17.661   6.059 -0.1255 -0.1184  0.0019
 1281ERGO    R416971  10.733  17.866   6.266  0.0094 -0.1059  0.0119
 1281ERGO    R516972  10.817  17.667   6.294  0.0011 -0.1126 -0.0228
 1281ERGO    C116973  10.520  17.649   6.534  0.1280 -0.0680  0.1392
 1281ERGO    C216974  10.255  17.760   6.784 -0.2858  0.1328 -0.1882
 1282ERGO   ROH16975   6.832  14.263   6.510  0.0529 -0.0938 -0.0144
 1282ERGO    R116976   7.012  14.335   6.716  0.1287 -0.0234 -0.1023
 1282ERGO    R216977   7.089  14.596   6.763 -0.1802  0.0521  0.0490
 1282ERGO    R316978   7.003  14.542   7.015  0.0876 -0.2782  0.0741
 1282ERGO    R416979   7.271  14.656   7.051 -0.1270  0.2597 -0.0275
 1282ERGO    R516980   7.199  14.466   7.130  0.3192  0.0613 -0.0907
 1282ERGO    C116981   7.296  14.640   7.455  0.1554  0.0704 -0.0485
 1282ERGO    C216982   7.388  14.774   7.709 -0.0547  0.0644 -0.1760
 1283ERGO   ROH16983   4.190   0.461   6.043  0.0103  0.0396 -0.0692
 1283ERGO    R116984   4.327   0.403   6.284 -0.0330  0.0853 -0.0333
 1283ERGO    R216985   4.470   0.594   6.423 -0.0459  0.1086 -0.0517
 1283ERGO    R316986   4.313   0.515   6.630 -0.0852  0.1629 -0.0605
 1283ERGO    R416987   4.475   0.735   6.738  0.0430  0.0507 -0.0266
 1283ERGO    R516988   4.455   0.534   6.822 -0.0693  0.0481 -0.0608
 1283ERGO    C116989   4.330   0.743   7.117  0.0577  0.0680 -0.0201
 1283ERGO    C216990   4.123   0.932   7.266  0.0575  0.0143  0.1572
 1284ERGO   ROH16991  13.770  15.261   5.763 -0.0115  0.0353 -0.1560
 1284ERGO    R116992  13.967  15.273   5.966 -0.0695  0.0668 -0.1011
 1284ERGO    R216993  14.001  15.496   6.126 -0.1601  0.0669 -0.0800
 1284ERGO    R316994  13.971  15.316   6.328 -0.1784  0.0502 -0.0977
 1284ERGO    R416995  14.152  15.519   6.436 -0.1150 -0.0096 -0.0959
 1284ERGO    R516996  14.188  15.304   6.430 -0.1692 -0.0166 -0.1263
 1284ERGO    C116997  14.212  15.364   6.806 -0.1059 -0.0699 -0.1218
 1284ERGO    C216998  14.329  15.251   7.071  0.1097  0.0889  0.0804
 1285ERGO   ROH16999   6.324  15.162   6.239  0.0397  0.0216 -0.0716
 1285ERGO    R117000   6.186  15.028   6.447  0.1511 -0.1055 -0.0774
 1285ERGO    R217001   6.265  15.043   6.711  0.0869  0.0234 -0.0623
 1285ERGO    R317002   6.008  15.123   6.750 -0.0135 -0.2599 -0.1246
 1285ERGO    R417003   6.093  15.015   7.009  0.1304  0.0642 -0.0337
 1285ERGO    R517004   5.916  14.957   6.895  0.1961 -0.2521  0.0196
 1285ERGO    C117005   5.751  15.073   7.219  0.0615 -0.1779 -0.0755
 1285ERGO    C217006   5.673  14.962   7.605  0.0207 -0.1250 -0.0566
 1286ERGO   ROH17007   3.915   6.996   5.575 -0.1119  0.3906  0.1347
 1286ERGO    R117008   4.030   6.899   5.815 -0.1378  0.0949  0.0325
 1286ERGO    R217009   4.049   7.054   6.044  0.2364 -0.0321  0.0961
 1286ERGO    R317010   3.919   6.844   6.157 -0.0499  0.1246  0.0652
 1286ERGO    R417011   4.055   6.975   6.380  0.2087 -0.1483  0.0694
 1286ERGO    R517012   4.068   6.765   6.326 -0.1216 -0.1545  0.0006
 1286ERGO    C117013   3.935   6.733   6.682 -0.0764 -0.0690  0.0248
 1286ERGO    C217014   3.847   6.754   7.029  0.1748  0.0714  0.1778
 1287ERGO   ROH17015   1.563  14.190   6.511  0.0348 -0.4755  0.2189
 1287ERGO    R117016   1.454  14.189   6.773  0.1603 -0.4546  0.2718
 1287ERGO    R217017   1.608  14.144   6.998  0.3502 -0.0266  0.2387
 1287ERGO    R317018   1.501  14.380   7.079 -0.0045 -0.1337  0.1026
 1287ERGO    R417019   1.589  14.250   7.326  0.1436  0.1147  0.1831
 1287ERGO    R517020   1.390  14.328   7.285  0.0346 -0.1899  0.1094
 1287ERGO    C117021   1.478  14.534   7.593 -0.3098  0.0965  0.0230
 1287ERGO    C217022   1.636  14.650   7.902  0.2248  0.1291 -0.2476
 1288ERGO   ROH17023  18.037   1.056   6.235  0.0383  0.2136  0.1214
 1288ERGO    R117024  18.096   0.982   6.501 -0.0049  0.1641  0.1173
 1288ERGO    R217025  18.341   0.877   6.576 -0.0615  0.0217  0.1127
 1288ERGO    R317026  18.335   1.081   6.756  0.0498  0.0157  0.1236
 1288ERGO    R417027  18.515   0.882   6.874  0.2294  0.0764 -0.0542
 1288ERGO    R517028  18.341   0.972   6.969  0.2941  0.0167  0.1180
 1288ERGO    C117029  18.612   1.076   7.217  0.5033  0.1027 -0.1413
 1288ERGO    C217030  18.628   1.173   7.600 -0.2777  0.4587 -0.1657
 1289ERGO   ROH17031   8.079   2.935   6.018 -0.0056  0.1349 -0.1033
 1289ERGO    R117032   7.972   2.881   6.274 -0.0200  0.2168 -0.0928
 1289ERGO    R217033   8.000   2.635   6.398 -0.1764  0.2058 -0.0893
 1289ERGO    R317034   8.104   2.785   6.600 -0.0587  0.1395 -0.0981
 1289ERGO    R417035   8.138   2.508   6.688 -0.3140  0.1069 -0.0649
 1289ERGO    R517036   8.041   2.668   6.799 -0.1841  0.2116 -0.0890
 1289ERGO    C117037   8.317   2.575   7.046 -0.2836 -0.0130 -0.0590
 1289ERGO    C217038   8.433   2.477   7.371 -0.0218 -0.0464 -0.0573
 1290ERGO   ROH17039   0.847  14.935   6.431 -0.1228  0.0607  0.0061
 1290ERGO    R117040   0.920  15.152   6.598 -0.1806  0.1043 -0.0262
 1290ERGO    R217041   0.827  15.179   6.857  0.0222 -0.0241  0.0583
 1290ERGO    R317042   1.092  15.196   6.916  0.0612  0.2205 -0.1686
 1290ERGO    R417043   0.958  15.358   7.121  0.0227 -0.2851  0.2396
 1290ERGO    R517044   1.121  15.422   6.990 -0.1753  0.1491  0.1785
 1290ERGO    C117045   1.283  15.480   7.330  0.0596 -0.2076  0.1321
 1290ERGO    C217046   1.219  15.501   7.689 -0.1629  0.0727  0.1119
 1291ERGO   ROH17047   5.878  10.147   6.089 -0.2089  0.0500  0.0950
 1291ERGO    R117048   5.928  10.269   6.339 -0.1130 -0.0520  0.1268
 1291ERGO    R217049   6.046  10.135   6.549  0.0625 -0.1090 -0.0052
 1291ERGO    R317050   6.220  10.344   6.543 -0.0235 -0.0372 -0.0054
 1291ERGO    R417051   6.218  10.257   6.823 -0.0062 -0.0225 -0.0007
 1291ERGO    R517052   6.181  10.459   6.749 -0.0849 -0.0414 -0.0145
 1291ERGO    C117053   6.481  10.525   6.977 -0.1269  0.0952  0.0018
 1291ERGO    C217054   6.607  10.865   6.972 -0.0409 -0.2259  0.0471
 1292ERGO   ROH17055   6.695  15.892   5.990  0.1256  0.1614 -0.0953
 1292ERGO    R117056   6.590  15.948   6.246  0.1556  0.0363 -0.0545
 1292ERGO    R217057   6.716  15.868   6.479  0.2252 -0.0089 -0.1038
 1292ERGO    R317058   6.697  16.132   6.541  0.1543 -0.0361 -0.0095
 1292ERGO    R417059   6.751  16.000   6.797  0.2275 -0.1034 -0.0649
 1292ERGO    R517060   6.586  16.136   6.754  0.1832 -0.1392  0.0052
 1292ERGO    C117061   6.754  16.325   7.040  0.1622 -0.1838  0.0463
 1292ERGO    C217062   6.869  16.445   7.374  0.0865  0.0894 -0.1473
 1293ERGO   ROH17063  15.364  14.487   5.799 -0.2118 -0.1155 -0.1982
 1293ERGO    R117064  15.423  14.588   6.057  0.0846 -0.2039 -0.2289
 1293ERGO    R217065  15.254  14.551   6.273  0.0596  0.1944 -0.1815
 1293ERGO    R317066  15.478  14.448   6.389 -0.1222 -0.2823 -0.2241
 1293ERGO    R417067  15.298  14.508   6.613  0.1183  0.3461 -0.1678
 1293ERGO    R517068  15.504  14.576   6.590  0.2959 -0.1789 -0.3295
 1293ERGO    C117069  15.534  14.387   6.920 -0.0181 -0.0129 -0.1999
 1293ERGO    C217070  15.754  14.201   7.104 -0.0881 -0.2551  0.0988
 1294ERGO   ROH17071  10.874   6.819   5.644  0.1187 -0.0663 -0.0566
 1294ERGO    R117072  10.671   6.743   5.825  0.0799 -0.0320 -0.0856
 1294ERGO    R217073  10.581   6.483   5.847 -0.0192 -0.0040 -0.1509
 1294ERGO    R317074  10.641   6.518   6.110 -0.0198 -0.0868 -0.1395
 1294ERGO    R417075  10.408   6.339   6.109  0.0710 -0.2013 -0.1981
 1294ERGO    R517076  10.428   6.527   6.219 -0.0158 -0.2392 -0.1195
 1294ERGO    C117077  10.364   6.287   6.508  0.1230 -0.3939 -0.2149
 1294ERGO    C217078  10.388   6.060   6.571 -0.2508 -0.2054  0.0352
 1295ERGO   ROH17079  16.202  13.033   5.999  0.1169  0.3339  0.1174
 1295ERGO    R117080  16.183  13.060   6.280 -0.0587  0.1640  0.1245
 1295ERGO    R217081  16.025  12.895   6.435 -0.0445 -0.0265 -0.0550
 1295ERGO    R317082  16.257  12.855   6.571 -0.0922  0.0445  0.0484
 1295ERGO    R417083  16.049  12.859   6.778 -0.1768 -0.0094 -0.0436
 1295ERGO    R517084  16.230  12.981   6.773 -0.2123  0.0405  0.0324
 1295ERGO    C117085  16.280  12.801   7.105 -0.2986  0.0670  0.0601
 1295ERGO    C217086  16.210  12.610   7.471  0.1594 -0.2520  0.1440
 1296ERGO   ROH17087   3.314  18.802   7.541  0.0411 -0.0289  0.2652
 1296ERGO    R117088   3.135  18.969   7.684 -0.0849 -0.1268  0.2224
 1296ERGO    R217089   3.060  19.218   7.593  0.0783 -0.0235  0.3733
 1296ERGO    R317090   2.809  19.119   7.624  0.0132  0.0022 -0.0081
 1296ERGO    R417091   2.771  19.408   7.591  0.1442  0.0791  0.4089
 1296ERGO    R517092   2.695  19.285   7.754 -0.0455 -0.1593  0.1555
 1296ERGO    C117093   2.367  19.425   7.619  0.1215  0.1630  0.0714
 1296ERGO    C217094   2.179  19.540   7.352  0.0520 -0.2800 -0.5484
 1297ERGO   ROH17095   4.459  18.278   5.425  0.3109 -0.0265  0.2342
 1297ERGO    R117096   4.447  18.394   5.683  0.0421  0.2401  0.1076
 1297ERGO    R217097   4.228  18.539   5.770 -0.2400 -0.0343 -0.1119
 1297ERGO    R317098   4.235  18.362   5.977  0.0142  0.1956  0.0817
 1297ERGO    R417099   4.012  18.541   6.040 -0.2490 -0.0600 -0.1197
 1297ERGO    R517100   4.180  18.494   6.169 -0.1804  0.3252 -0.0611
 1297ERGO    C117101   3.893  18.377   6.391 -0.0156  0.1409  0.0577
 1297ERGO    C217102   3.806  18.405   6.718 -0.0711 -0.0819  0.2369
 1298ERGO   ROH17103   6.065   2.212   5.798 -0.0831  0.0713  0.0034
 1298ERGO    R117104   5.980   1.981   5.938  0.0355  0.0328  0.0144
 1298ERGO    R217105   5.985   1.965   6.214  0.0265  0.0537  0.0208
 1298ERGO    R317106   5.723   1.900   6.182  0.0646 -0.0894  0.0029
 1298ERGO    R417107   5.775   1.858   6.468  0.0035  0.1534  0.0430
 1298ERGO    R517108   5.690   1.714   6.329  0.1064  0.0106  0.1343
 1298ERGO    C117109   5.408   1.735   6.585  0.0258  0.0771  0.0392
 1298ERGO    C217110   5.370   1.750   6.925  0.3555 -0.1111 -0.1493
 1299ERGO   ROH17111  18.833  17.512   6.065  0.0748  0.0809  0.1407
 1299ERGO    R117112  18.988  17.491   6.301  0.0449 -0.0691  0.1475
 1299ERGO    R217113  19.007  17.696   6.485  0.2755 -0.0682  0.1222
 1299ERGO    R317114  18.926  17.504   6.660  0.0498  0.0444  0.1451
 1299ERGO    R417115  19.062  17.704   6.826  0.3077 -0.0981  0.1179
 1299ERGO    R517116  19.104  17.490   6.819  0.0471 -0.1560  0.1351
 1299ERGO    C117117  19.017  17.528   7.189  0.1145 -0.0098  0.1368
 1299ERGO    C217118  19.042  17.521   7.490  0.1161 -0.1932 -0.1032
 1300ERGO   ROH17119  15.268   8.095   5.848 -0.1169 -0.1856  0.1075
 1300ERGO    R117120  15.396   8.096   6.101 -0.1130 -0.1113  0.1045
 1300ERGO    R217121  15.281   8.209   6.326 -0.2133 -0.2572  0.1227
 1300ERGO    R317122  15.327   7.964   6.433  0.0173 -0.2336  0.0852
 1300ERGO    R417123  15.290   8.140   6.664 -0.2608 -0.3128  0.1135
 1300ERGO    R517124  15.459   8.008   6.628 -0.0972 -0.1241  0.1437
 1300ERGO    C117125  15.338   7.870   6.962 -0.0722 -0.3232  0.0728
 1300ERGO    C217126  15.227   7.862   7.229 -0.1514  0.2711 -0.2447
 1301ERGO   ROH17127   6.783   6.718   5.686 -0.2394  0.0614 -0.2399
 1301ERGO    R117128   6.764   6.654   5.961 -0.1413 -0.1277 -0.2763
 1301ERGO    R217129   6.746   6.847   6.159  0.0981 -0.2594 -0.1243
 1301ERGO    R317130   6.524   6.706   6.229  0.0346 -0.1535 -0.1095
 1301ERGO    R417131   6.573   6.884   6.456 -0.0007 -0.0005 -0.2111
 1301ERGO    R517132   6.549   6.668   6.464 -0.0596  0.0058 -0.0689
 1301ERGO    C117133   6.264   6.774   6.695 -0.1178  0.2497 -0.2477
 1301ERGO    C217134   6.022   6.645   6.909  0.0554  0.3410 -0.3415
 1302ERGO   ROH17135   8.567   7.535   5.412  0.0908 -0.0524  0.1160
 1302ERGO    R117136   8.537   7.540   5.694 -0.0041 -0.0935  0.1067
 1302ERGO    R217137   8.527   7.310   5.847  0.0750 -0.1116  0.0817
 1302ERGO    R317138   8.730   7.430   5.982 -0.0366 -0.0098  0.1612
 1302ERGO    R417139   8.653   7.203   6.150  0.0755 -0.1114  0.0820
 1302ERGO    R517140   8.667   7.412   6.212 -0.0799 -0.1155  0.1427
 1302ERGO    C117141   8.916   7.254   6.454 -0.0290 -0.0157  0.1567
 1302ERGO    C217142   8.828   7.206   6.757  0.1399 -0.4005  0.0245
 1303ERGO   ROH17143  11.522  18.578   6.169 -0.1678  0.1156  0.1235
 1303ERGO    R117144  11.467  18.536   6.443 -0.0762 -0.0713  0.1150
 1303ERGO    R217145  11.393  18.290   6.544  0.0386 -0.1600 -0.0130
 1303ERGO    R317146  11.603  18.332   6.712  0.0715 -0.1890 -0.0470
 1303ERGO    R417147  11.425  18.151   6.859 -0.0153 -0.0248  0.0528
 1303ERGO    R517148  11.503  18.341   6.930  0.0899 -0.0311 -0.0446
 1303ERGO    C117149  11.639  18.109   7.200 -0.0157  0.0268  0.0591
 1303ERGO    C217150  11.844  18.022   7.524  0.3603 -0.3743 -0.2868
 1304ERGO   ROH17151   6.410  11.424   6.205  0.0117  0.0720  0.1088
 1304ERGO    R117152   6.563  11.471   6.439 -0.0164 -0.0073  0.1442
 1304ERGO    R217153   6.633  11.269   6.614  0.0026 -0.0762  0.0617
 1304ERGO    R317154   6.884  11.363   6.570 -0.0105 -0.0142  0.1226
 1304ERGO    R417155   6.916  11.160   6.780 -0.0089 -0.0072  0.1258
 1304ERGO    R517156   6.984  11.366   6.788 -0.0619  0.0080  0.1446
 1304ERGO    C117157   7.316  11.185   6.836 -0.0280  0.0911  0.2203
 1304ERGO    C217158   7.618  11.040   6.979 -0.2896  0.2145  0.1598
 1305ERGO   ROH17159  10.668  13.388   6.085  0.0395 -0.0575 -0.0862
 1305ERGO    R117160  10.815  13.255   6.286  0.0569  0.1739  0.0592
 1305ERGO    R217161  10.824  13.343   6.547 -0.3675  0.1758  0.0834
 1305ERGO    R317162  10.742  13.090   6.602 -0.0060  0.0283 -0.0311
 1305ERGO    R417163  10.804  13.207   6.864 -0.3747  0.0688  0.0369
 1305ERGO    R517164  10.883  13.020   6.784 -0.0211  0.2093  0.0489
 1305ERGO    C117165  10.715  12.890   7.100 -0.0396 -0.1321 -0.0978
 1305ERGO    C217166  10.736  12.648   7.363 -0.0420  0.0678  0.3199
 1306ERGO   ROH17167  10.212  16.310   5.999 -0.1707 -0.1777 -0.1285
 1306ERGO    R117168  10.148  16.295   6.275 -0.0856 -0.0159 -0.0988
 1306ERGO    R217169  10.222  16.082   6.433 -0.1137  0.0360 -0.0179
 1306ERGO    R317170  10.331  16.277   6.589  0.0107  0.0728 -0.1486
 1306ERGO    R417171  10.306  16.046   6.767  0.0055  0.1570 -0.0335
 1306ERGO    R517172  10.229  16.246   6.803  0.0833  0.2004 -0.0929
 1306ERGO    C117173  10.456  16.208   7.107  0.1917  0.2620 -0.1652
 1306ERGO    C217174  10.412  16.232   7.417  0.0598  0.1383  0.2579
 1307ERGO   ROH17175  17.037  11.567   5.611 -0.1418 -0.2451 -0.0460
 1307ERGO    R117176  17.023  11.501   5.886  0.0198 -0.1818 -0.0209
 1307ERGO    R217177  17.039  11.691   6.086  0.1642 -0.1357 -0.0700
 1307ERGO    R317178  16.805  11.580   6.166  0.1995 -0.0927  0.0943
 1307ERGO    R417179  16.890  11.746   6.393  0.2274  0.1284 -0.0844
 1307ERGO    R517180  16.837  11.534   6.399  0.2584  0.1299  0.1285
 1307ERGO    C117181  16.583  11.673   6.647  0.2971  0.3224  0.0616
 1307ERGO    C217182  16.420  11.768   7.011 -0.1807 -0.1867 -0.1621
 1308ERGO   ROH17183  11.611   3.594   5.634  0.1174  0.0112 -0.0106
 1308ERGO    R117184  11.683   3.654   5.901  0.0484 -0.0101  0.0128
 1308ERGO    R217185  11.583   3.872   6.038  0.0808  0.0280 -0.0264
 1308ERGO    R317186  11.512   3.684   6.221 -0.0490  0.0572 -0.0447
 1308ERGO    R417187  11.617   3.907   6.380  0.1313 -0.0380 -0.0243
 1308ERGO    R517188  11.682   3.699   6.390 -0.0240 -0.0902 -0.0540
 1308ERGO    C117189  11.571   3.750   6.751  0.0388 -0.0490 -0.0401
 1308ERGO    C217190  11.295   3.818   6.966  0.0560 -0.0293 -0.2353
 1309ERGO   ROH17191   9.433  15.149   6.106 -0.1552 -0.1367  0.0554
 1309ERGO    R117192   9.330  15.075   6.360 -0.0555 -0.0567  0.1203
 1309ERGO    R217193   9.492  14.986   6.566  0.0263  0.0145  0.0864
 1309ERGO    R317194   9.369  15.186   6.704  0.0756  0.0562  0.0704
 1309ERGO    R417195   9.369  14.958   6.888 -0.1750  0.0004  0.0097
 1309ERGO    R517196   9.196  15.076   6.827 -0.0672  0.1298 -0.0584
 1309ERGO    C117197   9.183  15.129   7.205 -0.2460  0.0313 -0.0500
 1309ERGO    C217198   9.148  15.041   7.476 -0.1004  0.0799  0.0516
 1310ERGO   ROH17199   4.914  13.647   5.966 -0.4004  0.1340 -0.0887
 1310ERGO    R117200   5.005  13.666   6.234 -0.1310 -0.1267 -0.1552
 1310ERGO    R217201   4.846  13.764   6.438  0.2285  0.1319  0.0152
 1310ERGO    R317202   4.908  13.527   6.556 -0.1396 -0.0378 -0.1202
 1310ERGO    R417203   4.801  13.692   6.773  0.4491  0.1363  0.0463
 1310ERGO    R517204   4.992  13.587   6.771  0.2332 -0.2723 -0.1952
 1310ERGO    C117205   4.833  13.427   7.079  0.2319 -0.0205 -0.0626
 1310ERGO    C217206   4.794  13.340   7.477 -0.0448  0.0624  0.1141
 1311ERGO   ROH17207   5.202  12.721   6.085  0.0309 -0.1782 -0.0643
 1311ERGO    R117208   5.317  12.602   6.315  0.1545 -0.0340 -0.0484
 1311ERGO    R217209   5.557  12.687   6.422  0.1036  0.1888 -0.0897
 1311ERGO    R317210   5.410  12.710   6.650  0.1020  0.1220 -0.0854
 1311ERGO    R417211   5.685  12.666   6.743  0.0698 -0.0174 -0.0896
 1311ERGO    R517212   5.508  12.552   6.800  0.0337  0.0169 -0.1587
 1311ERGO    C117213   5.621  12.675   7.143  0.0485 -0.2001 -0.0854
 1311ERGO    C217214   5.820  12.509   7.449 -0.4667 -0.0193 -0.1607
 1312ERGO   ROH17215  14.875   4.671   5.948 -0.2162 -0.1363  0.1222
 1312ERGO    R117216  14.929   4.581   6.211  0.2490 -0.0777  0.0572
 1312ERGO    R217217  15.146   4.670   6.357  0.1623  0.4588 -0.1045
 1312ERGO    R317218  14.956   4.731   6.541  0.1374 -0.0871  0.0689
 1312ERGO    R417219  15.210   4.786   6.676  0.0994  0.1291  0.0310
 1312ERGO    R517220  15.049   4.659   6.749  0.3306 -0.2241 -0.0682
 1312ERGO    C117221  15.069   4.911   7.035  0.0393 -0.5753  0.2727
 1312ERGO    C217222  15.231   5.099   7.220  0.0181  0.1514  0.1727
 1313ERGO   ROH17223   8.171   1.972   5.814  0.2600 -0.0094 -0.2726
 1313ERGO    R117224   8.253   1.815   6.035  0.2393  0.0929 -0.1932
 1313ERGO    R217225   8.298   1.923   6.285 -0.0735  0.1603 -0.1704
 1313ERGO    R317226   8.121   1.732   6.364  0.0568 -0.0148 -0.2894
 1313ERGO    R417227   8.307   1.760   6.590 -0.0768  0.1452 -0.1773
 1313ERGO    R517228   8.255   1.575   6.486  0.1496  0.0970 -0.2317
 1313ERGO    C117229   8.147   1.486   6.841  0.0436 -0.0280 -0.2931
 1313ERGO    C217230   8.244   1.558   7.070  0.1052  0.1979 -0.2609
 1314ERGO   ROH17231   5.426  10.935   7.608 -0.0703 -0.2523 -0.0480
 1314ERGO    R117232   5.154  10.879   7.552 -0.2282  0.1563  0.2589
 1314ERGO    R217233   4.952  11.063   7.597  0.1728  0.7447 -0.1579
 1314ERGO    R317234   4.896  11.015   7.335 -0.0350  0.0935 -0.0126
 1314ERGO    R417235   4.636  11.071   7.457  0.0903  0.5883  0.0164
 1314ERGO    R517236   4.688  10.896   7.339 -0.1130  0.2374  0.4329
 1314ERGO    C117237   4.399  11.032   7.131 -0.1528 -0.1141  0.2544
 1314ERGO    C217238   4.157  11.159   7.190  0.2245 -0.0726  0.0414
 1315ERGO   ROH17239  14.976  16.033   5.749  0.1653  0.1272 -0.0654
 1315ERGO    R117240  14.959  15.901   5.998 -0.0182  0.1915 -0.0391
 1315ERGO    R217241  15.160  15.913   6.188  0.0754 -0.1628 -0.0869
 1315ERGO    R317242  14.959  15.998   6.349  0.2667  0.2584 -0.0596
 1315ERGO    R417243  15.154  15.876   6.531 -0.0207 -0.2203 -0.0968
 1315ERGO    R517244  14.942  15.827   6.517 -0.1257  0.2662 -0.0999
 1315ERGO    C117245  14.961  15.933   6.883  0.1029  0.1416 -0.0770
 1315ERGO    C217246  14.725  16.113   7.146 -0.1072  0.2157 -0.1114
 1316ERGO   ROH17247   4.059  13.233   6.089 -0.0177 -0.1267  0.0935
 1316ERGO    R117248   4.076  13.295   6.365 -0.0893 -0.1709  0.1094
 1316ERGO    R217249   3.878  13.227   6.545 -0.1683 -0.1483  0.0413
 1316ERGO    R317250   4.085  13.110   6.677 -0.2372 -0.2218  0.0822
 1316ERGO    R417251   3.866  13.115   6.872 -0.1557  0.1826  0.1582
 1316ERGO    R517252   4.067  13.193   6.901 -0.0720  0.0132  0.0072
 1316ERGO    C117253   4.052  12.939   7.186 -0.2131  0.3062  0.2646
 1316ERGO    C217254   4.279  12.882   7.474  0.1308 -0.1484  0.1101
 1317ERGO   ROH17255  18.648  13.544   6.309  0.1595 -0.0214  0.2484
 1317ERGO    R117256  18.410  13.431   6.411  0.1711 -0.1108  0.1783
 1317ERGO    R217257  18.409  13.240   6.612  0.1772  0.0051  0.2893
 1317ERGO    R317258  18.241  13.416   6.733 -0.0030 -0.0276  0.0926
 1317ERGO    R417259  18.173  13.156   6.850  0.1433  0.0018  0.2544
 1317ERGO    R517260  18.035  13.295   6.756  0.0758 -0.1661  0.0943
 1317ERGO    C117261  17.878  13.272   7.103 -0.0455 -0.0307  0.0494
 1317ERGO    C217262  17.735  13.138   7.351 -0.2939  0.2475 -0.3197
 1318ERGO   ROH17263  11.344   8.921   5.513 -0.2147 -0.0097  0.0001
 1318ERGO    R117264  11.341   8.784   5.761 -0.0911 -0.0437 -0.0165
 1318ERGO    R217265  11.570   8.743   5.911 -0.0445  0.1071 -0.0396
 1318ERGO    R317266  11.423   8.861   6.107 -0.1181 -0.0241 -0.0155
 1318ERGO    R417267  11.621   8.699   6.249 -0.1406 -0.0656 -0.0467
 1318ERGO    R517268  11.405   8.693   6.277 -0.1430 -0.1146 -0.1114
 1318ERGO    C117269  11.513   8.783   6.631 -0.2655 -0.2892 -0.0282
 1318ERGO    C217270  11.603   8.826   6.954 -0.0351  0.1414 -0.1907
 1319ERGO   ROH17271   2.361   6.305   5.769  0.2040  0.1449  0.0039
 1319ERGO    R117272   2.315   6.311   6.048 -0.2465  0.0784 -0.0627
 1319ERGO    R217273   2.481   6.445   6.223 -0.1700 -0.4622  0.3039
 1319ERGO    R317274   2.249   6.566   6.299 -0.0003  0.0969 -0.0163
 1319ERGO    R417275   2.437   6.620   6.518 -0.2348 -0.6049  0.3804
 1319ERGO    R517276   2.239   6.531   6.536 -0.5255 -0.0951 -0.0582
 1319ERGO    C117277   2.194   6.837   6.761 -0.1132 -0.1631  0.1243
 1319ERGO    C217278   2.429   7.079   7.054  0.1341  0.1806  0.1527
 1320ERGO   ROH17279  16.944   5.243   6.715 -0.0484  0.0273  0.0919
 1320ERGO    R117280  17.080   5.274   6.961 -0.1432 -0.0726  0.1577
 1320ERGO    R217281  17.126   5.063   7.133 -0.0468 -0.1796  0.0036
 1320ERGO    R317282  17.384   5.145   7.114 -0.0968  0.0193  0.1437
 1320ERGO    R417283  17.340   5.109   7.401 -0.2018 -0.0930  0.1146
 1320ERGO    R517284  17.416   5.288   7.303 -0.2899 -0.0079  0.1990
 1320ERGO    C117285  17.707   5.212   7.538 -0.3394  0.1442  0.3106
 1320ERGO    C217286  18.067   5.231   7.469 -0.1400  0.0028 -0.0055
 1321ERGO   ROH17287  15.563   0.995   6.181 -0.0884  0.0382 -0.0637
 1321ERGO    R117288  15.598   1.161   6.408  0.0183  0.0211 -0.0678
 1321ERGO    R217289  15.406   1.341   6.492  0.1486  0.1687 -0.0922
 1321ERGO    R317290  15.433   1.209   6.728  0.0286  0.1613 -0.0815
 1321ERGO    R417291  15.381   1.488   6.803  0.0064  0.1713 -0.1036
 1321ERGO    R517292  15.548   1.364   6.869 -0.0279  0.1578 -0.0251
 1321ERGO    C117293  15.392   1.450   7.207 -0.1891  0.1659 -0.1002
 1321ERGO    C217294  15.183   1.630   7.510  0.1926 -0.2628 -0.0568
 1322ERGO   ROH17295   8.498  12.117   5.699 -0.2002  0.0581  0.0435
 1322ERGO    R117296   8.663  12.168   5.924  0.0681 -0.1302 -0.1043
 1322ERGO    R217297   8.935  12.117   5.923  0.1232  0.0972 -0.5568
 1322ERGO    R317298   8.951  12.378   5.998 -0.0070  0.0088 -0.2036
 1322ERGO    R417299   9.183  12.251   6.123  0.0348 -0.0544 -0.3438
 1322ERGO    R517300   9.031  12.371   6.223 -0.0336 -0.2564 -0.2000
 1322ERGO    C117301   9.342  12.574   6.309 -0.1390 -0.2255  0.1119
 1322ERGO    C217302   9.552  12.507   6.643 -0.0861  0.1578 -0.1405
 1323ERGO   ROH17303  18.772   9.924   6.315 -0.1004 -0.1667 -0.0750
 1323ERGO    R117304  18.835   9.909   6.591 -0.0612 -0.1937 -0.0850
 1323ERGO    R217305  18.785  10.116   6.766  0.1332 -0.1378 -0.0906
 1323ERGO    R317306  18.652   9.923   6.905  0.0061 -0.0238 -0.0531
 1323ERGO    R417307  18.713  10.131   7.104  0.2379 -0.0739 -0.0710
 1323ERGO    R517308  18.762   9.919   7.119  0.0605 -0.1155 -0.0833
 1323ERGO    C117309  18.546   9.960   7.431  0.1798  0.0704 -0.0244
 1323ERGO    C217310  18.316  10.010   7.712  0.0450  0.2278  0.0473
 1324ERGO   ROH17311  17.662   8.667   6.202  0.0138 -0.0257 -0.2111
 1324ERGO    R117312  17.640   8.744   6.474 -0.0692  0.0500 -0.2385
 1324ERGO    R217313  17.804   8.641   6.671 -0.2290 -0.0101 -0.1347
 1324ERGO    R317314  17.854   8.903   6.722 -0.0867 -0.0296 -0.1720
 1324ERGO    R417315  17.898   8.769   6.978 -0.0670 -0.0298 -0.1758
 1324ERGO    R517316  17.768   8.939   6.942  0.0029  0.0301 -0.1466
 1324ERGO    C117317  18.001   9.089   7.204  0.1610 -0.0594 -0.2348
 1324ERGO    C217318  18.073   9.076   7.615  0.0110 -0.1203  0.0077
 1325ERGO   ROH17319   5.996  13.411   6.408 -0.1649  0.0818  0.0010
 1325ERGO    R117320   6.093  13.586   6.608 -0.0435 -0.0848  0.0906
 1325ERGO    R217321   5.934  13.778   6.726  0.1648  0.1681 -0.0318
 1325ERGO    R317322   6.016  13.658   6.956 -0.2174  0.0167  0.0325
 1325ERGO    R417323   5.972  13.939   7.030  0.4813  0.1719 -0.0697
 1325ERGO    R517324   6.154  13.822   7.063  0.1818 -0.2967  0.0244
 1325ERGO    C117325   6.071  13.919   7.423  0.3069  0.0320 -0.0315
 1325ERGO    C217326   5.986  13.964   7.735 -0.1305  0.1017  0.1887
 1326ERGO   ROH17327   7.255  11.862   5.635 -0.0364  0.0297  0.1706
 1326ERGO    R117328   7.469  11.803   5.810 -0.0029  0.0469  0.1359
 1326ERGO    R217329   7.610  11.999   5.945 -0.0085  0.0576  0.1271
 1326ERGO    R317330   7.542  11.853   6.163  0.0419  0.0357  0.1280
 1326ERGO    R417331   7.704  12.073   6.269 -0.1057  0.1401  0.1372
 1326ERGO    R517332   7.737  11.860   6.302  0.0146  0.1622  0.1601
 1326ERGO    C117333   7.696  11.979   6.663 -0.1151  0.1679  0.1440
 1326ERGO    C217334   7.776  11.947   6.982  0.0028 -0.0267  0.1174
 1327ERGO   ROH17335  16.692  16.679   6.412  0.0158 -0.0946 -0.0825
 1327ERGO    R117336  16.541  16.748   6.641  0.2680  0.0778  0.0344
 1327ERGO    R217337  16.325  16.598   6.729 -0.0380  0.4966  0.0061
 1327ERGO    R317338  16.464  16.595   6.962  0.0597  0.0056 -0.0456
 1327ERGO    R417339  16.191  16.527   7.039 -0.0679  0.4572 -0.0147
 1327ERGO    R517340  16.313  16.685   7.124  0.2834  0.1547  0.0968
 1327ERGO    C117341  16.243  16.482   7.439  0.0065 -0.0268 -0.0754
 1327ERGO    C217342  16.253  16.183   7.692  0.0460  0.2069  0.0923
 1328ERGO   ROH17343  18.874  12.652   6.171 -0.0488  0.0474 -0.1389
 1328ERGO    R117344  18.977  12.545   6.412 -0.0092  0.0615 -0.1492
 1328ERGO    R217345  19.059  12.704   6.623 -0.0514  0.0724 -0.1387
 1328ERGO    R317346  18.886  12.550   6.765 -0.0018  0.0090 -0.1470
 1328ERGO    R417347  19.036  12.700   6.968 -0.1063  0.1012 -0.1421
 1328ERGO    R517348  19.010  12.484   6.958 -0.0037  0.0900 -0.1195
 1328ERGO    C117349  18.859  12.553   7.301 -0.0917  0.0585 -0.1519
 1328ERGO    C217350  18.734  12.719   7.474  0.0964  0.0493 -0.0668
 1329ERGO   ROH17351   6.930   5.345   5.668 -0.1021  0.0684  0.0595
 1329ERGO    R117352   7.013   5.364   5.938 -0.0287 -0.0108  0.0420
 1329ERGO    R217353   6.853   5.472   6.136  0.0496 -0.0153  0.1038
 1329ERGO    R317354   6.901   5.235   6.259  0.0229 -0.0528  0.0440
 1329ERGO    R417355   6.749   5.391   6.455 -0.1877 -0.1779 -0.0110
 1329ERGO    R517356   6.941   5.293   6.487 -0.1805 -0.1322  0.1046
 1329ERGO    C117357   6.733   5.121   6.757 -0.3510 -0.3078 -0.1339
 1329ERGO    C217358   6.666   5.123   7.087 -0.2198  0.0103 -0.1286
 1330ERGO   ROH17359   3.215   9.254   5.716 -0.0852  0.2176 -0.1563
 1330ERGO    R117360   3.311   9.374   5.954 -0.0520  0.0953 -0.1057
 1330ERGO    R217361   3.265   9.639   6.016  0.0068  0.0836  0.0118
 1330ERGO    R317362   3.166   9.535   6.247 -0.0109  0.0009 -0.0344
 1330ERGO    R417363   3.264   9.802   6.321 -0.1351  0.0210  0.0440
 1330ERGO    R517364   3.317   9.613   6.416 -0.0869  0.0256  0.0191
 1330ERGO    C117365   3.170   9.798   6.715 -0.2344 -0.0929  0.0193
 1330ERGO    C217366   3.164  10.011   6.971  0.1631  0.1658  0.1291
 1331ERGO   ROH17367  11.087   2.253   5.503 -0.1582 -0.1051 -0.1149
 1331ERGO    R117368  11.192   2.297   5.761 -0.0921 -0.3123 -0.1049
 1331ERGO    R217369  11.068   2.459   5.947  0.1920 -0.0821 -0.1096
 1331ERGO    R317370  11.086   2.238   6.104 -0.2329 -0.1296 -0.1154
 1331ERGO    R417371  11.022   2.456   6.290  0.0329 -0.0348 -0.1293
 1331ERGO    R517372  11.188   2.317   6.306 -0.1932 -0.3083 -0.0635
 1331ERGO    C117373  11.012   2.247   6.637 -0.4586 -0.0520 -0.1462
 1331ERGO    C217374  10.794   2.278   6.859  0.1660 -0.0263  0.1245
 1332ERGO   ROH17375  10.936   0.383   5.889 -0.4409 -0.2279 -0.1245
 1332ERGO    R117376  10.846   0.304   6.146  0.0360 -0.0834  0.0985
 1332ERGO    R217377  10.966   0.392   6.379  0.0916  0.5636 -0.1520
 1332ERGO    R317378  10.713   0.469   6.442 -0.0467  0.0305 -0.0014
 1332ERGO    R417379  10.803   0.318   6.675  0.4387  0.2605 -0.0298
 1332ERGO    R517380  10.621   0.283   6.561  0.4293 -0.1548  0.0964
 1332ERGO    C117381  10.471   0.347   6.906  0.5111 -0.4165  0.1827
 1332ERGO    C217382  10.442   0.226   7.171  0.0701 -0.2029 -0.2058
 1333ERGO   ROH17383  12.743   3.833   5.801  0.0160  0.0331 -0.0173
 1333ERGO    R117384  12.617   3.761   6.044  0.1945 -0.1681  0.0186
 1333ERGO    R217385  12.747   3.617   6.242  0.5216  0.1299  0.0352
 1333ERGO    R317386  12.670   3.825   6.398  0.1242  0.0217 -0.0053
 1333ERGO    R417387  12.811   3.644   6.580  0.3154  0.2463  0.0663
 1333ERGO    R517388  12.610   3.724   6.607  0.1772 -0.0605 -0.0324
 1333ERGO    C117389  12.776   3.855   6.924 -0.1778  0.2125  0.0465
 1333ERGO    C217390  12.741   3.760   7.332  0.0840 -0.0701 -0.2237
 1334ERGO   ROH17391  12.237  17.864   6.194 -0.1001 -0.0330  0.0928
 1334ERGO    R117392  12.338  17.900   6.456  0.0209  0.0032  0.0422
 1334ERGO    R217393  12.253  17.747   6.670  0.0267  0.1170  0.1264
 1334ERGO    R317394  12.519  17.699   6.699  0.0146 -0.0081  0.0378
 1334ERGO    R417395  12.396  17.587   6.941  0.0430  0.0735  0.0923
 1334ERGO    R517396  12.560  17.731   6.933  0.1105 -0.0049  0.0216
 1334ERGO    C117397  12.729  17.450   7.126  0.0411 -0.0691 -0.0106
 1334ERGO    C217398  12.751  17.278   7.420 -0.1929  0.0237 -0.1469
 1335ERGO   ROH17399   1.783  13.262   6.169 -0.1069  0.1368 -0.1321
 1335ERGO    R117400   1.911  13.147   6.393  0.0020  0.1387 -0.1928
 1335ERGO    R217401   1.951  13.285   6.628  0.0741  0.1255 -0.1979
 1335ERGO    R317402   1.824  13.071   6.738  0.1533  0.0957 -0.1628
 1335ERGO    R417403   2.019  13.157   6.942  0.1772  0.1536 -0.2083
 1335ERGO    R517404   1.997  12.956   6.859  0.2108  0.1443 -0.1972
 1335ERGO    C117405   1.939  12.883   7.229  0.3115  0.1419 -0.1814
 1335ERGO    C217406   1.874  12.820   7.606 -0.0905  0.0315 -0.2031
 1336ERGO   ROH17407  17.613   4.414   6.400 -0.0118  0.2956 -0.0281
 1336ERGO    R117408  17.697   4.458   6.667 -0.2336  0.0053  0.0950
 1336ERGO    R217409  17.681   4.262   6.861  0.0649 -0.3838 -0.2489
 1336ERGO    R317410  17.945   4.317   6.892 -0.0503  0.1122 -0.0396
 1336ERGO    R417411  17.860   4.215   7.153  0.0032 -0.3698 -0.2087
 1336ERGO    R517412  17.963   4.403   7.115 -0.3462 -0.1117  0.0733
 1336ERGO    C117413  18.212   4.238   7.352 -0.1409  0.1040  0.0113
 1336ERGO    C217414  18.289   4.163   7.717  0.0943 -0.2643  0.1947
 1337ERGO   ROH17415  15.783  17.477   6.296 -0.0316 -0.1063  0.1576
 1337ERGO    R117416  15.548  17.320   6.310  0.0423 -0.2284  0.0823
 1337ERGO    R217417  15.544  17.066   6.419  0.0996 -0.1651  0.2537
 1337ERGO    R317418  15.345  17.170   6.572 -0.0696 -0.1607  0.0317
 1337ERGO    R417419  15.352  16.885   6.642  0.2526 -0.0367  0.4926
 1337ERGO    R517420  15.178  16.999   6.576  0.1359 -0.3543  0.2609
 1337ERGO    C117421  15.053  16.877   6.915  0.1828  0.0422  0.4234
 1337ERGO    C217422  14.890  16.635   7.132  0.0689  0.1414 -0.1580
 1338ERGO   ROH17423   5.809  15.173   6.126 -0.1087  0.0768 -0.1243
 1338ERGO    R117424   5.603  15.186   6.320 -0.1007  0.0976 -0.1163
 1338ERGO    R217425   5.603  15.028   6.547 -0.1692  0.0107 -0.1732
 1338ERGO    R317426   5.578  15.267   6.674 -0.0563 -0.0241 -0.0853
 1338ERGO    R417427   5.476  15.070   6.866 -0.1414 -0.0454 -0.1552
 1338ERGO    R517428   5.372  15.248   6.796 -0.0605  0.0268 -0.0871
 1338ERGO    C117429   5.378  15.319   7.170 -0.0193 -0.1109 -0.0621
 1338ERGO    C217430   5.453  15.450   7.481  0.0158 -0.1540  0.1308
 1339ERGO   ROH17431  14.898   9.348   6.104 -0.0290 -0.0178  0.2232
 1339ERGO    R117432  15.054   9.436   6.324  0.0476 -0.0202  0.1683
 1339ERGO    R217433  14.944   9.559   6.545  0.1340  0.0268  0.1778
 1339ERGO    R317434  15.075   9.363   6.679  0.1352  0.0235  0.1743
 1339ERGO    R417435  15.046   9.579   6.875  0.0888  0.0138  0.1937
 1339ERGO    R517436  15.232   9.479   6.818  0.1099  0.0320  0.2043
 1339ERGO    C117437  15.229   9.406   7.192  0.0635  0.0032  0.1998
 1339ERGO    C217438  15.283   9.425   7.542  0.5571  0.2046 -0.4126
 1340ERGO   ROH17439   4.116   2.199   5.530  0.0828 -0.0151 -0.0643
 1340ERGO    R117440   4.180   2.108   5.790  0.2369  0.0081 -0.0929
 1340ERGO    R217441   4.353   2.244   5.957  0.1182  0.1750 -0.0994
 1340ERGO    R317442   4.144   2.231   6.130  0.1611 -0.0937 -0.0646
 1340ERGO    R417443   4.382   2.227   6.301  0.1921  0.1607 -0.1066
 1340ERGO    R517444   4.218   2.083   6.302  0.3613 -0.0302 -0.0973
 1340ERGO    C117445   4.202   2.205   6.664  0.2755 -0.0999 -0.0780
 1340ERGO    C217446   4.318   2.192   7.009  0.0646  0.1965 -0.0918
 1341ERGO   ROH17447  18.065   2.912   6.145  0.0234  0.2805 -0.2168
 1341ERGO    R117448  18.122   3.062   6.378 -0.0518 -0.0325  0.0099
 1341ERGO    R217449  18.258   2.956   6.593  0.0929 -0.2596 -0.1836
 1341ERGO    R317450  18.420   3.171   6.556 -0.1017 -0.0562  0.1059
 1341ERGO    R417451  18.447   3.105   6.841 -0.1339 -0.3345  0.0388
 1341ERGO    R517452  18.394   3.300   6.757 -0.2927 -0.2947  0.2355
 1341ERGO    C117453  18.709   3.394   6.951 -0.4485 -0.1871  0.4401
 1341ERGO    C217454  18.875   3.382   7.354 -0.0456  0.1581  0.1850
 1342ERGO   ROH17455   6.681  12.491   6.373  0.0648  0.2309  0.1951
 1342ERGO    R117456   6.817  12.363   6.585 -0.0091  0.0472  0.1340
 1342ERGO    R217457   6.877  12.491   6.822  0.1860 -0.0605  0.1468
 1342ERGO    R317458   6.746  12.280   6.932 -0.0042  0.0498  0.1353
 1342ERGO    R417459   6.864  12.421   7.161  0.1400 -0.0796  0.1407
 1342ERGO    R517460   6.887  12.210   7.113 -0.0587 -0.0976  0.1208
 1342ERGO    C117461   6.734  12.182   7.461 -0.0654  0.0128  0.1263
 1342ERGO    C217462   6.714  12.082   7.802  0.0020  0.1549 -0.0096
 1343ERGO   ROH17463  13.224   3.190   5.965 -0.2355  0.3742  0.0752
 1343ERGO    R117464  13.165   3.260   6.233 -0.0185  0.3518  0.1308
 1343ERGO    R217465  13.254   3.112   6.448 -0.0711  0.1779  0.0329
 1343ERGO    R317466  13.354   3.351   6.530  0.2406  0.0411  0.0683
 1343ERGO    R417467  13.222   3.241   6.767 -0.1718  0.3009 -0.0259
 1343ERGO    R517468  13.187   3.438   6.679  0.2280  0.3441 -0.1099
 1343ERGO    C117469  13.297   3.541   7.030  0.0622  0.2441 -0.0269
 1343ERGO    C217470  13.457   3.780   7.205 -0.0885 -0.2073 -0.0727
 1344ERGO   ROH17471  12.505  11.046   5.566  0.2114  0.1823 -0.1772
 1344ERGO    R117472  12.602  10.935   5.808  0.1639  0.1076 -0.1923
 1344ERGO    R217473  12.813  11.046   5.948  0.1479  0.0533 -0.1276
 1344ERGO    R317474  12.636  11.044   6.154  0.1154  0.0074 -0.1555
 1344ERGO    R417475  12.896  11.084   6.281  0.0919  0.0275 -0.1101
 1344ERGO    R517476  12.751  10.930   6.330  0.1034  0.0021 -0.1499
 1344ERGO    C117477  12.778  11.104   6.668  0.0286 -0.0306 -0.1261
 1344ERGO    C217478  12.725  11.162   7.032 -0.0333  0.2482 -0.2112
 1345W        W17479  14.623   9.657   3.077  0.3190  0.1488  0.0669
 1346W        W17480   4.210   1.468   4.836  0.0341  0.2796 -0.0748
 1347W        W17481   6.507   6.094  12.661  0.0507 -0.2429 -0.0844
 1348W        W17482   2.695  13.022   2.351  0.4394 -0.3669  0.1092
 1349W        W17483   3.917   9.706  14.504 -0.1356 -0.1309  0.0896
 1350W        W17484   6.937  15.586  13.404  0.0140  0.0830 -0.0133
 1351W        W17485  10.872  14.044   0.828 -0.0812  0.0873  0.0852
 1352W        W17486  16.020  11.639   3.312  0.1070 -0.1073  0.0339
 1353W        W17487  18.887   2.250   4.619  0.1431 -0.2046 -0.1801
 1354W        W17488  16.574  11.793  13.887 -0.1126  0.0081  0.3985
 1355W        W17489  13.076  11.636  13.671 -0.3936  0.5086 -0.0087
 1356W        W17490  15.815   6.592   2.081 -0.1168  0.2041 -0.0846
 1357W        W17491  14.181   9.798  13.735 -0.3677  0.1062  0.1852
 1358W        W17492  18.030   7.869   1.290  0.1480  0.0051 -0.1169
 1359W        W17493   1.042  17.669   1.085  0.0822  0.0797  0.0225
 1360W        W17494   7.349   8.990   4.681  0.3627 -0.3640 -0.0077
 1361W        W17495   3.822   2.510   1.354  0.0321 -0.0236 -0.1772
 1362W        W17496  17.269   0.494   9.773  0.0005 -0.1894 -0.0122
 1363W        W17497   6.485   1.597   1.758 -0.0711 -0.1532  0.1005
 1364W        W17498  10.554  17.945   5.241 -0.0171  0.2315 -0.1768
 1365W        W17499  10.121  15.490   1.785 -0.5099 -0.1723  0.0844
 1366W        W17500  13.013  14.519  10.923 -0.1386  0.0927 -0.3102
 1367W        W17501  15.914   2.274  11.952  0.1395 -0.0241 -0.1877
 1368W        W17502   9.724   3.321  13.666  0.2760 -0.3861 -0.1474
 1369W        W17503   8.193  15.217  13.025 -0.0154 -0.3536 -0.0533
 1370W        W17504   7.971   2.846  12.707 -0.1032  0.1203 -0.1444
 1371W        W17505  11.827   9.024  14.438  0.3941 -0.3224  0.1436
 1372W        W17506  15.916   0.267  10.832  0.0891  0.2647  0.0949
 1373W        W17507   8.595   7.170  11.586  0.1336 -0.2307 -0.0856
 1374W        W17508   6.873   3.699   3.636  0.1053  0.2667  0.0637
 1375W        W17509  13.358   8.869  13.188 -0.0413 -0.0312  0.1814
 1376W        W17510   9.788  18.833  14.586 -0.2575  0.0206 -0.3039
 1377W        W17511   1.291  14.271   4.157  0.1038  0.0487 -0.0267
 1378W        W17512  13.471  18.884  14.778 -0.2250  0.3521 -0.3005
 1379W        W17513   6.743  11.748   3.584 -0.0751 -0.2345  0.0406
 1380W        W17514   2.631   4.153  12.582  0.0044  0.1152  0.1833
 1381W        W17515   3.696   1.038   0.496  0.1272 -0.1776 -0.0437
 1382W        W17516  15.376   7.274  13.048  0.1820 -0.0415  0.1907
 1383W        W17517   3.925   8.789   0.156  0.1637  0.0971  0.2917
 1384W        W17518  10.365  13.265  11.772  0.2016  0.2243 -0.1684
 1385W        W17519  16.153   4.974  12.631  0.0545 -0.1764  0.0273
 1386W        W17520  16.899  17.985   4.924 -0.1098  0.1575 -0.2434
 1387W        W17521   1.204   0.548   4.114  0.3055  0.1957 -0.1356
 1388W        W17522   2.069   0.827   4.901  0.0094 -0.1981 -0.3276
 1389W        W17523  18.067   4.814  13.031 -0.2233  0.1978  0.1311
 1390W        W17524   3.766  12.858  13.191 -0.3919 -0.0557  0.3019
 1391W        W17525  10.324   8.141   1.473 -0.2224  0.2893 -0.1302
 1392W        W17526  10.612  18.490   2.284  0.0202  0.0577  0.0475
 1393W        W17527   8.808   7.274  10.737 -0.1069 -0.1141  0.0275
 1394W        W17528   9.502   8.121  13.611 -0.0391  0.1164  0.0216
 1395W        W17529  13.452   0.918   4.421  0.1682 -0.1373  0.1012
 1396W        W17530   0.283   3.934   5.581  0.0775 -0.4022  0.0843
 1397W        W17531  16.375  11.480   1.614  0.0384 -0.2069  0.2782
 1398W        W17532  14.122   6.020  14.682 -0.1144  0.1787  0.1527
 1399W        W17533  17.547  15.851   3.122 -0.2211  0.1404 -0.0204
 1400W        W17534  18.515   6.067  13.950 -0.3705  0.0335 -0.0664
 1401W        W17535   0.644  10.358   0.168 -0.1641  0.2998  0.0297
 1402W        W17536   4.736   5.081   1.929 -0.1289 -0.1007  0.1716
 1403W        W17537  15.707   4.146  12.082 -0.4369 -0.0150  0.1694
 1404W        W17538   9.275   6.128  12.624  0.0074 -0.0710  0.0166
 1405W        W17539  18.033   8.800   0.993 -0.2605 -0.4521  0.0888
 1406W        W17540  16.412   0.523  11.484  0.0342 -0.3287 -0.0374
 1407W        W17541   1.944   1.628  14.211  0.0473 -0.1028 -0.0171
 1408W        W17542   7.432  12.766   1.287 -0.0334 -0.1719  0.1780
 1409W        W17543   2.148  14.990   2.671  0.1397 -0.1954 -0.0940
 1410W        W17544  18.832  14.155  11.302 -0.0858 -0.0066 -0.0846
 1411W        W17545   2.760  12.178   3.577 -0.4064  0.0983 -0.2894
 1412W        W17546  15.287   6.984  13.512 -0.0978 -0.1046 -0.3227
 1413W        W17547  16.849  10.285  11.031 -0.1000  0.1701 -0.0222
 1414W        W17548  10.942  17.806   0.968  0.1870  0.1146 -0.1577
 1415W        W17549  15.840  13.512  10.948  0.3302  0.1733 -0.0204
 1416W        W17550   0.261  18.943  12.599  0.1456  0.1225 -0.0090
 1417W        W17551   9.726   2.268   3.122 -0.0138  0.1408  0.3058
 1418W        W17552   5.512   0.241  12.248 -0.1144 -0.0364  0.0418
 1419W        W17553   7.738   5.498  10.698  0.0685 -0.1752  0.3364
 1420W        W17554  18.869   1.440  15.076 -0.0202  0.0516 -0.1686
 1421W        W17555  11.777   3.298  10.479  0.2315 -0.0886  0.0303
 1422W        W17556  13.873   6.729  13.524  0.0912 -0.1350 -0.0519
 1423W        W17557  12.591  10.739  12.173 -0.1751  0.0287 -0.0265
 1424W        W17558  16.666  10.229  13.521 -0.0356  0.2653  0.1991
 1425W        W17559   2.584  17.472   2.288  0.1156 -0.4323  0.2415
 1426W        W17560   3.018   3.086   0.606 -0.2481 -0.0395 -0.1423
 1427W        W17561  15.222  13.355   4.654  0.0012  0.3975 -0.3279
 1428W        W17562   1.963   7.087   1.872  0.3395 -0.0297 -0.0276
 1429W        W17563   6.727  18.462  12.527  0.1401  0.1834 -0.0214
 1430W        W17564   3.349  14.825   3.454 -0.2410 -0.0188  0.1560
 1431W        W17565  13.809   0.550   3.300  0.2230  0.2582 -0.4712
 1432W        W17566   0.420   0.061   1.733  0.3371 -0.2788 -0.2470
 1433W        W17567  11.058  16.725   2.719 -0.2180  0.0781  0.2577
 1434W        W17568   4.982   9.801  15.083 -0.1676 -0.5411  0.1596
 1435W        W17569  12.632   0.317   5.075  0.0600 -0.1803  0.1436
 1436W        W17570   0.272   7.512   1.028  0.0109  0.2228  0.0375
 1437W        W17571   8.662   0.649  12.721 -0.2075 -0.1694  0.0220
 1438W        W17572   0.181   5.627  14.046 -0.2434  0.0524  0.2302
 1439W        W17573  10.894   4.224   5.152  0.0406  0.1645 -0.1311
 1440W        W17574   1.188  12.358  13.934  0.0694 -0.0951  0.0032
 1441W        W17575   6.147   2.998   2.739  0.2296 -0.0299  0.1130
 1442W        W17576  17.479  10.054  14.476 -0.4362 -0.2168 -0.0514
 1443W        W17577  10.804   8.115  13.634 -0.1581  0.2235  0.1479
 1444W        W17578   8.850   4.145   2.770 -0.1507 -0.0851 -0.0699
 1445W        W17579  18.946   6.944   1.817  0.1299  0.1368 -0.0192
 1446W        W17580   2.581   1.171   0.672  0.2038  0.0212 -0.0690
 1447W        W17581  15.758  11.310  14.002  0.1587 -0.0280  0.0152
 1448W        W17582   9.692   4.220   4.375  0.4735 -0.1390 -0.1159
 1449W        W17583   5.810   5.552   4.314 -0.2521  0.1690 -0.2463
 1450W        W17584   9.729  14.271   1.076  0.3099 -0.0151  0.3112
 1451W        W17585   1.559   5.385   1.209 -0.0670 -0.1086  0.3493
 1452W        W17586  12.021   5.005  15.172  0.0169 -0.3361  0.0949
 1453W        W17587  11.113   5.375   0.317 -0.0098  0.0775 -0.2075
 1454W        W17588  14.700  15.090   4.939  0.1416  0.2200 -0.2851
 1455W        W17589  13.210   7.963  12.548 -0.0253 -0.0594  0.1319
 1456W        W17590  10.703  11.308  13.841 -0.0479 -0.3024  0.1394
 1457W        W17591   0.683   8.066   0.532  0.3119 -0.0845  0.3697
 1458W        W17592  15.484   8.340   2.965 -0.1444 -0.1376 -0.1767
 1459W        W17593   1.250  13.705   1.562 -0.2179 -0.1643  0.2196
 1460W        W17594   6.846  12.416   4.856  0.2393 -0.0212 -0.0698
 1461W        W17595   1.277  10.653   2.057 -0.0020 -0.2127  0.2203
 1462W        W17596  12.538  16.787   5.039  0.1182  0.3307 -0.0196
 1463W        W17597   4.688  11.191   5.412 -0.1094  0.1008  0.0773
 1464W        W17598  14.096  10.812  11.499  0.2170  0.1023  0.0277
 1465W        W17599  15.192  16.312  11.506  0.1098  0.1370 -0.0182
 1466W        W17600   0.481   3.408  13.566 -0.0931 -0.1535  0.4528
 1467W        W17601  15.638  14.949  10.799 -0.0055 -0.1386  0.1469
 1468W        W17602  17.095  16.014   2.792  0.0851 -0.0610  0.1016
 1469W        W17603   9.959  11.030   3.303  0.1602  0.2333 -0.2327
 1470W        W17604   5.328  14.113   2.015  0.0186 -0.0023  0.1582
 1471W        W17605   9.766  11.475   3.076  0.0725 -0.3519 -0.1980
 1472W        W17606  17.355   4.091   4.670 -0.0733 -0.0611  0.1400
 1473W        W17607  13.083   5.545  10.401  0.0035 -0.0772  0.0647
 1474W        W17608  11.700   5.396   5.132  0.0873 -0.1872 -0.1499
 1475W        W17609   5.165  15.459  11.782  0.0350 -0.2757 -0.0738
 1476W        W17610  11.651  15.017   2.867 -0.0080 -0.1057  0.0526
 1477W        W17611  10.625   5.388   1.859 -0.2588 -0.2501 -0.0777
 1478W        W17612  14.123  12.942  11.985  0.3422 -0.0878  0.1295
 1479W        W17613   7.840  13.523  13.362  0.2762 -0.0784  0.4237
 1480W        W17614  16.438   6.827   9.974  0.1264  0.3585 -0.2950
 1481W        W17615  18.585   4.960  12.262 -0.3009  0.0834 -0.1493
 1482W        W17616  12.857   8.781   3.060 -0.1274  0.2960  0.1534
 1483W        W17617  13.890   8.235  10.699  0.0101  0.0108  0.4298
 1484W        W17618  16.139  18.700   2.110 -0.0486  0.0700 -0.1651
 1485W        W17619  12.797  13.255  11.452 -0.1075  0.0861  0.0513
 1486W        W17620   4.428   7.581  15.227 -0.2081  0.0767  0.1130
 1487W        W17621  16.903   0.583  14.812 -0.0247 -0.2552 -0.1287
 1488W        W17622  11.943  12.991  13.502 -0.1668  0.0752  0.1175
 1489W        W17623  17.473   7.373   2.471  0.2348  0.2102 -0.1166
 1490W        W17624  11.204   4.038  13.838 -0.1449  0.2310 -0.0184
 1491W        W17625   4.468  14.966   2.694  0.2223 -0.1396  0.1174
 1492W        W17626  16.171  13.036  10.438  0.1576  0.0021  0.5281
 1493W        W17627   0.974  15.768   5.369  0.0301 -0.0094  0.1374
 1494W        W17628  14.911  14.762   2.487  0.1556 -0.1336 -0.1359
 1495W        W17629   3.896  10.188  14.734 -0.1396  0.4055  0.1236
 1496W        W17630  12.000   2.939   1.679 -0.0725 -0.0902 -0.1942
 1497W        W17631   0.027  16.685  14.314  0.1201 -0.0407 -0.0006
 1498W        W17632   3.218  12.486   1.279 -0.1872 -0.3552  0.0850
 1499W        W17633   3.346   4.686  11.717  0.0143 -0.0342 -0.0908
 1500W        W17634   7.101   2.927  14.805  0.2469  0.1735 -0.4333
 1501W        W17635  18.780   8.433   0.814 -0.0971 -0.1154 -0.0519
 1502W        W17636  15.619   6.048   4.193  0.2417  0.0525  0.2778
 1503W        W17637   7.124   3.584  12.782 -0.0087 -0.2110 -0.1456
 1504W        W17638  18.310  17.824   4.733  0.1000  0.0365 -0.0001
 1505W        W17639   3.568  13.368  11.668 -0.0149 -0.0123  0.2674
 1506W        W17640   9.897   4.259   1.986 -0.0481  0.2469  0.0213
 1507W        W17641  16.083   4.712   0.391 -0.0984 -0.1149  0.1935
 1508W        W17642  15.893   3.402   0.030 -0.0605 -0.1407  0.2157
 1509W        W17643  14.667   7.163   1.335 -0.2709  0.1697  0.0991
 1510W        W17644  10.493   0.155  12.132  0.0154  0.0517  0.0756
 1511W        W17645   5.816  13.923   0.688  0.2050  0.0968 -0.0226
 1512W        W17646   7.017   1.190  11.546 -0.1712  0.1537 -0.3192
 1513W        W17647  14.750  10.151  13.460 -0.0414 -0.1209  0.3640
 1514W        W17648   9.872  12.822   2.776  0.0931  0.1448  0.1708
 1515W        W17649   8.370   6.397  12.349  0.0780  0.3281 -0.0177
 1516W        W17650   1.547   9.445  13.739 -0.1444  0.1309 -0.1808
 1517W        W17651   5.738  10.151  12.346  0.4406 -0.4818 -0.2806
 1518W        W17652  18.182   6.959  11.621 -0.0747  0.1124 -0.2083
 1519W        W17653  13.092   7.742   3.003  0.2316  0.0021 -0.3543
 1520W        W17654  15.775   6.779  11.993  0.0480  0.2189 -0.2911
 1521W        W17655  15.434  18.973   5.358 -0.0677 -0.1858 -0.0423
 1522W        W17656  14.905   1.429   0.065  0.0505  0.0265  0.2815
 1523W        W17657   7.702   9.234  13.971  0.2912  0.0822 -0.0499
 1524W        W17658   4.822   6.582  11.461  0.1177 -0.1470  0.1231
 1525W        W17659  18.772   5.447   4.096 -0.1688 -0.2767  0.1158
 1526W        W17660  16.100   7.585   0.275 -0.1458 -0.0582  0.1850
 1527W        W17661  18.367  15.646  14.530  0.0845 -0.0459  0.1563
 1528W        W17662  18.806  14.205   4.225 -0.2641 -0.0309  0.4724
 1529W        W17663   2.762   9.686  14.942  0.0351 -0.2232  0.2924
 1530W        W17664   4.190  10.630   3.290 -0.1583 -0.0676 -0.0199
 1531W        W17665   0.281   2.539   3.493  0.2548 -0.1179  0.0661
 1532W        W17666   5.016   3.595   5.263 -0.2296  0.0821  0.0633
 1533W        W17667  16.166   7.967   1.878  0.0206  0.0251  0.1492
 1534W        W17668  16.987   0.160   3.005  0.1119 -0.1611 -0.0555
 1535W        W17669  13.330  15.154   1.179 -0.0277  0.1365  0.2332
 1536W        W17670   8.909   3.004   3.113 -0.0264 -0.0866 -0.2092
 1537W        W17671   1.144   7.177   0.535 -0.0478 -0.2998 -0.0450
 1538W        W17672   5.129  18.220   1.620 -0.2416 -0.0390 -0.0969
 1539W        W17673  10.871  15.783   9.960  0.1045  0.0842  0.1955
 1540W        W17674   5.303  11.979   3.569  0.2663  0.1016  0.2150
 1541W        W17675  17.576  10.884  12.137  0.0486 -0.0913  0.0980
 1542W        W17676   7.274  10.504  12.129 -0.0322 -0.2184 -0.0836
 1543W        W17677   2.096  11.935   2.042  0.2293 -0.0953  0.0519
 1544W        W17678   0.979  13.777  13.709  0.3054  0.1199  0.0066
 1545W        W17679   0.964  16.793   5.674 -0.0407 -0.2731 -0.1062
 1546W        W17680  17.650   0.116  11.971  0.1036  0.2817  0.2345
 1547W        W17681  17.891  11.718  11.585 -0.1262 -0.2180 -0.2985
 1548W        W17682   3.408   6.550  12.979  0.0546  0.0590 -0.0155
 1549W        W17683   0.368   3.299   4.487 -0.1507  0.0531 -0.0840
 1550W        W17684   0.778  18.355   4.018 -0.0469  0.2320 -0.1609
 1551W        W17685   8.103   3.566   1.696 -0.0759  0.0762  0.0030
 1552W        W17686   0.122   1.982   3.234 -0.0306  0.0811 -0.0111
 1553W        W17687  17.507   9.933   0.768 -0.3034 -0.1015  0.1198
 1554W        W17688   9.384  17.697  11.441  0.1782 -0.0359  0.2276
 1555W        W17689  17.128   8.294  12.825 -0.2099  0.2510 -0.1874
 1556W        W17690  15.049  13.906  11.870  0.2536 -0.1629  0.3792
 1557W        W17691  12.265   7.265  15.158  0.0530  0.0472  0.1463
 1558W        W17692   1.918   9.700  10.950 -0.2340  0.2587  0.0837
 1559W        W17693  15.567   1.390   0.653  0.1355  0.0384 -0.2253
 1560W        W17694   4.423   1.962  13.650  0.2309  0.0926 -0.0943
 1561W        W17695   2.150   4.172  11.464  0.0081  0.1527  0.1954
 1562W        W17696  11.414  18.902  14.953 -0.0166  0.1053 -0.1309
 1563W        W17697   1.733   3.737   3.631  0.0297  0.1280 -0.0014
 1564W        W17698   3.944  19.003   3.714  0.1471 -0.0638  0.2240
 1565W        W17699   8.184   3.116  14.780 -0.0856 -0.2241 -0.0728
 1566W        W17700   9.470  11.039  14.562 -0.3119 -0.0055 -0.2124
 1567W        W17701   0.970  18.750  11.640  0.1070 -0.2628  0.1076
 1568W        W17702   9.255   6.602   5.168  0.1209 -0.1548  0.0093
 1569W        W17703   9.566  11.322   4.253 -0.1898 -0.5111  0.1832
 1570W        W17704  15.516  12.747  11.040  0.3101 -0.1637 -0.1681
 1571W        W17705  11.162   0.616   1.374  0.0160  0.0659  0.0486
 1572W        W17706  17.107  14.030   2.736 -0.3427 -0.1933  0.4718
 1573W        W17707  17.631   5.749  13.759  0.0915 -0.0954  0.1495
 1574W        W17708   2.355   9.940  14.967  0.2426  0.0380 -0.1444
 1575W        W17709  18.741   1.791  12.283  0.1210 -0.1299 -0.1189
 1576W        W17710   6.941   1.502   0.932 -0.2695 -0.1771 -0.1959
 1577W        W17711   5.110  16.444   0.562 -0.1407  0.1902  0.0224
 1578W        W17712   1.967   3.453   2.761 -0.0640 -0.3162  0.1473
 1579W        W17713   1.748   1.509   3.181 -0.1583 -0.2943  0.1049
 1580W        W17714  15.346  17.310   3.921 -0.1929 -0.2836 -0.0955
 1581W        W17715  10.976  14.411   4.707 -0.1979 -0.0241  0.4063
 1582W        W17716   3.915   7.213  10.579 -0.3287 -0.2000 -0.1115
 1583W        W17717  17.550  17.316  12.396 -0.1500 -0.1716  0.0997
 1584W        W17718   6.644  18.054   4.405  0.0679 -0.2665  0.0151
 1585W        W17719  13.842   9.117   0.276 -0.0703 -0.0349  0.1933
 1586W        W17720  10.323   0.863  13.927 -0.1754 -0.0096  0.0245
 1587W        W17721   5.160   0.389   3.349  0.4451 -0.1858  0.2032
 1588W        W17722  14.249  12.912   2.854  0.0235 -0.1461  0.0220
 1589W        W17723  16.109  13.684  12.208  0.3271  0.1122  0.1291
 1590W        W17724  17.723  17.958  11.144  0.0714  0.0767 -0.0718
 1591W        W17725   6.049   0.337  10.967 -0.0555  0.1130 -0.3846
 1592W        W17726  18.415   8.687   3.996  0.2415  0.1354 -0.1821
 1593W        W17727   2.153   3.732   2.373 -0.1123  0.1568 -0.0437
 1594W        W17728  13.102  11.110   4.676 -0.2378  0.3848  0.3755
 1595W        W17729   2.217  15.437  15.020  0.0255  0.1598 -0.1331
 1596W        W17730   4.314  12.923   2.030  0.0585  0.5412 -0.1737
 1597W        W17731   9.913  12.802  12.732 -0.1212 -0.2136  0.2292
 1598W        W17732   6.377  16.627  14.106 -0.3240 -0.4419 -0.5101
 1599W        W17733   1.092   1.635   2.062  0.2136  0.1910  0.2055
 1600W        W17734   2.043   2.355  14.654  0.0836  0.4373 -0.0013
 1601W        W17735   1.539  16.248  11.066  0.1001  0.1526 -0.0556
 1602W        W17736  18.000   8.728   4.239  0.1777 -0.0298 -0.1736
 1603W        W17737  13.038   6.576   0.601  0.0581  0.2743  0.1554
 1604W        W17738   8.257   7.270   1.665  0.0935 -0.1132 -0.1203
 1605W        W17739  16.430   7.526  14.504 -0.0594  0.1882 -0.0060
 1606W        W17740   9.933   0.097  12.145 -0.0814  0.1536 -0.0367
 1607W        W17741   7.209  17.227   3.672 -0.0192 -0.1822  0.0186
 1608W        W17742  11.619  16.672  13.580  0.0800 -0.1055 -0.0552
 1609W        W17743   8.177   9.876  14.995 -0.0563  0.2548 -0.1264
 1610W        W17744   0.482   0.559   4.505  0.2697 -0.0096 -0.1628
 1611W        W17745   4.040  14.538   3.882  0.1806  0.2000 -0.3807
 1612W        W17746  18.829   3.179   1.858  0.0488  0.1097 -0.0729
 1613W        W17747  12.438   5.181   2.198  0.0676  0.1942  0.1223
 1614W        W17748   1.266   3.087  12.779 -0.3593 -0.0269 -0.2933
 1615W        W17749   6.168  18.525   2.946  0.3477 -0.3967 -0.0047
 1616W        W17750  11.593  11.681  13.562 -0.0247 -0.0903  0.2410
 1617W        W17751  10.996   4.741  14.208 -0.2521  0.1110 -0.2338
 1618W        W17752   2.651   4.391  10.883  0.2446  0.0401  0.1628
 1619W        W17753  12.250   0.897   9.513  0.3101  0.1159  0.0742
 1620W        W17754   9.093   8.356   4.895 -0.0638  0.0585  0.3746
 1621W        W17755  15.936  14.333  11.110  0.0446  0.3000 -0.2366
 1622W        W17756  13.312  10.595  10.864  0.1866  0.1519  0.0400
 1623W        W17757  14.405   9.176  13.681 -0.1129  0.1458 -0.0049
 1624W        W17758  11.572  17.203   1.670  0.1443  0.0689 -0.1137
 1625W        W17759  16.216   6.382   3.447 -0.0973 -0.1816  0.1313
 1626W        W17760   5.821   2.061   2.943  0.3090 -0.0164 -0.1290
 1627W        W17761  16.232  13.725  14.760 -0.1106  0.0701  0.2773
 1628W        W17762   8.834   6.312   4.917 -0.1322 -0.1859 -0.0241
 1629W        W17763  12.267  18.999   4.202 -0.0285 -0.2001  0.0268
 1630W        W17764   7.774  12.551  13.925  0.2726  0.0324  0.1602
 1631W        W17765  11.726   9.796  10.937  0.0538  0.4001  0.2829
 1632W        W17766   7.147   2.881  13.565  0.4068 -0.1046  0.0721
 1633W        W17767  14.458  14.287  12.336  0.1639 -0.1712 -0.1164
 1634W        W17768  16.010   9.841   0.084  0.1700  0.3158 -0.1464
 1635W        W17769   2.764   8.978  11.995  0.0647  0.0477  0.0305
 1636W        W17770  14.491  13.441   4.611  0.0236 -0.0299 -0.1641
 1637W        W17771   7.901   2.778  11.175  0.1639 -0.1624  0.0290
 1638W        W17772   6.928   3.266  12.372 -0.2847  0.0652 -0.0744
 1639W        W17773  11.077  17.920   1.754  0.0086  0.2145 -0.1256
 1640W        W17774  16.203   3.071   2.760 -0.1903  0.2311 -0.1345
 1641W        W17775   3.162   5.510   0.578 -0.1343 -0.0425 -0.1176
 1642W        W17776  10.255  12.479   3.823  0.0757  0.0389  0.1409
 1643W        W17777   7.180  10.711  12.933  0.0238 -0.0194  0.4231
 1644W        W17778  15.965   7.272  12.280  0.1638 -0.1347  0.1450
 1645W        W17779  17.192  14.198   4.776 -0.2601  0.0317  0.2617
 1646W        W17780   3.614   1.702  13.474  0.2513 -0.1608 -0.1779
 1647W        W17781   2.515   8.073   3.993 -0.0945  0.0435 -0.1400
 1648W        W17782  15.881   4.071   0.623 -0.0938 -0.0774  0.1594
 1649W        W17783   3.760  13.263   3.946 -0.3396 -0.0580 -0.0430
 1650W        W17784  16.563  13.759   0.098  0.0503 -0.1347 -0.2306
 1651W        W17785  14.084  11.330   4.491 -0.1875 -0.0868 -0.1051
 1652W        W17786  17.899   1.502  11.840  0.1189 -0.0069 -0.0590
 1653W        W17787   2.098   7.108   3.979 -0.1622  0.0743 -0.1066
 1654W        W17788   1.805   8.142  10.600  0.1650 -0.2084  0.1548
 1655W        W17789   6.179   1.142  12.891 -0.1934 -0.0917 -0.1809
 1656W        W17790   7.820   6.667   0.656 -0.2658  0.1422  0.0691
 1657W        W17791  18.812  14.397  10.572 -0.0642  0.1608  0.2097
 1658W        W17792  12.712  12.385  13.274 -0.0887  0.1101  0.0871
 1659W        W17793   2.410  15.189   4.326  0.1723  0.1780  0.0478
 1660W        W17794  13.529   5.571   5.144 -0.1467  0.1476 -0.1389
 1661W        W17795  14.586  12.917  10.268  0.0995 -0.1117  0.0189
 1662W        W17796  12.941  10.706   1.927 -0.0881  0.2535 -0.2137
 1663W        W17797  16.736   2.891   2.869 -0.0940 -0.1935 -0.0292
 1664W        W17798  15.041  11.850  14.319  0.0447 -0.2715 -0.1018
 1665W        W17799  17.356  15.818  10.066  0.0203 -0.2595  0.3885
 1666W        W17800   7.694  18.505  14.397 -0.0082 -0.2637 -0.1155
 1667W        W17801   2.691  17.544   2.828  0.1092  0.0838 -0.1513
 1668W        W17802  13.747   1.705  14.107  0.2751 -0.0015 -0.0044
 1669W        W17803   8.170  16.252   0.425 -0.1467 -0.2893  0.2684
 1670W        W17804  10.768  18.872  11.361  0.1786 -0.0770 -0.3856
 1671W        W17805   6.812  12.712  10.716  0.0058 -0.3462  0.0137
 1672W        W17806  17.434   0.605  11.863  0.1525 -0.1973 -0.0118
 1673W        W17807   2.210   5.299  15.203 -0.1341 -0.0732  0.0011
 1674W        W17808   1.282   0.342  10.846  0.0089 -0.2608 -0.0615
 1675W        W17809   4.208   3.752   9.342  0.2658  0.0862  0.0630
 1676W        W17810  17.888  14.561   9.760 -0.3480  0.0723 -0.1090
 1677W        W17811   0.666  15.616   5.753 -0.2428  0.0032 -0.0131
 1678W        W17812   2.519   1.092  11.128  0.3526  0.0739  0.1945
 1679W        W17813  13.171  16.983   2.352  0.1206  0.2813  0.2318
 1680W        W17814   1.248   3.240   0.872 -0.1163  0.2291 -0.1733
 1681W        W17815   9.712  14.436   4.464  0.1956 -0.2837 -0.2893
 1682W        W17816   2.853   1.600  13.223  0.1147  0.0051  0.1089
 1683W        W17817   4.593   0.225  11.225  0.3262 -0.1260 -0.0472
 1684W        W17818  11.137   7.499  12.607  0.2426  0.1447 -0.1723
 1685W        W17819   9.009  13.285   1.829 -0.0155 -0.2472  0.1590
 1686W        W17820  16.559   6.957  11.759  0.0515  0.2467  0.4606
 1687W        W17821   2.632  14.800   2.653 -0.2644 -0.3475 -0.0060
 1688W        W17822  18.214   9.574  13.813 -0.2975 -0.0480 -0.1797
 1689W        W17823   7.132   4.979  14.003 -0.1103  0.0885  0.2655
 1690W        W17824   7.239  16.425  15.074  0.0085  0.2338 -0.3100
 1691W        W17825  17.124  12.061   3.545 -0.2731 -0.1267  0.1818
 1692W        W17826   5.233   0.683  12.342  0.3466 -0.0997  0.0296
 1693W        W17827  14.353  10.918   2.037  0.2168 -0.1596 -0.4914
 1694W        W17828  15.591   3.311  13.304 -0.1311 -0.0373 -0.0965
 1695W        W17829  18.682   6.506   1.508  0.1117  0.1056  0.0875
 1696W        W17830   3.845   5.280   2.991  0.1140 -0.1704  0.1509
 1697W        W17831  12.466  11.675   5.431  0.0617  0.0383  0.2860
 1698W        W17832   0.417   7.243   0.075  0.2430  0.1548  0.2490
 1699W        W17833  11.756  18.437   3.462 -0.2270  0.4068  0.1860
 1700W        W17834  14.608   4.647   1.045  0.0553 -0.2269  0.0485
 1701W        W17835  11.580   2.825  10.296 -0.0709 -0.0639 -0.2713
 1702W        W17836   2.657  16.484   0.517  0.0678  0.2290  0.1368
 1703W        W17837   0.933  14.733   5.445 -0.1918 -0.0507  0.0503
 1704W        W17838   6.364  14.522   2.597  0.2228  0.1658  0.2119
 1705W        W17839  14.485  15.786  14.176  0.0775 -0.1183  0.4367
 1706W        W17840   6.982  14.103   4.410 -0.0797  0.3675  0.0956
 1707W        W17841   5.694   8.542  15.216 -0.1619  0.2382 -0.1072
 1708W        W17842  14.853   8.858   3.218  0.0506 -0.1165 -0.2230
 1709W        W17843  11.153   3.316   3.227 -0.0865  0.0492  0.0205
 1710W        W17844   6.682   8.512  10.487 -0.4018 -0.2187 -0.0223
 1711W        W17845  12.868  14.278   2.384 -0.2338 -0.2340  0.0979
 1712W        W17846  16.995   6.036  11.942  0.4048  0.1133 -0.0008
 1713W        W17847  13.348   1.933   5.745 -0.1904 -0.2425 -0.1560
 1714W        W17848  13.087   3.214   4.685  0.0516  0.2591  0.0231
 1715W        W17849   9.722   5.444  14.712  0.1552  0.2640 -0.1530
 1716W        W17850   7.731  17.734   0.129 -0.4329 -0.0580 -0.2329
 1717W        W17851  16.007   0.274  11.329  0.3249 -0.0970  0.0077
 1718W        W17852  18.882   1.499   3.421  0.1024 -0.2744  0.2184
 1719W        W17853   0.915   3.562  10.720 -0.0021 -0.3968 -0.1911
 1720W        W17854  11.278   2.897   4.432 -0.0197  0.1096  0.1710
 1721W        W17855  17.140   0.425  12.817 -0.1391 -0.0346  0.3264
 1722W        W17856   8.585   6.371   1.034 -0.0754  0.4527 -0.0719
 1723W        W17857  18.381  17.658   2.254  0.0320  0.1336 -0.2316
 1724W        W17858   1.464   1.331  14.148 -0.1649  0.1440  0.0222
 1725W        W17859  13.086  17.631  12.679  0.2201  0.0353  0.0528
 1726W        W17860  12.780   9.781  10.217 -0.0144 -0.0067  0.3298
 1727W        W17861  15.461  15.585   0.419  0.1909  0.2036 -0.0015
 1728W        W17862  10.271  13.416   1.114 -0.0526  0.2701 -0.1651
 1729W        W17863  13.928  14.813   0.053  0.2894 -0.0981 -0.0015
 1730W        W17864   0.451   8.036  14.000  0.1791  0.2482  0.0295
 1731W        W17865   0.256  15.703   1.181  0.2492 -0.0986 -0.0421
 1732W        W17866  18.839  12.731  13.717 -0.2126 -0.0960 -0.0582
 1733W        W17867  15.419   2.670  11.474 -0.0605  0.0872  0.1010
 1734W        W17868   2.763  12.337   4.525  0.0550 -0.0735 -0.1563
 1735W        W17869   1.561   0.896  12.800  0.0880 -0.0233 -0.1369
 1736W        W17870   7.383  17.973   2.470 -0.1525 -0.3939 -0.0104
 1737W        W17871   9.942  18.030   0.770 -0.4390  0.1681 -0.0335
 1738W        W17872   3.389  12.282  13.322 -0.1517 -0.1096 -0.1791
 1739W        W17873   6.129  14.527  11.138 -0.0427 -0.0153  0.0622
 1740W        W17874  10.694  11.130  11.687 -0.1030 -0.1937  0.0857
 1741W        W17875   2.260   8.921   4.602 -0.3002 -0.0248  0.1200
 1742W        W17876   0.956   2.233   5.357 -0.1425  0.0298  0.0678
 1743W        W17877  13.993  13.529  14.963 -0.3237  0.2230 -0.1508
 1744W        W17878   8.396  16.438  15.099  0.1186 -0.1122 -0.3663
 1745W        W17879  13.276   4.662   2.414  0.3824  0.5260 -0.0354
 1746W        W17880   8.972  14.632  13.565 -0.4473  0.1673  0.0932
 1747W        W17881   0.164   6.237   4.346 -0.0893  0.2208  0.1334
 1748W        W17882   0.311   1.652   3.585 -0.0667 -0.0753  0.1942
 1749W        W17883   7.848  12.921   5.617 -0.1980  0.0402 -0.0301
 1750W        W17884   3.628  11.531   2.599  0.4126  0.0947 -0.1228
 1751W        W17885   8.766   1.657  13.489 -0.0905  0.2108  0.1162
 1752W        W17886  17.334  16.185  12.195 -0.2053  0.0015 -0.0362
 1753W        W17887  18.511   1.720   0.226  0.3307  0.2595  0.1312
 1754W        W17888  10.593   6.212  14.066 -0.0865 -0.0651 -0.1377
 1755W        W17889   9.700   8.896   5.241  0.0238 -0.0801  0.1332
 1756W        W17890  13.341   6.778   4.408 -0.2020  0.0584 -0.1639
 1757W        W17891   1.140  16.961   3.431 -0.2006 -0.1366 -0.3204
 1758W        W17892   1.521  15.822  14.478  0.2675  0.0379 -0.1339
 1759W        W17893  16.953   6.806   0.147  0.1172  0.3003 -0.0293
 1760W        W17894  18.093  10.881  13.281  0.1367 -0.1248  0.1237
 1761W        W17895  12.824   0.450  13.887  0.0176  0.1053 -0.1040
 1762W        W17896   4.233   1.964  10.597 -0.0927  0.2180  0.0798
 1763W        W17897   0.252  17.166   3.418  0.1514 -0.3107 -0.0148
 1764W        W17898   9.084   9.174  10.784 -0.0343  0.4676 -0.3520
 1765W        W17899  18.715   6.167   1.153  0.0289  0.0405  0.3672
 1766W        W17900   8.480   2.149   1.274  0.0677  0.0618 -0.0514
 1767W        W17901  16.923   6.020   3.516 -0.3484 -0.1424 -0.1248
 1768W        W17902  12.932  16.640   3.417 -0.0881  0.1072  0.0966
 1769W        W17903  17.266   9.326  15.130 -0.0320  0.0049 -0.1222
 1770W        W17904   8.726   6.535   3.507 -0.5361 -0.0127 -0.2771
 1771W        W17905   2.841  15.880  11.248  0.1712  0.3331  0.1944
 1772W        W17906  13.128   1.708   0.176 -0.0646  0.2123  0.1058
 1773W        W17907   3.436  11.622   1.635  0.1115 -0.1013  0.1141
 1774W        W17908   5.790  12.756   3.532  0.2155 -0.1374 -0.0465
 1775W        W17909  10.951   7.987  10.545  0.0240 -0.0607 -0.3512
 1776W        W17910   7.028  16.338  14.457 -0.0026  0.0247  0.0023
 1777W        W17911  15.331   3.497   1.048  0.0526 -0.0614  0.1650
 1778W        W17912  12.787   3.231  14.547 -0.1238  0.2789  0.2486
 1779W        W17913  15.612   5.898   5.818 -0.0274 -0.0482  0.1699
 1780W        W17914   1.236   3.736   4.942 -0.0779 -0.3604 -0.0781
 1781W        W17915   0.617  13.650   2.163 -0.2372 -0.4509 -0.0103
 1782W        W17916   8.248  16.790   5.488  0.1473 -0.0860  0.4179
 1783W        W17917  18.234   1.855   2.888  0.0939 -0.0443 -0.1098
 1784W        W17918  16.387   8.123  11.339 -0.0573  0.1378  0.2577
 1785W        W17919  14.830   8.825  13.445  0.1212  0.1354 -0.3315
 1786W        W17920  16.113   1.898  12.290 -0.0833 -0.3193  0.2401
 1787W        W17921   4.365  14.031   5.187 -0.0657  0.0056 -0.0755
 1788W        W17922  17.317  12.560  12.498 -0.0745 -0.2066  0.0339
 1789W        W17923   7.631  11.676   2.350  0.4205 -0.4688 -0.1450
 1790W        W17924   0.143   0.848   0.146 -0.1858  0.2129  0.1943
 1791W        W17925  17.193  15.237   2.504 -0.0864 -0.0577  0.2109
 1792W        W17926   3.665   5.650  13.313  0.0771 -0.1403  0.2635
 1793W        W17927  16.220   2.803  11.325 -0.2731  0.1886  0.0571
 1794W        W17928   3.725  14.577   0.452 -0.3380  0.0961  0.2207
 1795W        W17929  13.109  11.929  15.020 -0.2135 -0.1595  0.0535
 1796W        W17930  16.736  16.394  11.889 -0.3417 -0.1431  0.0897
 1797W        W17931   3.408  13.677   2.407  0.1598 -0.0901 -0.3393
 1798W        W17932   3.241   1.196  13.009  0.1768  0.0489 -0.0947
 1799W        W17933  16.765   2.472   3.543  0.0679 -0.3512 -0.0123
 1800W        W17934   1.148  16.067  14.246  0.3451  0.3205 -0.1957
 1801W        W17935  10.111  11.969   3.694 -0.1858  0.0616 -0.2401
 1802W        W17936  14.722  14.769  10.810  0.0977  0.1223 -0.1830
 1803W        W17937   3.273   1.584  14.702 -0.1340 -0.0846  0.6362
 1804W        W17938   1.599   4.282   4.167 -0.1742  0.1582 -0.1929
 1805W        W17939  10.192   5.138   3.438  0.3672  0.3809 -0.2518
 1806W        W17940  13.865   0.684  13.667 -0.2807  0.0189 -0.0097
 1807W        W17941  11.988   1.907  11.718  0.2832 -0.1294  0.4109
 1808W        W17942   0.058  16.361   1.205  0.1885 -0.0494  0.0903
 1809W        W17943   0.323  16.906   5.388 -0.3076  0.2315  0.0370
 1810W        W17944  15.028   4.049  13.092  0.1093  0.1398  0.0996
 1811W        W17945  17.454   8.198  14.617 -0.0064 -0.2607  0.1203
 1812W        W17946   6.957   3.796  12.387 -0.2064  0.1901  0.0083
 1813W        W17947   7.901  10.899  10.706 -0.0575  0.1412 -0.0707
 1814W        W17948  14.810   9.322  12.451  0.0289 -0.1339 -0.2632
 1815W        W17949  13.536   7.991   9.829  0.0160  0.1121  0.1431
 1816W        W17950  17.470   7.591   4.200  0.0062 -0.4600  0.2132
 1817W        W17951   2.838  18.918   1.438 -0.2610 -0.1921 -0.0981
 1818W        W17952  14.851  12.988   5.440  0.1180  0.1304  0.0820
 1819W        W17953   0.227  14.253   0.920  0.2052  0.2717 -0.1760
 1820W        W17954  14.503   5.416   3.425 -0.1640  0.0787 -0.2618
 1821W        W17955   5.310  15.090   2.646 -0.2259  0.3669  0.3334
 1822W        W17956   6.990   6.463   0.981  0.0872 -0.0264 -0.1040
 1823W        W17957  10.767  15.992   1.126  0.3098 -0.1999 -0.0481
 1824W        W17958  15.833  13.383   0.638 -0.1096 -0.1523  0.1378
 1825W        W17959   8.309   9.335  11.085 -0.2240 -0.2494 -0.1756
 1826W        W17960  16.348   8.570  11.574 -0.1334 -0.2004  0.0100
 1827W        W17961   2.417   6.830  13.280 -0.1247 -0.3589  0.0322
 1828W        W17962   2.002   5.875  12.575 -0.1245  0.0790  0.0778
 1829W        W17963   7.342   3.710  11.595  0.2425  0.2461  0.0437
 1830W        W17964   8.310   7.861   1.629 -0.1625  0.0533  0.1692
 1831W        W17965  10.599   7.977  11.162  0.2137 -0.4290  0.1570
 1832W        W17966   0.383  15.397   2.139  0.2593 -0.2392 -0.1027
 1833W        W17967   6.374   5.887   2.887  0.0621 -0.0326 -0.2003
 1834W        W17968  11.732   2.738   1.321 -0.2705  0.0330  0.3138
 1835W        W17969  18.369   3.407  12.876 -0.0399  0.0352 -0.1523
 1836W        W17970  11.663   3.830   2.231 -0.1726  0.0258 -0.0802
 1837W        W17971   2.682   3.723  13.281  0.3454 -0.1436  0.1463
 1838W        W17972  16.224   5.185   4.775  0.0960 -0.1396  0.2270
 1839W        W17973   4.523   6.158   3.101  0.1574 -0.0460 -0.1282
 1840W        W17974   6.586   2.604   4.722  0.1520 -0.0351 -0.1265
 1841W        W17975   9.073   4.340   2.319  0.0453 -0.0301 -0.1214
 1842W        W17976  12.636   2.224  11.933  0.0186  0.0011 -0.1677
 1843W        W17977  18.782  16.181  12.444 -0.0611  0.3566  0.0933
 1844W        W17978   7.882   8.944  14.375 -0.1267  0.0328  0.5592
 1845W        W17979   3.283   6.101   4.246  0.3836 -0.2596  0.2694
 1846W        W17980  18.618  10.564   3.656 -0.0552  0.2067  0.0400
 1847W        W17981   4.289   5.065   1.529  0.1817  0.0894 -0.1503
 1848W        W17982   9.596   1.853   4.438 -0.1765  0.0148  0.2914
 1849W        W17983  13.246   4.903  14.330  0.1834 -0.2499 -0.1632
 1850W        W17984  15.098   4.129   0.246 -0.0600  0.0223  0.1244
 1851W        W17985   9.641   4.091  12.585 -0.0821 -0.0037 -0.0730
 1852W        W17986   8.271   2.284   4.592  0.2480 -0.0228 -0.0784
 1853W        W17987  10.047  18.755   4.779 -0.5600  0.0199  0.0602
 1854W        W17988   4.365  15.316  12.188  0.0856 -0.1213 -0.1537
 1855W        W17989   4.281   3.789   0.549  0.1065 -0.1584 -0.1091
 1856W        W17990   1.266  11.054   4.373 -0.2591 -0.0040  0.2781
 1857W        W17991  16.190  15.962   5.216  0.0034  0.2999  0.0722
 1858W        W17992   3.278   7.693   0.078  0.1427 -0.0050 -0.0364
 1859W        W17993  14.786   7.123  14.361  0.0577 -0.1303  0.1091
 1860W        W17994   4.365  17.096   1.063  0.1997 -0.0835 -0.1841
 1861W        W17995   7.385   2.273   3.517  0.2145  0.1604 -0.0778
 1862W        W17996  15.402   4.239   3.108 -0.0811  0.2577 -0.0742
 1863W        W17997  12.331   1.866  11.193 -0.0623 -0.0498  0.2964
 1864W        W17998   4.527   1.675  11.661  0.2037  0.1548 -0.1612
 1865W        W17999   8.299  12.123  14.367 -0.1475 -0.1077 -0.4223
 1866W        W18000  10.395  14.758   0.755  0.3702 -0.3085  0.2875
 1867W        W18001  13.422  15.091   3.122 -0.0324 -0.4309  0.1785
 1868W        W18002   4.725   9.698   0.198  0.2484  0.1718  0.0269
 1869W        W18003  11.192  16.660   4.028  0.0731  0.1373 -0.1617
 1870W        W18004  17.115   5.662  13.722  0.0135  0.1227 -0.1598
 1871W        W18005  11.488   4.678   1.374  0.1123 -0.1541  0.1004
 1872W        W18006   7.815   4.470  11.907 -0.2197  0.2827 -0.1059
 1873W        W18007  17.389  15.385  12.913  0.0980  0.0650  0.0236
 1874W        W18008   9.574   0.459  10.601 -0.1606 -0.0504  0.1419
 1875W        W18009  14.320  16.294  12.528 -0.1718 -0.0187  0.1315
 1876W        W18010   9.203  18.575   5.559 -0.2917  0.2073  0.1005
 1877W        W18011  13.964   8.350   3.826 -0.4726 -0.0651  0.0321
 1878W        W18012  17.041   7.636  13.538 -0.2051  0.0150 -0.1895
 1879W        W18013   6.320   6.968  14.581  0.0278  0.0053  0.0502
 1880W        W18014  15.029   4.003  14.481 -0.1068 -0.0604  0.0509
 1881W        W18015   1.211  13.786   4.407  0.1053  0.0340 -0.1032
 1882W        W18016   4.455  13.616   4.726 -0.0582  0.1909 -0.2078
 1883W        W18017   2.048   1.164   3.410  0.3226 -0.0614 -0.0655
 1884W        W18018   9.098  16.045  11.185 -0.2197 -0.1518  0.3306
 1885W        W18019  18.123   7.784  11.221 -0.0592 -0.1599 -0.0760
 1886W        W18020  14.880   7.812   2.446  0.0500  0.0364  0.3631
 1887W        W18021  16.739   8.757   2.476 -0.0403  0.1444 -0.1762
 1888W        W18022   3.411   8.815   1.487  0.2699 -0.1509  0.0389
 1889W        W18023  11.468   4.327   2.046  0.0788  0.1251  0.0356
 1890W        W18024  15.425   0.363  10.954  0.5318  0.1001 -0.1969
 1891W        W18025  13.553  15.365  13.395  0.0712 -0.0741  0.0550
 1892W        W18026  11.297  18.211  14.199 -0.0007 -0.0154 -0.1923
 1893W        W18027  17.699  11.174   0.790  0.4495  0.0186  0.3200
 1894W        W18028  10.184   0.439   2.458 -0.2163  0.1554 -0.0207
 1895W        W18029   7.315  15.303  13.423 -0.0100 -0.0302  0.0975
 1896W        W18030  10.639  14.086   3.712 -0.3131  0.0993 -0.2463
 1897W        W18031  18.327  11.638  14.391  0.1874 -0.0043  0.0165
 1898W        W18032  16.792   3.800  10.622 -0.1205  0.1037 -0.2478
 1899W        W18033   0.800   1.558   0.715 -0.0818  0.4779  0.1358
 1900W        W18034   2.500   2.923  13.275 -0.0445  0.2368 -0.0715
 1901W        W18035  10.942  15.375   3.589  0.1319 -0.1851 -0.0148
 1902W        W18036   2.221  18.407   0.448  0.0542 -0.1410  0.1391
 1903W        W18037   2.559   4.966  14.546 -0.0326 -0.1102  0.1456
 1904W        W18038   3.083  12.188  11.133  0.1393  0.1717  0.2800
 1905W        W18039  10.174   1.439   9.870 -0.1110 -0.0587 -0.1823
 1906W        W18040  17.506  15.045  14.481 -0.1806  0.3443 -0.0946
 1907W        W18041  16.899   8.121  11.159  0.1125  0.1510  0.2325
 1908W        W18042  12.306  14.813  10.592 -0.3303 -0.3403 -0.0773
 1909W        W18043   7.170  14.765   6.234 -0.0593  0.0218  0.0665
 1910W        W18044  10.935  15.994  11.520  0.2983  0.2331  0.0108
 1911W        W18045  16.032  14.842  13.441 -0.0831 -0.2173  0.0796
 1912W        W18046  14.996  10.768   9.924  0.0308  0.0640  0.0901
 1913W        W18047   4.903   9.460  12.093 -0.0743  0.3771 -0.0816
 1914W        W18048   4.304   9.649  11.277  0.2444 -0.1898  0.0156
 1915W        W18049   3.020   4.681  14.119 -0.2986 -0.3640  0.2248
 1916W        W18050   5.764   3.418   1.155  0.1251  0.1821  0.1242
 1917W        W18051   3.359  17.245  14.376  0.1301 -0.0486  0.0423
 1918W        W18052  13.592   0.243   0.205  0.0338  0.2474  0.3275
 1919W        W18053  12.262  10.486  13.679 -0.1352 -0.4508  0.1935
 1920W        W18054   7.688   1.528   1.433 -0.2774  0.0863  0.1449
 1921W        W18055  15.601   1.442   4.318 -0.0873 -0.0840  0.2932
 1922W        W18056  17.463  10.903   9.859  0.1843 -0.0312 -0.2104
 1923W        W18057  10.557   9.323  11.026  0.1859  0.1656  0.2585
 1924W        W18058  10.877  10.643   1.026 -0.1395  0.1640 -0.1563
 1925W        W18059  16.526   1.541   3.993  0.0381 -0.1214 -0.1512
 1926W        W18060   6.933   9.552   3.674  0.0981  0.2948 -0.1544
 1927W        W18061   2.954  15.102  13.057  0.1789  0.4756  0.0149
 1928W        W18062   1.515   3.194   2.718  0.3278  0.0093 -0.1474
 1929W        W18063  10.143  12.761  10.964  0.2045 -0.0105  0.1562
 1930W        W18064   2.778   1.296  10.828 -0.2254 -0.2808  0.3244
 1931W        W18065   1.469   4.987  11.438 -0.2401  0.0140  0.0460
 1932W        W18066  10.035   1.397  12.853  0.1769 -0.2685 -0.1162
 1933W        W18067   5.378  12.063   0.802 -0.0228  0.0870 -0.2627
 1934W        W18068  15.662   4.371   0.339  0.0674  0.3130 -0.3596
 1935W        W18069  16.467  10.797   2.765 -0.0870  0.0183  0.3519
 1936W        W18070  18.994   0.443   0.506  0.2014  0.1467 -0.4083
 1937W        W18071  13.225  17.929  11.736  0.0308  0.0474 -0.3082
 1938W        W18072   8.992  11.387  11.797  0.0889 -0.0365  0.1515
 1939W        W18073   9.671  14.002   0.215  0.0335  0.3431  0.1472
 1940W        W18074  11.417   5.591  13.936  0.1772  0.0519  0.0056
 1941W        W18075   6.694  15.758   2.989 -0.1608 -0.0571  0.3041
 1942W        W18076   4.171  15.740  13.502 -0.0951 -0.0991 -0.3377
 1943W        W18077   8.836  12.408  12.238  0.0954 -0.1395 -0.1175
 1944W        W18078  10.070   5.103  14.716  0.0100 -0.0755 -0.0241
 1945W        W18079  18.823  16.579  12.754  0.1637 -0.1858  0.2345
 1946W        W18080  17.863   3.861   4.403 -0.0492  0.0819  0.0290
 1947W        W18081  17.161  14.113   5.928 -0.0461  0.1354  0.2827
 1948W        W18082  12.401  13.156   1.022 -0.0717 -0.0300 -0.4115
 1949W        W18083   9.192  18.065  10.757  0.0057 -0.3103  0.0925
 1950W        W18084  16.446  16.435   4.015 -0.0890  0.0524  0.1248
 1951W        W18085   7.158   5.485   3.585  0.0824  0.1045  0.2343
 1952W        W18086   8.652  11.485  15.173 -0.1090  0.1023 -0.0098
 1953W        W18087   9.540   7.460   2.564  0.0467  0.0575  0.0778
 1954W        W18088  11.233   3.161   3.887 -0.1945  0.2358  0.0621
 1955W        W18089  18.957   2.449   2.611  0.1270  0.1167 -0.0108
 1956W        W18090   5.881  14.211  13.861 -0.2020  0.1219 -0.1431
 1957W        W18091  14.033  13.659   4.045  0.0777 -0.3789  0.1480
 1958W        W18092  12.970   4.613  14.942  0.0341  0.1616 -0.0227
 1959W        W18093  11.898  13.294   0.237  0.0609 -0.1912 -0.0469
 1960W        W18094  13.366   4.471   4.505 -0.1020  0.0132  0.0760
 1961W        W18095   0.488   6.400   2.614  0.0668  0.1679  0.4222
 1962W        W18096  11.171  11.401  13.640 -0.2859 -0.3503  0.0830
 1963W        W18097  10.996  11.228  14.204  0.1252  0.0620 -0.2470
 1964W        W18098  13.230   5.459  15.284  0.0568 -0.3388  0.2119
 1965W        W18099   7.305   1.904  14.720 -0.3561 -0.1459 -0.2244
 1966W        W18100   6.839  11.055  13.036  0.0235  0.1260 -0.2248
 1967W        W18101   6.371  17.959  14.342 -0.3763  0.2758 -0.2334
 1968W        W18102  14.363  18.373   1.861 -0.0481 -0.1494 -0.0385
 1969W        W18103  16.179   8.437   2.625  0.1313  0.1010  0.1515
 1970W        W18104  10.254   8.417  11.954  0.1619  0.4904 -0.0336
 1971W        W18105   1.443   5.979   0.085 -0.0336  0.3165  0.0033
 1972W        W18106   1.735   1.086  15.186  0.0079  0.0144  0.0927
 1973W        W18107   8.010   4.159   1.275  0.0677 -0.0888  0.1239
 1974W        W18108  10.319  16.534  14.036  0.1489  0.1480  0.4570
 1975W        W18109   1.291  15.221  15.061  0.0810 -0.2850  0.1422
 1976W        W18110  13.165   9.901  15.207 -0.3618 -0.0083 -0.0726
 1977W        W18111  17.620   7.339   3.383  0.0423  0.2875  0.1273
 1978W        W18112   2.236  13.386   3.834 -0.0612  0.3533 -0.0718
 1979W        W18113   0.891  11.035   5.692  0.2881  0.2780 -0.2613
 1980W        W18114  16.916  16.761   0.799  0.0350 -0.1839  0.1893
 1981W        W18115  14.715   9.608  15.151  0.1671 -0.0855  0.2022
 1982W        W18116  14.611   5.218   4.947 -0.3274  0.1174 -0.2422
 1983W        W18117  18.554   4.997  11.219 -0.2120  0.0373 -0.3195
 1984W        W18118   9.805   4.051   0.852  0.0204 -0.2938 -0.2337
 1985W        W18119  18.124   4.217  11.642 -0.4088  0.0855 -0.0580
 1986W        W18120  12.776   3.710   1.509 -0.3130 -0.2148  0.4229
 1987W        W18121   5.069   4.318   1.821  0.1586  0.6784 -0.1612
 1988W        W18122   7.793   5.367  14.203 -0.1165 -0.2024 -0.1386
 1989W        W18123   4.412  10.069   0.429  0.2299  0.1713  0.2862
 1990W        W18124   4.008   5.525  12.711  0.0813  0.0445  0.0622
 1991W        W18125  13.074   9.523   3.666 -0.0953 -0.2664  0.1067
 1992W        W18126   0.644  10.072  12.934  0.0204 -0.1252 -0.0590
 1993W        W18127   7.805  14.292  14.087 -0.3988 -0.0798  0.1528
 1994W        W18128   0.999  17.606   5.286 -0.0474 -0.3596 -0.1641
 1995W        W18129   9.523   7.127  14.597  0.2263  0.0019 -0.2025
 1996W        W18130  10.706   0.243  10.843 -0.0155 -0.1972 -0.0100
 1997W        W18131  16.672   8.887   3.302 -0.0699  0.0769 -0.0343
 1998W        W18132   5.993  12.486   5.097 -0.1376 -0.0708  0.5244
 1999W        W18133  13.430  12.492   4.941  0.0262 -0.0088  0.0934
 2000W        W18134  11.411  15.169  13.895 -0.0716  0.0446  0.1430
 2001W        W18135   7.232  13.051  12.748  0.1363  0.1753 -0.2252
 2002W        W18136   6.966   5.631  11.099 -0.0050 -0.3424 -0.1937
 2003W        W18137  10.492   4.176  11.058  0.1582 -0.2548 -0.0378
 2004W        W18138   0.617  12.230  14.605  0.1913 -0.0549  0.0128
 2005W        W18139  14.268   0.791   4.629  0.2006 -0.1889  0.2351
 2006W        W18140  11.727   7.542  13.445  0.0278  0.1447 -0.1093
 2007W        W18141   9.629   5.829  14.341 -0.2185 -0.2363  0.1588
 2008W        W18142  14.050   2.167  11.659 -0.3619  0.0227  0.1423
 2009W        W18143   8.226   2.811  11.571  0.0978  0.0298 -0.1797
 2010W        W18144  10.485  14.194   2.807 -0.0300  0.2980  0.1233
 2011W        W18145  15.206   8.838  12.207 -0.0193  0.2735 -0.0889
 2012W        W18146  17.855   0.005   1.666 -0.0839  0.4401  0.3395
 2013W        W18147   5.692   2.463   1.478  0.3353  0.1298  0.2612
 2014W        W18148   7.950   6.721  14.580  0.3859  0.0858 -0.2850
 2015W        W18149  11.240  16.298   3.656 -0.0262  0.1958 -0.1925
 2016W        W18150  14.888  18.115  14.624  0.3233  0.0716  0.2784
 2017W        W18151  10.874   3.203   1.555 -0.1914  0.3935 -0.1165
 2018W        W18152  18.377   3.776  14.003 -0.1849  0.0477  0.1038
 2019W        W18153  13.782   2.432   0.272  0.3230 -0.0446  0.0263
 2020W        W18154   3.734  16.782  13.546 -0.0801 -0.0426 -0.1559
 2021W        W18155  18.589   3.901   4.023 -0.0247 -0.0038 -0.3796
 2022W        W18156  14.344   4.148   4.182 -0.0443 -0.0989  0.0181
 2023W        W18157  10.230   3.067   2.165  0.1191 -0.2459 -0.0367
 2024W        W18158  12.294  15.491  12.290  0.0912 -0.0835 -0.0290
 2025W        W18159   1.423   0.498  13.657 -0.1473  0.1495 -0.0613
 2026W        W18160   4.354  14.528   4.353  0.2309 -0.3779 -0.2477
 2027W        W18161   0.293   8.000   2.961  0.0594  0.1796  0.0773
 2028W        W18162   6.193   4.758   5.109 -0.2010 -0.1274  0.6109
 2029W        W18163   5.835   4.275   2.319  0.1623  0.3277 -0.1187
 2030W        W18164  10.929  13.218  10.494 -0.1087  0.1973 -0.0706
 2031W        W18165  12.932  15.313   2.320 -0.0108 -0.0457 -0.0343
 2032W        W18166   6.271   6.590   1.627 -0.0070  0.2667 -0.1447
 2033W        W18167   6.539  14.213  11.218  0.1127  0.0437  0.0626
 2034W        W18168  10.316   8.768  10.204 -0.4063  0.2980  0.0385
 2035W        W18169  17.637   1.572  14.002 -0.2644 -0.0056 -0.3752
 2036W        W18170   5.811   6.454   1.514  0.1174 -0.2546  0.0347
 2037W        W18171  17.591  16.847  13.681  0.0663 -0.4075 -0.3196
 2038W        W18172   8.766   7.659   0.104 -0.1121  0.1212  0.0956
 2039W        W18173  11.190   3.283   5.477 -0.0074 -0.0902 -0.0577
 2040W        W18174  14.514  16.761  12.186  0.0251 -0.5875  0.2354
 2041W        W18175  15.416   6.744  13.107  0.0866  0.0470  0.1172
 2042W        W18176   9.198   6.158   5.527  0.2496  0.2302  0.0346
 2043W        W18177   4.790   4.877   0.961  0.2556  0.0742  0.1309
 2044W        W18178   9.039  14.894  11.888 -0.1225  0.2241  0.0740
 2045W        W18179  11.777  17.394   0.121  0.2236  0.3027  0.2496
 2046W        W18180   6.193  16.727   1.736  0.1441 -0.3632 -0.2473
 2047W        W18181   9.977  13.046   3.846  0.3529 -0.1681 -0.0329
 2048W        W18182  18.973   0.531  10.080  0.2124  0.1140 -0.0517
 2049W        W18183   1.863   8.689  14.215  0.0836 -0.0089  0.1114
 2050W        W18184  11.557   3.836   0.067 -0.2977  0.0667 -0.0563
 2051W        W18185   5.106   7.669   1.162 -0.1468 -0.0665 -0.3107
 2052W        W18186   3.694   0.280   5.785  0.0944  0.0489  0.0329
 2053W        W18187   8.444   1.601   2.680  0.2015 -0.2528 -0.0864
 2054W        W18188   3.894  13.512  12.082  0.3094 -0.0288  0.2363
 2055W        W18189  15.484   0.212   3.639 -0.5104 -0.0289 -0.0608
 2056W        W18190   9.676  12.965  11.084 -0.2209  0.1397  0.0922
 2057W        W18191  10.405  11.350  10.871 -0.1518  0.0564 -0.0590
 2058W        W18192  12.368  10.596   4.487  0.2369 -0.0165  0.2160
 2059W        W18193  10.989   5.505   9.988  0.0242  0.2353 -0.0484
 2060W        W18194   0.401   6.043   5.267  0.1357  0.0646 -0.2538
 2061W        W18195  13.571  17.217   0.910 -0.0938  0.0130  0.0103
 2062W        W18196  16.111   3.836   3.027 -0.0311  0.4088  0.0959
 2063W        W18197  18.122   4.561   2.660 -0.0119  0.1215  0.0158
 2064W        W18198  12.636   5.634   1.443  0.0011  0.1046 -0.3910
 2065W        W18199   0.537  18.496  10.896  0.3333 -0.2026 -0.0515
 2066W        W18200   1.851  15.493   1.262 -0.2062 -0.2961  0.2088
 2067W        W18201  14.321   7.697  10.835 -0.1413 -0.1252  0.0407
 2068W        W18202  10.961   4.343   3.306 -0.1410 -0.2163 -0.2099
 2069W        W18203  15.632   2.119   1.741  0.2207 -0.1019  0.0997
 2070W        W18204  14.945  13.533  13.163 -0.2449 -0.0881 -0.1489
 2071W        W18205   1.935   0.324   0.647  0.3091 -0.0298 -0.2370
 2072W        W18206   7.400   1.351  11.144 -0.1364  0.2690 -0.1300
 2073W        W18207   4.188  15.242   0.734  0.0065  0.0799  0.2820
 2074W        W18208   5.568  18.684  12.098  0.1790  0.2115 -0.2138
 2075W        W18209   9.152   0.951  12.558 -0.4780  0.2513  0.1566
 2076W        W18210   6.857   4.541   4.036 -0.3324 -0.2861 -0.0949
 2077W        W18211   5.034   3.305   3.452  0.2780 -0.0914 -0.0450
 2078W        W18212  14.709   3.018   1.077 -0.1101  0.0071  0.0955
 2079W        W18213  18.150  17.898  15.193  0.0840 -0.0561  0.1108
 2080W        W18214   0.748   3.444  14.236  0.1825 -0.2344 -0.2393
 2081W        W18215   7.778   3.616  11.289  0.1022  0.1066  0.0113
 2082W        W18216  12.213  18.381  13.983 -0.2139 -0.2141 -0.1667
 2083W        W18217  14.532   2.031  15.274  0.0350  0.4515  0.0292
 2084W        W18218   1.625   9.944   2.698 -0.1908  0.2458  0.1476
 2085W        W18219  14.492  17.807   3.601  0.2323  0.0353  0.1423
 2086W        W18220  11.197   9.742   1.095 -0.0859  0.0957  0.0277
 2087W        W18221   7.044   2.517   3.074  0.0579 -0.0527 -0.2494
 2088W        W18222  15.558  16.714   3.076 -0.3993  0.2333  0.4238
 2089W        W18223  13.599   4.713   0.547 -0.0534 -0.1509  0.0784
 2090W        W18224  13.479   0.018  14.298  0.1229 -0.0448  0.3089
 2091W        W18225   9.397  18.263  13.536  0.0949 -0.1895  0.2663
 2092W        W18226  16.719  11.978   2.360 -0.1297 -0.0536  0.0371
 2093W        W18227  15.491   0.100  11.374 -0.0864  0.0588  0.0319
 2094W        W18228   0.758   0.318   0.650 -0.0906 -0.0818 -0.0795
 2095W        W18229  12.847   3.985   4.033 -0.0735 -0.2069  0.0058
 2096W        W18230   4.386   5.641   5.457  0.0278  0.0756 -0.0692
 2097W        W18231  13.248   2.031   0.583  0.0622 -0.3217  0.1949
 2098W        W18232   0.498  15.293  12.766 -0.2560 -0.1617  0.5575
 2099W        W18233   5.347  18.560  14.996 -0.1595 -0.4863 -0.1610
 2100W        W18234   5.914  17.254  15.225 -0.2513 -0.0915  0.0974
 2101W        W18235   4.632  10.852  13.441 -0.0300  0.1697 -0.4718
 2102W        W18236  16.262  18.024  10.805 -0.1980  0.0654 -0.0063
 2103W        W18237  10.046   0.765   4.002 -0.1230 -0.0864 -0.2612
 2104W        W18238  10.535  18.627   0.792 -0.2226 -0.6830  0.0682
 2105W        W18239   9.911  12.298   0.121  0.0412  0.1549  0.2767
 2106W        W18240   0.917  15.925   3.608  0.0165  0.0088  0.0995
 2107W        W18241   5.346   8.614  12.066 -0.1647 -0.0772 -0.2160
 2108W        W18242   1.844  17.089   0.105 -0.1390 -0.0086  0.1396
 2109W        W18243  15.821   2.442  14.390  0.0253 -0.1234 -0.1697
 2110W        W18244  17.882  16.052  14.943  0.0452  0.1398  0.0051
 2111W        W18245   2.794  16.338   4.697  0.2967  0.4645 -0.2002
 2112W        W18246  10.382   3.127   1.295  0.0548  0.1186  0.2888
 2113W        W18247   6.849  15.153  10.932 -0.0308 -0.0746  0.2828
 2114W        W18248  14.930  18.831  14.322 -0.2004 -0.0543  0.1160
 2115W        W18249   4.442   9.391  10.555 -0.2532 -0.0769 -0.0436
 2116W        W18250  13.244  12.168   5.348 -0.0080 -0.0987  0.4427
 2117W        W18251  17.388   5.203   3.772 -0.2560  0.0651 -0.2567
 2118W        W18252  16.699   4.813  13.982 -0.2681  0.1925  0.0409
 2119W        W18253   6.340   6.518   4.180 -0.0255  0.0547 -0.2327
 2120W        W18254  16.951   4.076  13.932 -0.1446 -0.3656 -0.1730
 2121W        W18255  15.594  16.886   1.322 -0.3634 -0.2784 -0.1317
 2122W        W18256  18.697   9.960   2.625 -0.4512  0.1478  0.2072
 2123W        W18257   7.997   3.379  13.751 -0.3620 -0.2343  0.0715
 2124W        W18258  15.000  10.753   1.520  0.0491 -0.4208 -0.0661
 2125W        W18259  17.715  17.590   1.928  0.2602  0.0666  0.0687
 2126W        W18260   8.722  12.887   0.174 -0.5378 -0.2035 -0.1838
 2127W        W18261  16.940   7.321   4.732  0.1922 -0.3741 -0.2022
 2128W        W18262   2.251   2.565   0.321 -0.1177 -0.1711 -0.0378
 2129W        W18263  17.880   1.898   2.540  0.2882 -0.3620  0.2692
 2130W        W18264  16.938  18.600   2.778  0.3031 -0.0214  0.0535
 2131W        W18265   0.466   3.542  14.639  0.1114  0.2515  0.0366
 2132W        W18266   6.217  17.245  13.354 -0.0649 -0.4564  0.1453
 2133W        W18267  16.706   1.785  13.974 -0.0853 -0.1648 -0.2449
 2134W        W18268   1.327   6.128   3.645 -0.2146 -0.0805  0.2528
 2135W        W18269  12.119   4.795  14.733 -0.0419 -0.0452  0.3240
 2136W        W18270  12.055  10.304   4.763  0.0261  0.1098  0.2324
 2137W        W18271   0.734   9.245   3.360 -0.1151 -0.0404 -0.3034
 2138W        W18272  17.249   0.840  11.467 -0.0213 -0.1152 -0.1054
 2139W        W18273   2.784  10.933  12.391  0.2401  0.0243  0.0464
 2140W        W18274   2.933   4.180  13.053  0.0629 -0.0742 -0.0094
 2141W        W18275  14.498  18.840   4.613  0.0060  0.0824 -0.0749
 2142W        W18276   8.340  13.563  11.331 -0.3029 -0.4000 -0.2907
 2143W        W18277  14.745  11.067   1.802 -0.1261 -0.1346  0.1958
 2144W        W18278   8.861   5.312  12.688 -0.0383 -0.2598  0.1504
 2145W        W18279  17.812  17.925   5.752  0.0332  0.2299 -0.0792
 2146W        W18280   9.975   2.008  14.862  0.1802  0.2469  0.2682
 2147W        W18281  13.331  17.084   3.953  0.0751  0.1799  0.0736
 2148W        W18282   4.053   3.454  11.730 -0.2395 -0.0905 -0.0060
 2149W        W18283  17.364  13.518  10.960  0.2485  0.0480 -0.1674
 2150W        W18284  10.547   1.588  12.723  0.2300 -0.0107  0.0278
 2151W        W18285   9.519  14.442  14.732  0.1503  0.1768  0.1786
 2152W        W18286  14.322  16.817  11.749  0.2186 -0.0050  0.0214
 2153W        W18287   0.790  10.760  15.225  0.1881 -0.0750  0.0260
 2154W        W18288  17.908   6.645  13.425  0.0186 -0.1786  0.0321
 2155W        W18289  10.874  13.339  11.107  0.0094  0.1275  0.0205
 2156W        W18290  16.698   1.572   3.042 -0.0423 -0.2155 -0.2934
 2157W        W18291   2.679   8.615  12.305  0.1728  0.3759 -0.1841
 2158W        W18292  16.868   8.126   3.885 -0.1413 -0.3820  0.1840
 2159W        W18293   2.057   5.929  11.759 -0.0533  0.1554  0.0056
 2160W        W18294   0.410  10.214   5.778  0.2510  0.0911  0.0772
 2161W        W18295   6.687  13.449  14.387 -0.1006  0.0032  0.0439
 2162W        W18296  13.544   2.279  11.888 -0.2062 -0.2903  0.2660
 2163W        W18297  18.648  18.774   0.358 -0.1483 -0.1054  0.1348
 2164W        W18298  16.992  18.234   2.399  0.2867 -0.0015  0.1640
 2165W        W18299  14.439  14.660   2.177 -0.0465 -0.1067 -0.1450
 2166W        W18300   3.838  15.598  14.868  0.1611  0.1691 -0.1662
 2167W        W18301   1.698  16.898  14.221  0.4006 -0.2561  0.0091
 2168W        W18302   0.909   7.631  12.067  0.0869 -0.2526 -0.1085
 2169W        W18303   2.443  10.866   4.854 -0.1823  0.0847 -0.3354
 2170W        W18304  17.833  18.043   1.773  0.4185 -0.1090  0.1405
 2171W        W18305   2.733  13.679  11.406 -0.0539  0.0387 -0.1203
 2172W        W18306  17.005  12.211   4.443 -0.0835 -0.0981 -0.0896
 2173W        W18307   9.344  12.008  14.841 -0.0628 -0.1328 -0.2051
 2174W        W18308  13.334  12.036   1.911 -0.3432 -0.2633 -0.0580
 2175W        W18309  12.501   5.189  10.023 -0.1801 -0.1661  0.1796
 2176W        W18310  17.238  14.556  14.665  0.1406  0.1066 -0.1391
 2177W        W18311   2.963   2.222  14.516  0.1017  0.1708  0.0014
 2178W        W18312  12.537  17.082   4.310  0.0949  0.1608 -0.0121
 2179W        W18313  12.090  17.777   0.979  0.0044  0.3659  0.1716
 2180W        W18314   7.953  10.383  10.484 -0.0418  0.5449 -0.0377
 2181W        W18315   7.297  11.709   2.733 -0.1443  0.1879  0.2173
 2182W        W18316  17.420  16.178   1.477 -0.1908 -0.1530 -0.0410
 2183W        W18317  10.965  17.899  14.425 -0.0959 -0.5011  0.0140
 2184W        W18318  17.806   7.544   3.823  0.0130  0.5479 -0.1162
 2185W        W18319   9.340   8.086   2.853 -0.0329 -0.1812  0.0735
 2186W        W18320   1.627   2.695  12.942  0.3176 -0.0271 -0.0207
 2187W        W18321   4.424   3.020  10.998 -0.3128 -0.2482  0.0606
 2188W        W18322  13.530   5.467  10.579  0.1893 -0.1812 -0.0212
 2189W        W18323  12.502  15.730  10.711  0.2041  0.1177  0.4462
 2190W        W18324   7.291  17.253  13.372 -0.1374  0.0323 -0.1068
 2191W        W18325  17.518   3.114   0.109  0.0101  0.0232 -0.4046
 2192W        W18326  18.144  14.608   2.073 -0.0379  0.1538 -0.1193
 2193W        W18327   7.078  13.762   3.886  0.2132  0.0915  0.0043
 2194W        W18328  10.392  16.223   3.110  0.2392  0.2382 -0.0963
 2195W        W18329  16.659   4.852   4.889  0.5652 -0.3422 -0.1641
 2196W        W18330  17.989   6.609   1.753  0.1165  0.0473 -0.1111
 2197W        W18331   8.933  11.085  13.357  0.4752  0.0468 -0.0207
 2198W        W18332  18.338   5.006   3.853 -0.0219 -0.3865 -0.2596
 2199W        W18333  13.120  14.875   0.319  0.1217 -0.3109  0.0168
 2200W        W18334   9.034   8.535   1.552 -0.0514  0.0344  0.2464
 2201W        W18335  11.182  18.600  11.579  0.1961  0.2919  0.1526
 2202W        W18336   0.031  10.070   0.735 -0.2713 -0.2308 -0.3958
 2203W        W18337  18.229   3.637  14.920 -0.0544  0.1573 -0.1817
 2204W        W18338  15.515   9.070   4.154  0.0303 -0.1735 -0.2421
 2205W        W18339   2.155  17.594  12.074 -0.0433  0.0594  0.0473
 2206W        W18340  13.224  14.210  14.412  0.2025  0.0580 -0.0898
 2207W        W18341   0.002  18.803   1.944 -0.0055 -0.1115 -0.0904
 2208W        W18342   3.492  14.825  12.227 -0.0813 -0.0679 -0.2878
 2209W        W18343   8.637   0.732  12.211  0.0703 -0.2499  0.1966
 2210W        W18344  17.786  15.522   9.961 -0.0388 -0.0799  0.4837
 2211W        W18345   2.449   2.140  10.910 -0.0390 -0.0230 -0.3380
 2212W        W18346  15.824   8.939   4.956  0.1983 -0.0952  0.0853
 2213W        W18347  13.457   7.590  12.307 -0.1575  0.1790 -0.0766
 2214W        W18348   0.499  12.701  14.874 -0.2471  0.3326 -0.2264
 2215W        W18349   0.271  13.698   5.652 -0.0576  0.0318 -0.0750
 2216W        W18350   6.200  11.502   0.741 -0.0729  0.0514 -0.2102
 2217W        W18351  10.721  15.115  13.326 -0.0327  0.3084  0.1438
 2218W        W18352   1.578   6.266   0.908  0.0136 -0.2313 -0.0095
 2219W        W18353  12.576   8.201   1.493 -0.0158  0.0530  0.1576
 2220W        W18354   4.750   3.440  13.535  0.0875  0.1736 -0.1774
 2221W        W18355   1.216   3.955   5.430 -0.0576  0.0209 -0.1140
 2222W        W18356  18.932   8.718   3.622 -0.1806 -0.1634  0.0332
 2223W        W18357  12.609   6.936  15.048  0.0248  0.0626  0.2034
 2224W        W18358   9.302  14.311   5.311 -0.0692  0.0965 -0.0544
 2225W        W18359   5.801  17.929   4.516 -0.1200  0.0198  0.3653
 2226W        W18360   0.479  15.584   3.032  0.2743 -0.0900  0.0682
 2227W        W18361   2.047  17.646  13.386  0.1857 -0.1695  0.2294
 2228W        W18362   6.911  10.888   3.906  0.0128  0.1599  0.0008
 2229W        W18363  16.825  14.902   4.252 -0.5452 -0.3581 -0.4395
 2230W        W18364   2.539   9.980   5.373 -0.0470  0.1699 -0.1092
 2231W        W18365   9.790   6.931  10.413 -0.0345  0.0734 -0.0820
 2232W        W18366   0.120   1.036   2.780 -0.1266  0.3764 -0.2602
 2233W        W18367  18.952   8.852   3.080 -0.0012  0.1103  0.0066
 2234W        W18368  16.388  12.687  14.930 -0.1173  0.1894  0.1324
 2235W        W18369   6.094  11.449   2.168 -0.3679  0.0549  0.0057
 2236W        W18370   7.372  15.714   0.329  0.0779  0.0403  0.1787
 2237W        W18371   8.210  15.059  11.685  0.3017 -0.2163  0.0990
 2238W        W18372   5.519  14.114   5.569 -0.1533  0.1533  0.0653
 2239W        W18373  17.407  11.124  12.549 -0.1372 -0.2402  0.1838
 2240W        W18374  16.727  11.601   1.210 -0.2671 -0.1006  0.0903
 2241W        W18375  18.188   1.364   0.280  0.0676 -0.2471 -0.1098
 2242W        W18376  16.122  16.777  14.273 -0.2489 -0.3412  0.3074
 2243W        W18377  10.735   8.915   2.533 -0.0098  0.2557 -0.1845
 2244W        W18378   6.290  18.534   0.308 -0.0337  0.1647  0.0709
 2245W        W18379   4.085   9.600  13.947  0.1492 -0.2819  0.1548
 2246W        W18380  10.335   0.073  11.230  0.0285  0.1143  0.2484
 2247W        W18381  17.233  10.827   4.443  0.5663  0.0720 -0.0768
 2248W        W18382   2.468  14.602  11.342 -0.3279 -0.0839  0.3072
 2249W        W18383   6.765   9.156  13.773 -0.0772  0.0026  0.3090
 2250W        W18384  17.828  18.580   2.742 -0.0427 -0.0400 -0.1496
 2251W        W18385  11.692   2.612   4.357 -0.0776 -0.0808 -0.1127
 2252W        W18386   8.702   4.147  13.605 -0.0366  0.0057  0.2237
 2253W        W18387  13.904   7.840  11.392  0.1744 -0.5493 -0.0064
 2254W        W18388  11.096   0.666   2.138 -0.2434 -0.0088  0.1730
 2255W        W18389   1.183  13.499   5.309 -0.3256 -0.3729 -0.2208
 2256W        W18390  10.241  18.031  15.039 -0.2664  0.0148 -0.3862
 2257W        W18391   3.640   1.794   4.323  0.2514 -0.2133 -0.4272
 2258W        W18392   2.549   3.402  12.943 -0.1738 -0.2493  0.0286
 2259W        W18393  16.700   4.627   1.498 -0.0578  0.1675 -0.1845
 2260W        W18394  13.676   0.712  14.198  0.1963 -0.0687 -0.6281
 2261W        W18395  14.437   7.194  13.342  0.0502  0.0500 -0.1584
 2262W        W18396   7.624   3.447  14.040 -0.0422 -0.0314  0.1192
 2263W        W18397  18.592  12.558  14.696  0.1336 -0.4582 -0.0751
 2264W        W18398   8.552   5.269  11.502  0.0227 -0.1484  0.2694
 2265W        W18399   7.523   7.840   4.044  0.0545  0.1312 -0.0941
 2266W        W18400   9.369   6.391   2.231 -0.3393  0.2592 -0.3440
 2267W        W18401   5.316  14.140   4.277  0.1509  0.0321 -0.0271
 2268W        W18402   4.242  16.873   2.176 -0.0980 -0.2801 -0.4087
 2269W        W18403  16.914   5.777  11.203  0.0735  0.0443  0.4460
 2270W        W18404  14.178   5.632   0.378 -0.1693  0.1603 -0.0285
 2271W        W18405   9.912   0.683  11.790  0.1253  0.0489  0.0682
 2272W        W18406   2.962  14.593  11.598 -0.0339  0.1473  0.0039
 2273W        W18407  15.434  18.476   5.437  0.1836  0.3027 -0.2546
 2274W        W18408   9.026   7.421  11.741  0.1572  0.0316 -0.3199
 2275W        W18409  16.580   4.288  14.105  0.1946 -0.1756 -0.0072
 2276W        W18410  15.417   8.562   4.879 -0.0069  0.0860 -0.1321
 2277W        W18411  11.007  12.316   1.180 -0.0536  0.4098  0.2875
 2278W        W18412   1.341   2.778   1.667 -0.0779 -0.0733 -0.1343
 2279W        W18413  14.617  14.615  14.692  0.6952 -0.1588 -0.0217
 2280W        W18414   8.615   1.342   0.302  0.1341 -0.1401 -0.0039
 2281W        W18415  16.361  14.951   4.622  0.2315 -0.1317 -0.0614
 2282W        W18416   1.071  11.515   9.840  0.1406 -0.2803 -0.1584
 2283W        W18417  12.274   8.230   1.952  0.1604  0.1561  0.0152
 2284W        W18418  12.659   9.782  10.701 -0.1774  0.0484  0.2083
 2285W        W18419  11.655  14.896  11.285 -0.0398  0.1069  0.0727
 2286W        W18420  12.745   9.428   0.944  0.0345  0.2363  0.0249
 2287W        W18421   4.487  15.470   3.426 -0.0850 -0.0983 -0.0978
 2288W        W18422   6.519  11.247   1.038 -0.0876 -0.0841 -0.0701
 2289W        W18423  10.759   0.652   1.742  0.2052 -0.0256  0.2845
 2290W        W18424  10.180  10.562   3.127  0.3309  0.2339  0.0976
 2291W        W18425  12.455   9.037   0.208  0.1005 -0.0675  0.0609
 2292W        W18426  18.938  15.872   0.362 -0.3945  0.4322 -0.1882
 2293W        W18427  10.304  15.141   2.985 -0.2368 -0.0545  0.0783
 2294W        W18428   4.201  17.548  13.904 -0.0694 -0.1704  0.2302
 2295W        W18429   7.763  16.697   1.129 -0.0802  0.2619 -0.0908
 2296W        W18430   8.867   6.692  10.803 -0.0529 -0.2563 -0.0368
 2297W        W18431  13.238  13.862  14.044  0.0358 -0.0139  0.0847
 2298W        W18432  16.280  15.040  14.983 -0.1275  0.5057  0.0617
 2299W        W18433  14.499  18.449   4.282 -0.0995  0.1804  0.1470
 2300W        W18434  16.869   1.172  11.295 -0.2780  0.0803 -0.0281
 2301W        W18435  19.000   0.335  13.814  0.3213  0.0295 -0.1173
 2302W        W18436   2.589  18.739   1.901  0.3913 -0.1730 -0.1708
 2303W        W18437   5.999   6.322   4.584 -0.0246 -0.1005 -0.1039
 2304W        W18438   9.094  14.372   0.872 -0.1154 -0.0699  0.1683
 2305W        W18439   7.162  11.432  14.881  0.1955  0.0341  0.2418
 2306W        W18440  17.951  15.897   1.356 -0.2225 -0.2419 -0.2455
 2307W        W18441   3.316  15.769  10.830  0.0850  0.1863  0.1327
 2308W        W18442   5.746  11.190  14.996  0.0411 -0.5086  0.1555
 2309W        W18443  10.625  11.452   4.754  0.0387 -0.1107  0.0937
 2310W        W18444   0.546  12.318   9.875  0.2502  0.0710 -0.1201
 2311W        W18445   9.654  16.810  14.919 -0.2197 -0.2722  0.1230
 2312W        W18446   3.706   3.455  13.418  0.0958  0.0805 -0.1392
 2313W        W18447   5.147   4.165  14.837  0.0560 -0.1110 -0.0014
 2314W        W18448  11.911   5.098   2.143 -0.2174  0.0137 -0.4306
 2315W        W18449   6.280  10.520   1.742  0.0823 -0.1297  0.2029
 2316W        W18450   7.328  14.167  13.947  0.2508 -0.1354  0.0851
 2317W        W18451  13.101   6.682  14.064 -0.0271  0.0105  0.0451
 2318W        W18452  16.559  10.672   4.057  0.1864 -0.0283 -0.0078
 2319W        W18453  10.510  15.261   1.544  0.0834  0.0571 -0.1883
 2320W        W18454   1.748   0.990   1.097 -0.3377  0.0401  0.2875
 2321W        W18455   8.826   4.801  10.416  0.1509 -0.1207 -0.0767
 2322W        W18456  16.973   1.143   2.296  0.1500  0.0534  0.0823
 2323W        W18457  13.659  15.462   0.948 -0.0001 -0.1243 -0.0507
 2324W        W18458  10.177   1.772   5.146 -0.2288  0.1340 -0.1290
 2325W        W18459   4.383  14.518  14.200  0.1754 -0.2159  0.2054
 2326W        W18460   0.243  16.533   0.681  0.2276  0.2743  0.1115
 2327W        W18461  14.598  10.963   0.800  0.0487  0.0296 -0.2753
 2328W        W18462  18.675   7.744  14.138  0.2365  0.0500 -0.2884
 2329W        W18463  15.890  11.478  10.655  0.3785 -0.1284  0.3787
 2330W        W18464  12.680   5.560  14.059 -0.0663 -0.0180  0.0057
 2331W        W18465  17.545   9.489  11.549 -0.0835 -0.0589 -0.2935
 2332W        W18466  10.923   4.822   5.053  0.1346  0.1570  0.0014
 2333W        W18467   3.843  17.145  11.294  0.3510 -0.2509 -0.0181
 2334W        W18468  10.294   9.280  14.152 -0.1508 -0.1165  0.2098
 2335W        W18469  13.535  14.159  12.152  0.0587  0.1283 -0.1128
 2336W        W18470  11.542  17.212  14.462  0.2011  0.0726 -0.4465
 2337W        W18471   2.188   6.926   2.363 -0.0276  0.3449 -0.2133
 2338W        W18472   6.801  17.299   0.924 -0.0929  0.1142  0.2055
 2339W        W18473   0.575  13.089  13.139 -0.2316  0.1706  0.0487
 2340W        W18474   2.087  11.180   2.906 -0.3869  0.0900  0.2197
 2341W        W18475   0.134   9.026  11.324 -0.3084 -0.2288  0.1271
 2342W        W18476  12.440  15.919   2.683 -0.0849  0.0428 -0.1536
 2343W        W18477   8.346  14.357   0.439 -0.0472  0.2519  0.0084
 2344W        W18478  11.763   4.497  14.538  0.1871 -0.0025 -0.2749
 2345W        W18479   0.848   6.179  10.707 -0.0329  0.4450  0.1695
 2346W        W18480  13.168  15.143  11.645 -0.2918 -0.1525  0.0501
 2347W        W18481   9.185  16.735  12.782 -0.3605  0.1778 -0.0764
 2348W        W18482  10.184  12.289   3.054  0.0434  0.1571  0.0215
 2349W        W18483   4.601  11.566   2.186 -0.0222 -0.2656  0.0893
 2350W        W18484  10.270  15.867   4.806 -0.2112  0.0490 -0.0587
 2351W        W18485   1.064   6.017  13.938 -0.3071 -0.1668  0.4857
 2352W        W18486  12.801   3.155   4.242 -0.2069 -0.3081 -0.1572
 2353W        W18487   9.765   7.667   4.335 -0.0480  0.0873  0.0666
 2354W        W18488  12.162  18.647   2.725  0.2539  0.0902  0.0943
 2355W        W18489   6.956   7.736  14.868  0.2913 -0.2014  0.0079
 2356W        W18490  15.392  14.762  12.187 -0.1046  0.1216  0.1322
 2357W        W18491  18.325   7.031  13.367  0.1040 -0.1101  0.1444
 2358W        W18492   5.370   1.788   3.015 -0.1683 -0.2992  0.0478
 2359W        W18493   2.683   9.223   1.861 -0.1372 -0.0684 -0.0477
 2360W        W18494  11.979  17.840  12.269  0.0500 -0.1682 -0.0463
 2361W        W18495  17.467   2.215   4.791  0.0173 -0.3890  0.2632
 2362W        W18496  18.623  15.787  12.678  0.3564  0.2630 -0.2119
 2363W        W18497   8.970   6.429  12.888 -0.2104 -0.0371 -0.5006
 2364W        W18498  18.367   8.210  11.266 -0.1198 -0.2254  0.1764
 2365W        W18499   5.586  10.256   4.444 -0.2557  0.0508 -0.1218
 2366W        W18500   4.072   3.643   1.298 -0.1516 -0.3104 -0.0877
 2367W        W18501  10.609  10.483  10.663 -0.0258 -0.4140  0.2371
 2368W        W18502  11.476   0.877   1.668 -0.1400 -0.1375 -0.0277
 2369W        W18503   9.406  10.491   9.339  0.2161  0.0222 -0.3588
 2370W        W18504  10.419  13.056   0.821  0.0317 -0.1362 -0.1075
 2371W        W18505  15.091   6.512  15.233  0.1019  0.1887 -0.1965
 2372W        W18506  16.030  16.387  14.808 -0.0876 -0.0906  0.1243
 2373W        W18507   8.657  15.772   1.642 -0.1429  0.1148  0.3025
 2374W        W18508   7.110   5.926   1.637 -0.1069  0.0354 -0.1903
 2375W        W18509   2.948   3.677  12.659 -0.0541 -0.1698 -0.1948
 2376W        W18510   2.102   0.014  13.733 -0.0904  0.0644 -0.2161
 2377W        W18511  15.475  18.764   2.711  0.2021 -0.0986  0.2727
 2378W        W18512  17.291   4.905   1.512  0.1029  0.1065 -0.0049
 2379W        W18513   7.997   8.446  11.084  0.1805  0.0503 -0.1077
 2380W        W18514   6.600  13.881  14.739 -0.2314 -0.3149 -0.0060
 2381W        W18515   1.921  16.532  14.038 -0.0713 -0.0497  0.1348
 2382W        W18516  15.143   3.496  12.118 -0.5522  0.2466 -0.1465
 2383W        W18517   6.391   2.833   3.798 -0.0724  0.0515  0.3012
 2384W        W18518   8.287   9.717  10.598  0.0473 -0.1632  0.1224
 2385W        W18519   9.392   8.260   9.939  0.1244  0.1033  0.3637
 2386W        W18520  17.504   5.264  13.670  0.2408  0.0996  0.0169
 2387W        W18521   6.896  16.006  11.110  0.1386 -0.0002 -0.4021
 2388W        W18522  18.367   1.371   2.994 -0.0477  0.3349 -0.0275
 2389W        W18523  16.684   8.502  14.514 -0.0872 -0.0598  0.3368
 2390W        W18524   0.251   7.429   2.716 -0.1041 -0.2628 -0.1248
 2391W        W18525  16.711  10.597  11.810 -0.0811 -0.0687  0.0562
 2392W        W18526  18.736  17.298   2.517 -0.0039 -0.1306 -0.2100
 2393W        W18527  17.459   8.144   4.521  0.2253 -0.0100 -0.0752
 2394W        W18528  10.476  16.014   0.670 -0.0609 -0.2791  0.0479
 2395W        W18529   9.842  15.539   1.041 -0.3641 -0.1294  0.0608
 2396W        W18530  10.961   2.889   9.622 -0.1449  0.1740 -0.0559
 2397W        W18531   9.080  15.445  14.944 -0.0076 -0.2211 -0.3967
 2398W        W18532   1.226   0.071  14.201 -0.3509 -0.1604  0.1839
 2399W        W18533   5.700   1.946   4.708  0.1307 -0.0133 -0.3163
 2400W        W18534   1.563   4.468   1.647  0.0569 -0.1124 -0.0876
 2401W        W18535   5.258   8.505  12.919 -0.4458  0.0432 -0.0373
 2402W        W18536  11.991   7.740  15.003 -0.1237  0.2135 -0.1854
 2403W        W18537  11.822  16.859  14.200  0.0856 -0.1259  0.3857
 2404W        W18538   7.827  15.511  11.021  0.1832 -0.0545  0.0837
 2405W        W18539  14.847  12.832  14.786 -0.1224  0.0799  0.2491
 2406W        W18540  18.935  15.782   5.412 -0.3118 -0.0437  0.0369
 2407W        W18541   0.594   0.791   2.436 -0.3079 -0.0440 -0.1416
 2408W        W18542  16.471   3.469  11.301 -0.0558 -0.0977  0.0973
 2409W        W18543   1.216  18.279  13.382  0.0752  0.0352 -0.2872
 2410W        W18544  14.095  17.909  14.010 -0.1053  0.1747  0.0477
 2411W        W18545   2.432  18.861   1.164 -0.1250  0.1676 -0.0772
 2412W        W18546  18.253   1.958   2.130  0.0995 -0.2584  0.1238
 2413W        W18547  12.145  10.094   4.276  0.1652  0.0829 -0.0360
 2414W        W18548  10.459  13.279  10.474 -0.2370  0.0398 -0.3643
 2415W        W18549   9.790  14.168   4.022 -0.1049 -0.2018  0.0380
 2416W        W18550  17.462   7.334  12.292  0.0140  0.0962 -0.1165
 2417W        W18551   8.815  18.684   1.300 -0.0868  0.1523  0.1243
 2418W        W18552  17.606   3.153  11.395  0.2070 -0.0922  0.2032
 2419W        W18553   6.243  12.821  12.599  0.4177  0.0141 -0.1193
 2420W        W18554  17.541   7.697   2.055  0.1516 -0.2858  0.0308
 2421W        W18555   9.936  12.387  13.084 -0.1312 -0.1586  0.0744
 2422W        W18556  15.109  16.526   5.540 -0.0220  0.1249  0.1632
 2423W        W18557   0.874  15.966   4.559 -0.0166 -0.0340 -0.0137
 2424W        W18558   0.829   2.308  11.589  0.1757  0.2357 -0.0343
 2425W        W18559   3.079   9.821  11.629 -0.0489  0.2959  0.0570
 2426W        W18560   2.575   8.312   2.194  0.0165  0.0789  0.4395
 2427W        W18561  15.898   9.894  11.367 -0.0694  0.0370 -0.2434
 2428W        W18562   7.740   4.541  11.393  0.2458  0.3217  0.0316
 2429W        W18563  12.175   9.747  10.805 -0.1386 -0.0696  0.0636
 2430W        W18564  14.966   8.615  11.602 -0.2695  0.3254 -0.1664
 2431W        W18565   6.182   2.344  14.713  0.0040  0.0866  0.5197
 2432W        W18566   9.855  15.782  13.073 -0.1363  0.3512 -0.1139
 2433W        W18567   0.713   1.275  12.368 -0.0527  0.0115 -0.1042
 2434W        W18568   9.075   0.398  10.830 -0.1948  0.1711 -0.3691
 2435W        W18569  14.337   5.700   1.583  0.2944 -0.0914 -0.1574
 2436W        W18570  18.185  17.523   0.466 -0.2683  0.3202 -0.0149
 2437W        W18571  12.077   1.494  11.464 -0.0674 -0.2246 -0.2685
 2438W        W18572   3.873   2.799  10.388  0.1227 -0.0017  0.4216
 2439W        W18573  12.350   9.565   1.678 -0.0162  0.0216  0.0395
 2440W        W18574   1.998  14.032   1.304  0.2842  0.0627 -0.2437
 2441W        W18575   7.701   4.674   2.025 -0.1294  0.1836 -0.0853
 2442W        W18576   8.862  11.123  14.861  0.3433  0.0499  0.1350
 2443W        W18577   8.271  12.129  14.855 -0.1452 -0.0248 -0.0806
 2444W        W18578  18.276  15.313   3.960  0.0062 -0.3493 -0.0657
 2445W        W18579   6.510   9.003  10.737 -0.0495  0.4802  0.2067
 2446W        W18580   2.637   4.160  13.507 -0.3138 -0.3024  0.1836
 2447W        W18581  17.669  15.059  12.715  0.2027 -0.1899 -0.0748
 2448W        W18582   8.132  16.135  14.767 -0.0569  0.2999  0.1309
 2449W        W18583   5.721   1.097   1.758 -0.0213 -0.1285  0.0307
 2450W        W18584  13.766  16.175  13.416 -0.2041  0.1110  0.0018
 2451W        W18585   1.725  11.977   4.281  0.1359  0.1237  0.4019
 2452W        W18586   0.351  11.303   4.839 -0.0233  0.0152 -0.1534
 2453W        W18587   0.661   6.871  13.646 -0.2659 -0.0008  0.0185
 2454W        W18588   5.652  18.866   4.593  0.2208 -0.2836 -0.3212
 2455W        W18589  10.803   1.385  13.402  0.0045  0.3505 -0.2118
 2456W        W18590  17.638   0.401   4.852 -0.3912  0.0250  0.0638
 2457W        W18591  13.333   2.376   5.159 -0.1202  0.0891 -0.2515
 2458W        W18592  17.101   6.353   1.148  0.2498 -0.2088 -0.1003
 2459W        W18593   0.542   5.827  13.133 -0.0464 -0.1069 -0.2942
 2460W        W18594   0.666  18.326   2.348 -0.0131  0.2053  0.1441
 2461W        W18595  14.774  11.876  12.463  0.1323 -0.0826  0.1186
 2462W        W18596  12.979   7.606   2.003 -0.0960  0.2332 -0.0791
 2463W        W18597  17.621   6.697   3.488 -0.2190 -0.1970  0.1230
 2464W        W18598   7.991   6.058  13.217 -0.1175 -0.3767  0.0558
 2465W        W18599   0.516  11.163   6.088 -0.1639  0.0877  0.1092
 2466W        W18600   0.556   8.485  12.853  0.2506  0.0211 -0.2343
 2467W        W18601   8.093  11.941   5.467  0.1812  0.1577 -0.0035
 2468W        W18602  16.219  14.226  10.689 -0.0297 -0.1507  0.0383
 2469W        W18603  11.198   4.007   2.376 -0.0653 -0.0584  0.0059
 2470W        W18604  17.290  14.034   4.260 -0.3648 -0.1939 -0.2756
 2471W        W18605  13.679   0.285  12.973  0.0473  0.0882  0.2576
 2472W        W18606  18.095   7.275  12.953  0.2577  0.1307 -0.0128
 2473W        W18607   0.349   5.198   2.194  0.0388 -0.2585 -0.0178
 2474W        W18608   7.029   4.280  14.150 -0.0582 -0.0641  0.0274
 2475W        W18609   4.470  15.034   3.211 -0.0812  0.0095 -0.0146
 2476W        W18610  12.153   6.620   3.753  0.1082  0.1928  0.0243
 2477W        W18611  14.205   2.011  12.460  0.0636 -0.0981 -0.1673
 2478W        W18612  14.684  10.187   3.125  0.0770 -0.0243 -0.1824
 2479W        W18613  16.559  17.403   4.170 -0.0538 -0.0599  0.0947
 2480W        W18614   9.309   7.317  10.456 -0.2741 -0.0627  0.1092
 2481W        W18615   2.244  11.831   3.836  0.4542 -0.1911  0.1080
 2482W        W18616   3.987  11.559   1.479  0.0609 -0.0405  0.1202
 2483W        W18617  17.135   1.573   1.384  0.0442  0.1147  0.0448
 2484W        W18618  15.976  18.209  12.831  0.1489 -0.2894  0.1570
 2485W        W18619  11.314   4.823   2.216 -0.1029  0.0374  0.1769
 2486W        W18620   9.503   7.296   3.534 -0.2541  0.3513  0.2590
 2487W        W18621   6.443  18.837   4.689 -0.1290  0.3804 -0.2864
 2488W        W18622   1.903   0.540  11.334 -0.2754  0.3042  0.0301
 2489W        W18623  13.766   8.730  10.972  0.1049 -0.1566 -0.0356
 2490W        W18624  15.082  11.080  14.429  0.0456 -0.0813  0.1539
 2491W        W18625   2.632   2.685   3.687 -0.0241 -0.0545 -0.2171
 2492W        W18626  16.384   3.573  13.149 -0.0210 -0.0400 -0.0479
 2493W        W18627  17.186   5.164   0.850 -0.0977  0.0128 -0.3119
 2494W        W18628  11.017   1.984  12.685  0.1136  0.1444  0.0750
 2495W        W18629  13.440  11.487  14.191 -0.1637 -0.1467  0.0697
 2496W        W18630  12.075  12.591   1.738 -0.1072  0.1235  0.1368
 2497W        W18631   5.877  14.805  10.764  0.0665  0.0699  0.0239
 2498W        W18632  17.272  15.452   3.924  0.0159 -0.0458 -0.0599
 2499W        W18633   0.190  14.460   5.401 -0.1504  0.1266 -0.1181
 2500W        W18634  18.571  16.484  14.430 -0.0606  0.0176 -0.0259
 2501W        W18635   2.274  18.099  12.128  0.0649  0.0855  0.3330
 2502W        W18636   4.565   9.555  13.882 -0.0854  0.1156 -0.1550
 2503W        W18637   4.084   3.982  10.691  0.3184  0.0842  0.1398
 2504W        W18638   6.595   0.202   2.086 -0.0412  0.2730  0.1799
 2505W        W18639   3.030   8.089  13.877 -0.2456  0.2451  0.0785
 2506W        W18640   9.648   9.354  12.065  0.1486 -0.3937  0.2620
 2507W        W18641   8.901   3.768  15.253  0.1142  0.1523 -0.2767
 2508W        W18642  12.534   4.131   1.364  0.1695 -0.0532  0.1486
 2509W        W18643  14.227  11.063  14.607  0.2008 -0.0813 -0.2586
 2510W        W18644  17.851  12.637   1.256 -0.0307  0.0107  0.1508
 2511W        W18645  16.890   6.460  11.455 -0.2113  0.2442 -0.0386
 2512W        W18646  10.250  11.726   3.076 -0.0304 -0.1835  0.0080
 2513W        W18647   7.934   8.293   0.886  0.1669  0.1661 -0.3563
 2514W        W18648  18.914  10.294   3.937  0.0248 -0.1116 -0.0686
 2515W        W18649  12.296   1.297  13.628  0.1231 -0.5194 -0.2740
 2516W        W18650   8.368   6.142  11.017  0.3974  0.1424 -0.1367
 2517W        W18651   8.966   6.470  14.602  0.0863  0.0787 -0.0262
 2518W        W18652  17.897  11.318  14.324  0.1141  0.0123  0.1091
 2519W        W18653   9.609   0.385   2.462 -0.1852  0.1727  0.2232
 2520W        W18654   6.489  14.781  13.047 -0.0868 -0.0381 -0.4470
 2521W        W18655   5.962  14.375   0.852 -0.5112 -0.2015  0.4612
 2522W        W18656  11.646   1.533   2.434 -0.1292 -0.1632 -0.0700
 2523W        W18657   3.781  13.241  14.945 -0.2107 -0.0103  0.0689
 2524W        W18658  12.992  15.902  10.853 -0.1119  0.0414 -0.0498
 2525W        W18659   7.718  18.723   9.531 -0.1328  0.0646 -0.2093
 2526W        W18660  15.141  18.550  13.014  0.1186 -0.2032  0.1333
 2527W        W18661   7.943   4.653   4.877 -0.1249 -0.3714  0.0818
 2528W        W18662  16.021  18.379   1.733  0.2199 -0.1799  0.5387
 2529W        W18663  13.991   8.357  13.954 -0.0816  0.2205  0.0568
 2530W        W18664   9.119   2.464  11.081 -0.1353  0.2701  0.1141
 2531W        W18665   1.858  14.496   3.233 -0.0760  0.0372 -0.3926
 2532W        W18666  16.951  10.658  11.344  0.1735  0.2216  0.2356
 2533W        W18667  16.389   5.653   0.206  0.2680 -0.2576  0.1301
 2534W        W18668  16.251   5.153   1.156 -0.0944 -0.0741  0.0058
 2535W        W18669   1.531   1.717  12.845 -0.0149 -0.2324 -0.1133
 2536W        W18670   9.561   2.766   0.282  0.1300  0.2777 -0.0380
 2537W        W18671  11.773  14.859  13.980  0.0476  0.3209 -0.0335
 2538W        W18672   6.895  15.093  13.261  0.2895 -0.1775  0.0854
 2539W        W18673   6.154   7.472  10.188 -0.0121 -0.2125  0.1017
 2540W        W18674   4.292   2.514  14.649  0.1158 -0.1207  0.1921
 2541W        W18675   1.816  11.612  13.841 -0.0009  0.1330  0.0435
 2542W        W18676  10.975   1.876   3.449 -0.0191  0.0441 -0.1937
 2543W        W18677  13.880  13.564   3.598 -0.2258 -0.1823  0.1842
 2544W        W18678  11.396   0.310   2.364 -0.0722  0.1877 -0.2768
 2545W        W18679   1.077   9.027  12.938  0.0678  0.1828  0.2481
 2546W        W18680  18.972  11.588   2.627 -0.3497  0.2414 -0.1429
 2547W        W18681   7.045   4.577   5.143  0.3202  0.1976 -0.3585
 2548W        W18682  13.114  15.601   1.032 -0.0111 -0.1101  0.2291
 2549W        W18683  11.257  17.940   2.181  0.0932  0.0263  0.1185
 2550W        W18684  11.732   8.790   4.462 -0.1660 -0.0291 -0.0435
 2551W        W18685  10.466  17.626  14.893  0.1942 -0.0156  0.1590
 2552W        W18686  15.254  12.964   1.886  0.0355  0.0221  0.2956
 2553W        W18687  15.855  11.865  11.396 -0.0305 -0.0475  0.2928
 2554W        W18688  14.008   2.365   3.366 -0.0863 -0.1308  0.1661
 2555W        W18689  14.701   6.805  15.015  0.5109 -0.2523  0.0658
 2556W        W18690   9.280  12.548   4.687  0.5128  0.1055  0.0013
 2557W        W18691   7.536  14.157   1.682  0.0692  0.1805 -0.1388
 2558W        W18692   1.399  15.089   4.510  0.1687 -0.1051 -0.1891
 2559W        W18693  18.455  12.441  13.831 -0.2774  0.1017  0.1518
 2560W        W18694  13.161  10.408   2.412 -0.1868 -0.2417  0.0250
 2561W        W18695   4.743   9.988  12.769 -0.0325 -0.1787 -0.2032
 2562W        W18696   7.942   5.602  12.071  0.5172  0.0298 -0.0606
 2563W        W18697   6.956  15.292  14.290  0.2523  0.1734 -0.1038
 2564W        W18698   5.528   3.966  13.230  0.3040 -0.1670 -0.0173
 2565W        W18699   5.730  10.723   4.485  0.1253 -0.0786  0.1942
 2566W        W18700   0.505   5.183  11.385  0.2221  0.0824 -0.1473
 2567W        W18701   5.962  12.005   0.769  0.1223  0.0133 -0.0646
 2568W        W18702   7.231   3.263  13.193  0.0822 -0.2437  0.3786
 2569W        W18703  16.510  10.371  11.387 -0.1278  0.2163  0.1242
 2570W        W18704  10.519   1.892   0.443  0.1964 -0.1325  0.0213
 2571W        W18705  11.185  15.805  14.549  0.2321  0.0740 -0.1236
 2572W        W18706  16.300   3.948   5.292  0.1020 -0.2507  0.4487
 2573W        W18707  14.172   7.291   3.025  0.2060 -0.0400 -0.4822
 2574W        W18708  12.781  10.531   3.512  0.1449  0.0503  0.1330
 2575W        W18709   6.543   9.560   1.437 -0.1639  0.0219 -0.0611
 2576W        W18710  17.361  11.648   4.899 -0.0222  0.0507  0.0102
 2577W        W18711  15.030  12.321  15.184 -0.0181 -0.1524 -0.1665
 2578W        W18712  11.856  14.198  11.118 -0.0481  0.1290  0.2960
 2579W        W18713   1.072   8.709  13.643  0.0403  0.0904 -0.0545
 2580W        W18714   8.054  11.751  10.575  0.1355  0.2952  0.1301
 2581W        W18715   9.387   3.362  10.708 -0.0168  0.2988 -0.2209
 2582W        W18716  10.565  11.889   1.073 -0.0091 -0.1098 -0.0792
 2583W        W18717  13.801   7.513   1.304  0.1400  0.3740  0.0546
 2584W        W18718  16.055  12.002   2.463  0.2450 -0.1312 -0.1451
 2585W        W18719  17.220  14.762   1.536 -0.0107 -0.4185 -0.3373
 2586W        W18720   2.998  14.915   1.731  0.1955  0.0656 -0.1651
 2587W        W18721  13.930   4.509  11.853 -0.1365  0.0852  0.0673
 2588W        W18722   4.307   0.809  11.331  0.1906  0.3887  0.0899
 2589W        W18723  14.817  15.679   1.986 -0.0691  0.2323  0.0574
 2590W        W18724  10.474   9.865   5.091 -0.2127 -0.0183  0.0313
 2591W        W18725  10.427  15.772   1.586 -0.0958  0.4076  0.2596
 2592W        W18726  12.241   6.074   2.675  0.0758 -0.2228 -0.0850
 2593W        W18727  14.066  10.923   2.638  0.1412 -0.1547  0.0498
 2594W        W18728  16.210   0.031   5.209 -0.1064 -0.2166 -0.3689
 2595W        W18729   5.621  16.224   9.969  0.0536 -0.2723  0.0038
 2596W        W18730  10.315  14.628   0.266  0.0415  0.1932  0.0880
 2597W        W18731   0.198   6.005  10.261  0.0502  0.0453 -0.3320
 2598W        W18732  12.843  18.422   4.119 -0.1820  0.5724  0.2672
 2599W        W18733   6.615   6.262   4.591  0.0574  0.1290 -0.2459
 2600W        W18734  13.024   9.328  13.111  0.1752 -0.2004 -0.1415
 2601W        W18735   9.235   7.677   1.390  0.0778 -0.0955  0.1204
 2602W        W18736   5.735  13.610  15.062  0.0971  0.3293 -0.1269
 2603W        W18737  13.727  16.887  12.358 -0.2674  0.4263 -0.0571
 2604W        W18738   6.578  18.382  14.220 -0.0105 -0.1998  0.0701
 2605W        W18739   0.923   9.551   4.295  0.2810  0.2272 -0.1569
 2606W        W18740  14.905   3.733   3.510 -0.2278  0.0604 -0.2009
 2607W        W18741  15.837   1.134   1.069  0.2108 -0.0944  0.2432
 2608W        W18742  12.921  17.504  10.505 -0.1174  0.1539  0.3263
 2609W        W18743  15.605  17.129  13.643  0.1515 -0.0522  0.0327
 2610W        W18744   9.384   4.434  14.436  0.2416  0.3760 -0.1232
 2611W        W18745  11.231   3.424   0.220  0.1906 -0.0510 -0.0463
 2612W        W18746  12.062  13.073   0.689 -0.3176 -0.0521  0.1798
 2613W        W18747  11.145   6.973   9.637  0.0764  0.0726  0.2772
 2614W        W18748  17.641   5.995   5.857  0.5573 -0.1934  0.1602
 2615W        W18749   2.667  14.468  12.417  0.1013  0.1436 -0.1039
 2616W        W18750  15.536  14.893  13.367  0.1234  0.0236 -0.1223
 2617W        W18751  14.113  18.762   5.749 -0.0244  0.0130  0.2005
 2618W        W18752   6.798  10.658   4.444  0.2231  0.1942 -0.1036
 2619W        W18753   5.863  18.462  10.247 -0.1889 -0.0771 -0.1390
 2620W        W18754   7.705   0.357   2.349  0.0046  0.1550 -0.0030
 2621W        W18755  18.063   7.005   3.926  0.0673  0.0450 -0.0033
 2622W        W18756  17.653   8.431   4.905  0.2279 -0.0292 -0.2054
 2623W        W18757   1.903  13.807   4.807 -0.0154 -0.0866  0.0393
 2624W        W18758  14.577  14.381  11.378  0.1632 -0.2669 -0.0806
 2625W        W18759   0.679   8.070   2.626 -0.1055  0.2088  0.1906
 2626W        W18760  12.924   5.422   2.335 -0.1019 -0.4651 -0.2209
 2627W        W18761   8.567   3.448  12.638 -0.3340  0.0192 -0.0494
 2628W        W18762   3.633  10.442  10.996 -0.1944  0.1126 -0.0540
 2629W        W18763  18.388   1.760  14.938 -0.2929  0.1742 -0.3244
 2630W        W18764  18.305  10.188  13.172 -0.1903  0.1842  0.0521
 2631W        W18765   8.438   9.614   4.345  0.2453  0.0037  0.2941
 2632W        W18766   3.455   5.435   1.408 -0.0480 -0.3544 -0.1189
 2633W        W18767   8.409  11.920  15.264 -0.0132 -0.1764  0.4128
 2634W        W18768   6.963  11.517   4.526 -0.0481  0.2536 -0.0720
 2635W        W18769  10.529  10.046  12.622 -0.1284 -0.2758 -0.0373
 2636W        W18770  16.809  13.859   5.156 -0.1941 -0.1650 -0.0865
 2637W        W18771  12.597   4.913   4.982  0.2450 -0.3243 -0.0569
 2638W        W18772   1.453  16.776   0.879  0.0769  0.1815 -0.1300
 2639W        W18773  16.040  17.399   0.242 -0.2163  0.2149 -0.2537
 2640W        W18774   2.324  11.429  13.786  0.1339  0.1904 -0.0115
 2641W        W18775   4.667   8.982   2.350 -0.0388  0.0830  0.0019
 2642W        W18776   6.631  12.965  13.876  0.2448  0.0296  0.4275
 2643W        W18777   1.704   4.862   4.192  0.0069  0.0193 -0.0700
 2644W        W18778   8.456  18.166  10.068 -0.1444 -0.0563  0.0390
 2645W        W18779  12.027  10.598  11.613 -0.0546 -0.2991 -0.2170
 2646W        W18780   7.990  10.027  11.463  0.1656  0.1475  0.1981
 2647W        W18781   5.165   1.697   0.183 -0.4614  0.1186  0.2420
 2648W        W18782   0.210  12.677  12.383  0.0955  0.0223  0.3497
 2649W        W18783   0.557   9.049   2.521  0.0416 -0.0194 -0.3502
 2650W        W18784   6.205  15.697  13.698  0.0893  0.0574  0.1547
 2651W        W18785   0.246  17.562   3.133  0.0478 -0.1482 -0.0503
 2652W        W18786  10.141  14.771   4.531  0.0060 -0.1263 -0.1403
 2653W        W18787   2.010  10.560   5.081  0.0514  0.1924 -0.3330
 2654W        W18788  10.621   7.651  10.754  0.2345  0.2826  0.0408
 2655W        W18789   9.446   7.637  10.091  0.1738  0.0457  0.2674
 2656W        W18790   8.427  13.431  15.243  0.0210  0.3685 -0.0658
 2657W        W18791   5.371  12.911  12.588 -0.0070 -0.2909 -0.0394
 2658W        W18792   7.928   1.095   3.215 -0.2238 -0.0075  0.1209
 2659W        W18793   8.386   6.162  14.661 -0.1581 -0.2341  0.3257
 2660W        W18794   3.829  18.856  12.422  0.0469  0.0599 -0.0069
 2661W        W18795  12.279   9.909   2.118  0.1466  0.3265  0.0204
 2662W        W18796   6.916  13.927  12.225  0.1563 -0.0046 -0.1310
 2663W        W18797   2.011   0.259   1.224 -0.0491  0.1552 -0.2467
 2664W        W18798  12.626  18.347  12.340 -0.0921  0.1537  0.0721
 2665W        W18799   5.338   9.553  14.853 -0.0850  0.1093  0.2328
 2666W        W18800   9.714   4.606   1.667 -0.1512 -0.1758  0.0451
 2667W        W18801   1.303  11.488  14.839  0.1278  0.3871  0.1284
 2668W        W18802   9.579  14.936   0.437 -0.0305 -0.2311 -0.1691
 2669W        W18803  11.873   2.744   3.189  0.3109 -0.0204  0.2061
 2670W        W18804  11.372   4.647   3.493  0.0079  0.2917  0.0232
 2671W        W18805   3.657  11.848   3.379  0.0702  0.0337 -0.1667
 2672W        W18806  17.789   1.143  11.282 -0.0533  0.0671  0.0032
 2673W        W18807   7.180   2.266   1.703 -0.0363 -0.0372  0.1680
 2674W        W18808   4.892   8.900   1.880 -0.3139 -0.3243 -0.2697
 2675W        W18809  14.425  16.933  15.038  0.0960  0.0037 -0.1026
 2676W        W18810  13.031  12.366   1.627  0.0119 -0.2212 -0.3626
 2677W        W18811   9.593  18.954   2.282 -0.1795  0.1099  0.2558
 2678W        W18812   7.263   3.329   2.090 -0.1405  0.0375  0.1579
 2679W        W18813  16.648   3.822   3.279 -0.1463  0.1001 -0.1578
 2680W        W18814   1.752  16.112  14.903  0.0052  0.4356  0.2199
 2681W        W18815  17.585  10.877   4.149 -0.0467 -0.0009  0.3560
 2682W        W18816   8.148   8.381  13.563  0.0806 -0.1485 -0.3042
 2683W        W18817   9.956   6.850   4.595  0.6095 -0.2335  0.0916
 2684W        W18818   7.975  17.491  13.305 -0.0256  0.0802  0.0296
 2685W        W18819   0.665   1.731   4.526 -0.1935  0.0086 -0.1139
 2686W        W18820   2.389  11.299   3.750  0.1162  0.3586 -0.0566
 2687W        W18821   9.628   5.059   0.427  0.0550  0.1567 -0.1547
 2688W        W18822  18.431  10.785  14.929  0.1612  0.0045 -0.2147
 2689W        W18823  13.176   9.526  14.895  0.1144 -0.1210  0.0396
 2690W        W18824   1.506  12.269   3.969  0.2370 -0.3535 -0.0516
 2691W        W18825  12.351   3.074   5.386 -0.2832  0.1152  0.0750
 2692W        W18826   6.560   7.774  12.979 -0.1510 -0.0915  0.1638
 2693W        W18827   5.337   3.384   9.637 -0.1945 -0.2087  0.1153
 2694W        W18828   3.704  17.484  14.099  0.1671 -0.1066 -0.0993
 2695W        W18829  11.053   4.195   4.651  0.0415  0.0983  0.0513
 2696W        W18830  15.895   2.450   0.055  0.2430 -0.0214 -0.0749
 2697W        W18831   6.187   5.201   9.447  0.1919 -0.1175  0.0363
 2698W        W18832  15.882   6.058   1.430  0.1168 -0.2186  0.2110
 2699W        W18833   4.902   3.818   4.252  0.0000 -0.2325 -0.2707
 2700W        W18834   0.802   0.675   2.965  0.2640 -0.0294 -0.1007
 2701W        W18835  12.143  10.282  12.473 -0.1321  0.1447  0.2239
 2702W        W18836  13.360   3.177   3.630  0.0553  0.1676  0.0310
 2703W        W18837   9.885   2.532  14.168 -0.0599 -0.0487  0.3520
 2704W        W18838  13.015   6.267   5.141 -0.2792 -0.0761  0.0498
 2705W        W18839  13.872  14.878   4.848 -0.0302  0.2720 -0.1437
 2706W        W18840   6.966  18.594   4.949 -0.1794  0.4253  0.1680
 2707W        W18841   7.990   9.698   3.952 -0.0367  0.0054 -0.2097
 2708W        W18842  12.910  15.069   2.821  0.0121  0.1128  0.0145
 2709W        W18843   6.743   9.376   2.715  0.1910 -0.2840  0.1255
 2710W        W18844   5.404  16.949   1.623  0.1423  0.0079  0.0737
 2711W        W18845  11.509  18.060   3.873 -0.0133  0.1599  0.3243
 2712W        W18846  17.775   9.290  12.901 -0.0446  0.3650 -0.3811
 2713W        W18847   4.443  15.846  12.232 -0.2997  0.0551 -0.0608
 2714W        W18848   9.676  18.540  12.388  0.2874  0.1934  0.0510
 2715W        W18849  12.479  13.459   2.185  0.0065  0.0667  0.0155
 2716W        W18850   4.483   7.575  10.280 -0.3693 -0.3621 -0.0298
 2717W        W18851   6.988  10.794  13.432 -0.0862 -0.1073  0.1186
 2718W        W18852   9.154  10.847  14.240 -0.0560 -0.0078  0.2525
 2719W        W18853  15.445   6.734   0.292 -0.0117 -0.2734  0.1273
 2720W        W18854   5.444  14.446  11.689  0.0077  0.1390 -0.0317
 2721W        W18855   2.422   2.181   3.154  0.1111  0.1040 -0.1174
 2722W        W18856   8.341   0.263   3.563 -0.0284 -0.0646  0.0757
 2723W        W18857   3.571   3.852  10.560 -0.0853  0.3229 -0.1144
 2724W        W18858  17.500   2.766   4.647  0.0659  0.2198 -0.2868
 2725W        W18859   6.602  13.094  12.826 -0.3050  0.1226 -0.2775
 2726W        W18860  13.609  13.731  12.557 -0.0769  0.1628  0.1669
 2727W        W18861  13.099   3.455   3.943 -0.0300 -0.0335  0.2724
 2728W        W18862   5.779   5.841  10.169  0.0221 -0.2053  0.3726
 2729W        W18863  10.011   7.432  14.367  0.4514  0.1187 -0.1190
 2730W        W18864   3.315  15.486   4.412 -0.0903  0.1990  0.2223
 2731W        W18865  16.163  12.581  14.318  0.0479  0.0786 -0.2348
 2732W        W18866   7.293   4.459  11.696 -0.1621 -0.0232  0.0522
 2733W        W18867   6.080   6.804   4.502 -0.1177  0.0595  0.0838
 2734W        W18868  16.183   9.467  11.244  0.0152  0.2262  0.0297
 2735W        W18869  14.722  18.440  13.873  0.0270  0.2405 -0.1317
 2736W        W18870   3.972  14.865  11.592  0.0282 -0.2104 -0.0476
 2737W        W18871  15.855  18.677   4.415 -0.1664 -0.1311  0.1469
 2738W        W18872   0.799  17.138   5.271 -0.1466 -0.1755  0.1100
 2739W        W18873  10.505  14.737  11.019 -0.1234 -0.0144  0.1612
 2740W        W18874  15.220   9.509  15.086  0.0655  0.1306  0.2413
 2741W        W18875   4.545  10.174   2.409  0.3355 -0.1078  0.0953
 2742W        W18876   3.575   4.993   0.235 -0.0393 -0.2488  0.1190
 2743W        W18877   2.371   1.306  12.500  0.1270 -0.0516  0.0525
 2744W        W18878  10.326   9.471  10.607  0.2068  0.0234  0.5065
 2745W        W18879   9.530   3.192  12.954  0.1369  0.2481 -0.1519
 2746W        W18880   8.297  13.055   0.475 -0.0716  0.1534  0.1187
 2747W        W18881   5.030  15.507  13.119 -0.0735 -0.0593 -0.0783
 2748W        W18882  17.056   2.762  12.459 -0.2168  0.1558  0.4901
 2749W        W18883  16.540   4.812   0.979  0.4573 -0.3513 -0.0441
 2750W        W18884  10.274  13.192   2.401  0.2007 -0.3037  0.2433
 2751W        W18885   9.341  14.398   1.410 -0.4314 -0.5125  0.4616
 2752W        W18886  17.276   4.567  11.064 -0.1747 -0.0802 -0.0179
 2753W        W18887   2.042  12.036  14.619  0.1281  0.1415  0.1645
 2754W        W18888  17.066   6.202   4.324 -0.1094  0.2855 -0.0373
 2755W        W18889   0.404  14.249   2.118 -0.1594 -0.1127 -0.1391
 2756W        W18890  15.417   9.891  12.286  0.4037 -0.0652  0.1127
 2757W        W18891  11.710   0.574   3.464  0.2741  0.0761  0.1196
 2758W        W18892  16.370   6.683  14.561  0.2022  0.2250 -0.1387
 2759W        W18893  12.789   3.570  14.179 -0.1200 -0.2589 -0.2544
 2760W        W18894  14.047  15.766  15.089 -0.4009 -0.1362 -0.1742
 2761W        W18895   7.069  12.529   3.201 -0.2030  0.0624  0.0266
 2762W        W18896  13.805  10.925  12.834 -0.0957 -0.0217 -0.0342
 2763W        W18897   4.812  12.797   1.997 -0.2354 -0.1824 -0.1418
 2764W        W18898  17.854   9.104   1.771  0.0123  0.0957  0.4108
 2765W        W18899  11.308   8.775  11.149  0.0028 -0.1888 -0.1777
 2766W        W18900   3.824  17.599  11.588 -0.0166  0.1044 -0.0263
 2767W        W18901   8.952   0.535   1.373  0.1119 -0.0126  0.1597
 2768W        W18902  16.431   5.048  13.585 -0.1848  0.1015  0.0774
 2769W        W18903  17.208  14.414  11.799 -0.1967 -0.0657 -0.2512
 2770W        W18904   2.558   3.981   4.642 -0.0529 -0.0054  0.0326
 2771W        W18905  12.175   2.626   4.166 -0.0259  0.0726  0.3129
 2772W        W18906  10.253   8.922  14.816  0.2561 -0.2617  0.1219
 2773W        W18907  14.813  12.646   1.182 -0.0209  0.3853 -0.0607
 2774W        W18908  12.792   5.039   4.485  0.2293  0.1352 -0.2846
 2775W        W18909   3.115  12.421  11.896  0.1245 -0.3774 -0.1831
 2776W        W18910   1.335   0.656  11.881 -0.3457  0.0424 -0.3199
 2777W        W18911  11.308   5.490   0.798 -0.1333 -0.1517 -0.1283
 2778W        W18912  14.909   4.035   0.681 -0.0167 -0.1068  0.0557
 2779W        W18913  17.280   5.901  14.158  0.1804  0.4291 -0.0314
 2780W        W18914   5.365   0.854   4.634 -0.0319 -0.1856  0.1986
 2781W        W18915   0.787  14.527   1.088 -0.0249 -0.0300 -0.1471
 2782W        W18916  11.013   5.062   3.675 -0.0813 -0.2058  0.0820
 2783W        W18917  15.186   4.607   3.905 -0.1334  0.0997 -0.3382
 2784W        W18918   2.288  14.501   2.942  0.2907  0.1265  0.0520
 2785W        W18919  17.911  13.043   0.298 -0.1711 -0.0611  0.1589
 2786W        W18920   7.283   3.394   4.765  0.0752 -0.0191 -0.0133
 2787W        W18921   2.677   7.493  10.931 -0.4242 -0.2977 -0.0469
 2788W        W18922  17.114   5.032   4.828 -0.1524 -0.0286  0.0111
 2789W        W18923  14.339  17.694  12.714 -0.2079 -0.0204 -0.0234
 2790W        W18924  15.988  14.554  15.130 -0.2839  0.0946  0.1461
 2791W        W18925   5.136  11.167   4.075 -0.0807  0.4096 -0.2363
 2792W        W18926   9.382   3.568   0.024 -0.0449 -0.0315 -0.0166
 2793W        W18927   2.584   0.086   4.062 -0.2684 -0.2169  0.0376
 2794W        W18928   5.413  17.082  11.525 -0.0099  0.0459  0.2964
 2795W        W18929   5.211   4.808  10.007 -0.2504 -0.0778 -0.3464
 2796W        W18930   1.630   2.862  11.943 -0.2430 -0.0228  0.1608
 2797W        W18931   0.707   9.243   2.052  0.3460  0.2185  0.0355
 2798W        W18932   7.355   4.879  10.844  0.4147 -0.3995  0.2534
 2799W        W18933   4.050  15.725   2.749  0.1090 -0.0284  0.1856
 2800W        W18934  15.557  14.310   9.288 -0.4403 -0.3258 -0.0382
 2801W        W18935   4.793  15.158  13.569 -0.3380 -0.0242 -0.1024
 2802W        W18936  11.347  13.104  13.583 -0.0878  0.0216 -0.0712
 2803W        W18937   7.540  17.865   0.579 -0.2391 -0.0400 -0.1162
 2804W        W18938  17.598   3.642  12.856  0.1398  0.2447  0.1639
 2805W        W18939  10.115   7.988   3.047  0.2420  0.0813 -0.1778
 2806W        W18940   2.699   2.174   2.223 -0.0523 -0.0979  0.1422
 2807W        W18941  17.410   5.717   4.459 -0.0658  0.1890  0.1603
 2808W        W18942  15.280   7.444  10.853  0.1631  0.0305 -0.0504
 2809W        W18943  10.484  12.620  14.338 -0.2808  0.0362 -0.1492
 2810W        W18944   9.627  13.796   2.277 -0.1017 -0.0301  0.1527
 2811W        W18945   6.332   3.130  13.530  0.2510  0.3709  0.1816
 2812W        W18946  14.336   7.354  14.270  0.0769  0.1036  0.1744
 2813W        W18947   0.639  14.299   5.341  0.1695  0.2305  0.3748
 2814W        W18948   4.811  11.470   1.716  0.2276  0.1560  0.0363
 2815W        W18949   7.498   0.554  14.904  0.0233  0.5873 -0.0206
 2816W        W18950   6.724   1.891   2.818  0.0132  0.2305 -0.3519
 2817W        W18951   8.461   5.547  14.645 -0.1844 -0.2109 -0.0328
 2818W        W18952  14.655  14.924  14.333 -0.0983  0.1608  0.2426
 2819W        W18953  11.615   9.543  11.983  0.2725 -0.0287 -0.1223
 2820W        W18954   6.388   5.910   1.012 -0.3109 -0.2969  0.2328
 2821W        W18955   6.967   7.722   0.338 -0.0178 -0.1583 -0.0074
 2822W        W18956   3.274   6.911  11.955 -0.0184 -0.1029  0.0248
 2823W        W18957   1.042  12.471  14.965  0.2430 -0.0028 -0.2710
 2824W        W18958  17.684   1.968   1.341 -0.3453 -0.2279  0.0495
 2825W        W18959  16.684  15.309   5.996  0.0490  0.1845 -0.0011
 2826W        W18960  11.561  10.250  12.649  0.1285 -0.1980 -0.0227
 2827W        W18961   2.528  14.650   0.778  0.1640  0.1703 -0.0315
 2828W        W18962  16.895   0.912   4.588  0.0781 -0.0150  0.2010
 2829W        W18963  14.491   0.104   3.567 -0.0817 -0.2178 -0.1926
 2830W        W18964  16.408  13.767   3.250 -0.2223 -0.0463 -0.3518
 2831W        W18965  11.137  13.441   4.530 -0.0525  0.1266  0.0432
 2832W        W18966   1.737   3.785  12.023  0.0058 -0.0797  0.0786
 2833W        W18967  17.833  16.401  12.281 -0.0814  0.1206 -0.1537
 2834W        W18968  12.258  11.811   3.846 -0.1368 -0.2710  0.0608
 2835W        W18969   9.990  15.208   0.129 -0.1559 -0.0422 -0.1552
 2836W        W18970  18.638   5.420   1.275  0.0777  0.1381 -0.1296
 2837W        W18971  12.951   8.502   2.432  0.0429 -0.0112 -0.2268
 2838W        W18972   5.213  18.916  10.619  0.0647  0.3168 -0.3287
 2839W        W18973  12.088  13.840  11.333  0.0910  0.4113 -0.2756
 2840W        W18974  10.638   5.059  12.596 -0.1361 -0.3784 -0.1007
 2841W        W18975  14.296   9.116  12.311  0.0020 -0.1513 -0.0857
 2842W        W18976   3.723  17.081   3.456  0.0172  0.0811 -0.0475
 2843W        W18977  11.034   7.753   0.134 -0.0145 -0.0270 -0.1076
 2844W        W18978  12.111   1.264  10.483 -0.1218  0.0175 -0.1030
 2845W        W18979  10.105   4.812  12.337 -0.0391 -0.0512  0.1853
 2846W        W18980  18.114  15.206   3.420 -0.0285  0.1408  0.3458
 2847W        W18981   9.429   0.186   3.363  0.0804 -0.0905  0.0055
 2848W        W18982   6.415   5.225  10.716  0.0269 -0.1883 -0.3576
 2849W        W18983  15.234  18.124   2.884 -0.0265  0.1883 -0.1128
 2850W        W18984   5.584  12.612   4.805  0.0761 -0.0524 -0.1017
 2851W        W18985  17.559  12.154  13.589  0.3341 -0.2241  0.1514
 2852W        W18986   7.182   7.656   2.451 -0.1512  0.0827  0.0805
 2853W        W18987   4.932  11.157  15.165 -0.1459  0.3402  0.5384
 2854W        W18988   9.371  14.758  12.367 -0.1740 -0.0812 -0.0015
 2855W        W18989   3.713   1.275  12.708 -0.0461  0.0125  0.0769
 2856W        W18990   8.665  11.011   1.218 -0.0166 -0.0379 -0.1415
 2857W        W18991  17.401   6.921  15.109  0.4448  0.0099  0.0896
 2858W        W18992  10.282   3.396  15.130  0.1566 -0.0465  0.1231
 2859W        W18993  10.716  14.170  12.946 -0.0966  0.3244  0.0706
 2860W        W18994   9.398   8.436  12.764 -0.1636 -0.1189 -0.1472
 2861W        W18995  16.548   2.404   2.908  0.2852  0.0984  0.0428
 2862W        W18996  10.389   9.335   4.082  0.0064 -0.1606  0.0753
 2863W        W18997   7.409   3.630  10.936  0.0297 -0.1220  0.0023
 2864W        W18998   1.384  14.817  14.518 -0.1717  0.2145 -0.1382
 2865W        W18999  11.703  17.868   0.278 -0.0466 -0.1591 -0.1920
 2866W        W19000  10.561   9.305  13.665  0.4360  0.1275  0.1019
 2867W        W19001   6.889   5.611  12.264 -0.0100 -0.0834 -0.2376
 2868W        W19002   8.657   0.429   2.916  0.1223 -0.0262  0.0524
 2869W        W19003   8.200   9.020   1.318  0.0601 -0.0639  0.2569
 2870W        W19004   0.123  12.205   4.330  0.0282 -0.5574 -0.1381
 2871W        W19005   2.380   6.364  11.740 -0.0171  0.0991 -0.0122
 2872W        W19006   4.812   4.099   2.572  0.2416  0.1330 -0.0986
 2873W        W19007   8.073  12.121   4.579  0.2840 -0.0479 -0.0771
 2874W        W19008  18.573   3.506  12.289  0.1374  0.1043  0.0713
 2875W        W19009  16.208  16.492   0.580  0.1443 -0.1398  0.1286
 2876W        W19010  15.195   8.678   4.444  0.0310  0.1223 -0.1812
 2877W        W19011  16.820   8.443   2.076 -0.0543 -0.0278 -0.1090
 2878W        W19012  10.557  10.055  14.004  0.3460 -0.1981 -0.0685
 2879W        W19013  16.530   4.075   2.810  0.3103 -0.1995  0.1908
 2880W        W19014  18.089  16.945   5.689  0.2769  0.2569 -0.0690
 2881W        W19015   5.782   3.916   2.664  0.0539 -0.0400  0.2789
 2882W        W19016  14.521  13.842   0.876  0.0267  0.0096  0.3345
 2883W        W19017  11.900  14.347  14.560 -0.1486 -0.1196 -0.0671
 2884W        W19018  13.807  16.471  11.123  0.1191  0.0267 -0.0546
 2885W        W19019  13.474   7.277   3.826  0.1341 -0.0070  0.0145
 2886W        W19020   6.872   2.532  13.349  0.0362  0.1230 -0.0254
 2887W        W19021  17.640  13.762  14.110 -0.0561  0.3283  0.2703
 2888W        W19022   4.971  12.074  14.212  0.0618  0.0314 -0.1861
 2889W        W19023   2.235  11.798   5.083 -0.3374 -0.1145 -0.1748
 2890W        W19024  17.508  11.626  15.131  0.2414  0.1472 -0.3533
 2891W        W19025  14.628   6.432   0.152 -0.1799  0.1146  0.1474
 2892W        W19026   5.727  11.040  14.106 -0.0636 -0.1397 -0.1298
 2893W        W19027   8.504   0.294   4.966  0.1197  0.1089 -0.1265
 2894W        W19028  10.063   3.568   1.440 -0.0564 -0.0109 -0.0896
 2895W        W19029   0.040   1.847  12.818  0.0210  0.0923  0.1823
 2896W        W19030   4.232  14.334  11.738 -0.1606  0.1829 -0.1814
 2897W        W19031   7.225   0.112  10.894  0.0312  0.0043 -0.3207
 2898W        W19032  14.072   7.939   5.442  0.0510  0.0469 -0.4280
 2899W        W19033   6.182   4.835   5.582 -0.0734 -0.1069  0.0029
 2900W        W19034  17.634  16.040   0.590  0.1002 -0.1320 -0.2217
 2901W        W19035   7.911  15.794   5.354 -0.1438 -0.2331 -0.0074
 2902W        W19036   4.332  18.114  13.008 -0.0730 -0.1510  0.0554
 2903W        W19037  15.382  15.219   0.089 -0.2338  0.1024  0.3636
 2904W        W19038  11.121  10.340   3.801  0.3593  0.1518 -0.3368
 2905W        W19039   2.175  14.262  11.072  0.4357  0.0587  0.1325
 2906W        W19040  14.869   2.350  14.227 -0.1777 -0.1815  0.1127
 2907W        W19041  13.757  16.747   1.084  0.0700  0.1570  0.2715
 2908W        W19042  16.907  16.884   4.661  0.2502 -0.1772 -0.1283
 2909W        W19043   1.563   9.338   1.540  0.0462 -0.1236 -0.1029
 2910W        W19044   0.365  13.769   4.789  0.0810 -0.1197  0.0289
 2911W        W19045  16.628   1.540   4.552  0.2332  0.0331 -0.1343
 2912W        W19046  10.111  15.245  12.050 -0.2842  0.2181  0.0899
 2913W        W19047   4.237  13.104   4.982 -0.1027 -0.3218 -0.0078
 2914W        W19048   9.710  16.315   1.708  0.0420 -0.0295  0.1210
 2915W        W19049   8.605   8.574  13.417 -0.0160  0.1268  0.2283
 2916W        W19050   7.177  12.596  12.995 -0.3177  0.4247  0.1500
 2917W        W19051   9.544  14.355  12.122  0.3008  0.2138  0.0312
 2918W        W19052   7.645   1.634   2.815 -0.0584  0.0951 -0.1766
 2919W        W19053   9.109   2.713   0.154 -0.2165 -0.1483 -0.3165
 2920W        W19054   3.656   4.277   1.261 -0.2136  0.1160 -0.0577
 2921W        W19055   5.250  13.495  13.362 -0.0779 -0.1899 -0.1759
 2922W        W19056   7.543   3.321  13.527  0.0896 -0.2677  0.0403
 2923W        W19057   9.001  16.253   4.450  0.1587 -0.0454 -0.0881
 2924W        W19058  16.201  10.714   4.464  0.0248 -0.0365  0.0899
 2925W        W19059   3.500  18.624   0.859  0.2064 -0.0344  0.0335
 2926W        W19060   0.958   8.197  14.180 -0.1398  0.2531 -0.0441
 2927W        W19061   9.943  14.953  11.584  0.2252  0.0086 -0.0712
 2928W        W19062  16.418   6.294   0.587 -0.1732  0.2971 -0.2614
 2929W        W19063   9.412  16.357   3.485 -0.0942  0.0946 -0.3031
 2930W        W19064   6.223  18.710   0.808  0.1998  0.2307 -0.0310
 2931W        W19065   2.862   0.679   1.805 -0.0138 -0.1386 -0.2324
 2932W        W19066  18.574   2.722   3.989  0.2460 -0.1326  0.0267
 2933W        W19067   4.167   9.410  12.523 -0.2306  0.1875 -0.2955
 2934W        W19068  10.389   5.148  10.726  0.1192 -0.1860  0.0347
 2935W        W19069  15.668  17.615  13.754 -0.2144 -0.2015  0.1411
 2936W        W19070  14.115   6.069   1.925  0.4009  0.0820  0.2083
 2937W        W19071   1.049   9.368   1.563 -0.0004 -0.2270  0.0414
 2938W        W19072   8.165  11.657   2.381 -0.0014  0.0155 -0.1542
 2939W        W19073  11.576  14.631   4.105  0.3121 -0.1315 -0.0674
 2940W        W19074   4.513  12.957   3.890 -0.1607  0.1451  0.0107
 2941W        W19075   1.868   7.654  10.890 -0.0239 -0.0343  0.0586
 2942W        W19076  16.346   8.005  11.809  0.2816 -0.1938 -0.2444
 2943W        W19077   3.445   3.766   3.805 -0.2019 -0.1095  0.0557
 2944W        W19078  10.655  10.081   5.521 -0.3339  0.4435 -0.0398
 2945W        W19079  15.913   2.053  10.563 -0.1017 -0.3351  0.1679
 2946W        W19080  14.323  17.491   0.875  0.0959  0.2047  0.5448
 2947W        W19081   1.761   8.588  12.154 -0.1098  0.1466 -0.1959
 2948W        W19082  10.642   8.707  14.349  0.2158  0.1622  0.1830
 2949W        W19083   4.647   2.655  12.908  0.0849 -0.0101  0.1007
 2950W        W19084   5.483   3.219  14.627 -0.1534 -0.1530  0.1475
 2951W        W19085  16.000  17.893   0.345 -0.1163  0.0201 -0.2191
 2952W        W19086  18.304  13.916   1.518 -0.0760 -0.2645 -0.1167
 2953W        W19087   5.688   5.390   3.694 -0.1103  0.0393 -0.0199
 2954W        W19088  13.916  16.102   2.025 -0.1893 -0.1171 -0.0307
 2955W        W19089  15.892  18.946  14.861 -0.1491 -0.0637  0.0148
 2956W        W19090   9.505   8.796   0.209 -0.1490 -0.2778 -0.2455
 2957W        W19091  18.492   8.036  12.945  0.0747 -0.1371 -0.4377
 2958W        W19092   9.495   5.423  10.495 -0.2367 -0.1275 -0.0766
 2959W        W19093   5.228   0.300   2.178 -0.1590 -0.1989 -0.0265
 2960W        W19094   7.880  17.737  11.341  0.3666 -0.4121 -0.0807
 2961W        W19095  17.025  16.496   2.826  0.1598  0.3670  0.1356
 2962W        W19096  16.151   2.905   2.079  0.0308  0.0878 -0.1741
 2963W        W19097   4.689  10.978   3.896 -0.2084  0.1916  0.2647
 2964W        W19098  16.349   2.636   2.488  0.0784  0.0286 -0.1665
 2965W        W19099  16.540  16.714   3.000 -0.1524 -0.1130  0.2046
 2966W        W19100   0.521   8.915   2.988  0.0650 -0.1789  0.2297
 2967W        W19101   1.103  17.890  13.735  0.0245  0.2413  0.0602
 2968W        W19102   2.226  16.407   3.812 -0.0273 -0.2202  0.0367
 2969W        W19103   3.193  13.722  11.705 -0.1958 -0.0779 -0.1886
 2970W        W19104   3.199  14.745   4.865  0.2627  0.0310  0.1894
 2971W        W19105   3.887   6.058   0.215  0.0784  0.2365  0.1988
 2972W        W19106  17.235  14.780  10.544  0.0634  0.1649 -0.2993
 2973W        W19107  10.683  13.583   3.746 -0.4416 -0.1159 -0.0661
 2974W        W19108  10.847  10.287  11.037 -0.3695  0.4622 -0.0391
 2975W        W19109   8.431  18.309  14.786 -0.1209 -0.1026 -0.2249
 2976W        W19110   4.886  17.858   4.121 -0.0727  0.0017  0.1521
 2977W        W19111   6.263   9.908   3.103 -0.2467  0.3599  0.1435
 2978W        W19112   3.564   3.011   1.682  0.0907 -0.0029  0.2910
 2979W        W19113  17.431  16.097  10.441  0.1222 -0.0478 -0.1064
 2980W        W19114   8.387   4.038   1.759  0.1967  0.0578  0.1642
 2981W        W19115   6.674   8.986  10.233 -0.0702 -0.0680  0.1168
 2982W        W19116   1.048  18.206  14.168  0.1933 -0.2424  0.1084
 2983W        W19117  15.425   5.387   4.417 -0.0796  0.3797 -0.1860
 2984W        W19118  14.959   5.029   5.439  0.1563  0.2448  0.0856
 2985W        W19119   7.999   6.848   1.625 -0.0083 -0.1006  0.2102
 2986W        W19120  11.377   2.868   5.211  0.1500 -0.3559 -0.2835
 2987W        W19121  13.148   1.472   4.196 -0.2120 -0.0876 -0.1073
 2988W        W19122   0.895  16.988   2.016  0.0220  0.4635  0.2254
 2989W        W19123   5.307  13.654   1.559  0.2280 -0.1536  0.0606
 2990W        W19124   3.361  16.755   0.519  0.1167  0.1471 -0.0629
 2991W        W19125   1.861   7.882   3.435 -0.0258 -0.1346  0.2438
 2992W        W19126  17.921  11.845  12.504  0.3976  0.0663  0.1413
 2993W        W19127   3.148  18.528   3.497 -0.1454 -0.2196 -0.0257
 2994W        W19128   2.522   5.120   2.375  0.2897 -0.0070  0.0392
 2995W        W19129  17.124  12.998   1.882  0.2608 -0.0527 -0.0348
 2996W        W19130   2.930  15.575  11.648 -0.1313  0.3543  0.1471
 2997W        W19131  13.539  13.454   4.105 -0.0053  0.0450  0.2215
 2998W        W19132   8.969   5.539  11.800  0.2909  0.0579  0.1130
 2999W        W19133   3.454  16.890   4.295  0.0232 -0.0769 -0.2769
 3000W        W19134  15.853  13.554   5.717  0.2298 -0.1103  0.1069
 3001W        W19135   3.745   2.580   3.873  0.3520 -0.1483 -0.2181
 3002W        W19136  17.728   1.789   3.113  0.2959 -0.0147  0.0308
 3003W        W19137  16.767  14.358  12.132  0.0561 -0.1452  0.1597
 3004W        W19138  16.796  12.536  12.222  0.7267 -0.1688 -0.1061
 3005W        W19139  13.980  11.508  11.067 -0.0810  0.2815 -0.0543
 3006W        W19140   9.547  10.643  12.497 -0.1197 -0.1404  0.0341
 3007W        W19141   8.338  11.443   0.351 -0.0786  0.0164 -0.2954
 3008W        W19142   1.964   4.543  10.097  0.0760 -0.6087  0.3265
 3009W        W19143  14.146  19.007  12.871  0.0158 -0.0520 -0.0449
 3010W        W19144   6.910   6.919   2.114  0.3361 -0.1742 -0.0179
 3011W        W19145  11.392  17.072  12.568  0.1423  0.0429  0.0064
 3012W        W19146   9.068   6.737  12.273 -0.1259 -0.3399 -0.0359
 3013W        W19147  18.133   0.373   4.201  0.1971 -0.0412  0.0197
 3014W        W19148  17.727   4.966   0.543  0.2620 -0.1527  0.1742
 3015W        W19149  11.205  11.639   2.597  0.2030 -0.0034  0.2134
 3016W        W19150   4.525  17.004  12.666  0.1497 -0.0233  0.2887
 3017W        W19151  13.824   6.424  13.030  0.0748  0.0416 -0.3182
 3018W        W19152   2.351  12.637   2.525  0.0507 -0.0587  0.0521
 3019W        W19153  15.207   8.400   1.636  0.0734  0.1063 -0.1348
 3020W        W19154  12.649  13.370   1.673  0.2236  0.0072  0.0188
 3021W        W19155   1.572  13.154   1.531  0.1217 -0.1064  0.2117
 3022W        W19156   3.864  12.646   5.130 -0.1259 -0.0705 -0.0874
 3023W        W19157   0.264  14.191  15.175 -0.0197  0.2397  0.0715
 3024W        W19158  16.354   7.088   0.951 -0.0203 -0.3013  0.3321
 3025W        W19159  12.399   0.024  11.571  0.2515 -0.0334  0.0512
 3026W        W19160   6.318   5.128  15.271  0.2210 -0.0219 -0.0730
 3027W        W19161   7.433   8.713   3.275 -0.1577  0.4327  0.1345
 3028W        W19162   2.034  11.117  15.061  0.0837  0.2242  0.1151
 3029W        W19163  18.025  15.113   1.994  0.0862 -0.2991  0.0885
 3030W        W19164   4.160   1.557   4.340 -0.3714  0.1030 -0.1670
 3031W        W19165  14.121  10.738  13.393 -0.0394  0.1883  0.3822
 3032W        W19166  11.992   5.942  12.784  0.3265  0.2251 -0.1194
 3033W        W19167  11.695  18.097   0.851  0.2682 -0.2379  0.3937
 3034W        W19168   5.991  15.043   4.255  0.2909  0.1200  0.0008
 3035W        W19169  15.745   5.354   0.373 -0.0096  0.2787 -0.4555
 3036W        W19170   0.863   4.337  12.715 -0.2277  0.3065 -0.0076
 3037W        W19171   9.636   9.754   3.474 -0.1007  0.2889 -0.2181
 3038W        W19172   0.518   2.778   5.130  0.1675 -0.1287 -0.2555
 3039W        W19173   0.504   6.630  12.535  0.3724  0.3004  0.0468
 3040W        W19174  14.131   6.309  11.650  0.4759  0.0974  0.0788
 3041W        W19175   3.407  13.301   3.014 -0.1354  0.3464  0.1640
 3042W        W19176  15.907  15.383   4.002  0.0537 -0.0600 -0.1241
 3043W        W19177  17.815   7.964   4.099  0.3474 -0.2225  0.2238
 3044W        W19178  11.331  11.506   0.025  0.3169  0.1008  0.4244
 3045W        W19179   7.031  17.631   0.583  0.1206  0.3015  0.1533
 3046W        W19180   7.216   7.420  13.751  0.1914 -0.0902 -0.1389
 3047W        W19181   2.738   8.791  15.286  0.4417 -0.2351  0.0458
 3048W        W19182   8.450   9.820  13.930  0.1456  0.0014 -0.0356
 3049W        W19183   3.292   6.117  10.567  0.5057  0.0243 -0.2895
 3050W        W19184   7.583  14.900   0.697 -0.1552 -0.3545 -0.0656
 3051W        W19185   9.070  12.521  10.967 -0.4390  0.0031 -0.2079
 3052W        W19186   7.126  16.344  12.093  0.0733 -0.0344 -0.1390
 3053W        W19187  14.159  15.011  13.430 -0.0108 -0.1383 -0.2982
 3054W        W19188   7.303   0.522   2.012 -0.1396  0.2647 -0.0657
 3055W        W19189   1.076  15.620   1.870 -0.4316 -0.1884 -0.0570
 3056W        W19190   4.785   2.080  11.870 -0.1363  0.1332 -0.1665
 3057W        W19191   0.753   8.249  13.661  0.2697 -0.0017  0.1792
 3058W        W19192  16.427  18.474   1.074 -0.0229  0.3177  0.0067
 3059W        W19193  13.302   3.498   9.933  0.0191 -0.1071  0.0846
 3060W        W19194   2.399   5.157   0.855 -0.0293 -0.2129 -0.0476
 3061W        W19195   9.983   0.141   4.019 -0.2355 -0.2506  0.4562
 3062W        W19196  10.345   1.451   4.450 -0.1747  0.1634  0.1854
 3063W        W19197   7.950  13.904   1.555 -0.0425  0.1686  0.1025
 3064W        W19198  17.397   9.174   1.528  0.0752 -0.3722  0.1598
 3065W        W19199   2.245   0.560   3.936  0.1696 -0.0664  0.0058
 3066W        W19200   3.173   1.705  10.690  0.3766  0.2265  0.1718
 3067W        W19201  11.622  13.894   0.135  0.0123 -0.0298 -0.0270
 3068W        W19202   0.885  18.321  12.431  0.1380 -0.1047 -0.1235
 3069W        W19203   6.963  13.151   5.284  0.1350  0.0806  0.0493
 3070W        W19204   1.234  17.224   2.598  0.2420 -0.1021  0.0139
 3071W        W19205   1.335  13.158   5.608 -0.0448 -0.2305 -0.2251
 3072W        W19206  18.115   6.612  10.678 -0.1527 -0.0767  0.1458
 3073W        W19207  11.701   9.027  13.108  0.1385 -0.2486 -0.0517
 3074W        W19208   7.594   8.315   2.955  0.0218  0.2307 -0.0362
 3075W        W19209  11.544   5.170  13.602 -0.1485 -0.0266  0.2854
 3076W        W19210  18.752   6.270  12.239  0.0544 -0.1387 -0.2831
 3077W        W19211   0.672   6.140  14.599  0.0961  0.3058  0.0043
 3078W        W19212  15.763  16.158  13.443  0.0864 -0.0156  0.1171
 3079W        W19213   0.944   8.897  14.697  0.0178 -0.4085  0.0982
 3080W        W19214  11.433  10.660   1.974 -0.3475  0.1746 -0.0075
 3081W        W19215   8.055   5.396   4.364  0.1564  0.0545 -0.1317
 3082W        W19216   3.622   8.582   2.910  0.0973  0.2073  0.0045
 3083W        W19217   4.497   0.440  14.021 -0.1625  0.2395  0.2040
 3084W        W19218   9.416   9.034   5.682  0.0208  0.0392 -0.0133
 3085W        W19219  15.724  16.272   1.645  0.3027 -0.1687 -0.1679
 3086W        W19220   5.958   7.446  11.465 -0.1460  0.0392 -0.1893
 3087W        W19221  14.443  13.627   1.971  0.1870 -0.2626  0.0950
 3088W        W19222   4.258  12.268  10.985 -0.0836 -0.2608 -0.4395
 3089W        W19223   6.855  16.746  13.925  0.4556  0.2721 -0.2956
 3090W        W19224   4.068   5.363   4.386 -0.1333  0.1033  0.1529
 3091W        W19225   3.870   4.094   3.662 -0.1600  0.0377 -0.0609
 3092W        W19226  17.677   6.937   2.318  0.1203 -0.0639 -0.1298
 3093W        W19227  10.258   7.997  13.799  0.0512 -0.3326  0.2878
 3094W        W19228  14.470  14.049   4.004 -0.0766 -0.1470 -0.1166
 3095W        W19229  17.486  14.460   3.205  0.1368  0.0914 -0.0985
 3096W        W19230   4.059   0.377  11.632 -0.1485  0.3206  0.2758
 3097W        W19231   3.444  17.275  13.376 -0.0597 -0.2246  0.2038
 3098W        W19232  13.064   3.930  11.107 -0.2418  0.0983 -0.2232
 3099W        W19233  12.632  10.009   2.474  0.0644  0.2970  0.0360
 3100W        W19234  17.919   8.094  13.338 -0.0406 -0.2934  0.0650
 3101W        W19235   6.507   1.115  12.113  0.0458 -0.0889 -0.1598
 3102W        W19236  15.098   9.240   2.986 -0.0088  0.1760  0.1981
 3103W        W19237  16.545  16.132  10.854  0.1885 -0.4010 -0.3056
 3104W        W19238  16.135   1.560  11.250  0.1744 -0.1610  0.2157
 3105W        W19239   6.947   2.668  14.337  0.0137  0.2263  0.0020
 3106W        W19240   9.789  18.798  15.147 -0.2390 -0.2878  0.0510
 3107W        W19241   6.459  12.303  11.269 -0.0701 -0.1175  0.0001
 3108W        W19242   3.370   8.975   2.800 -0.2288 -0.0116  0.1527
 3109W        W19243   8.386  17.594   3.288 -0.1993 -0.0735 -0.2374
 3110W        W19244  14.092   1.559  12.629 -0.1259 -0.0111  0.0915
 3111W        W19245   1.949   0.482  13.860  0.0172 -0.1093 -0.1344
 3112W        W19246   7.803   2.483   3.487  0.2202 -0.2349  0.1659
 3113W        W19247   5.962  10.981  14.550 -0.2095 -0.1476 -0.1071
 3114W        W19248   5.142  17.000   0.554  0.1290  0.4451  0.3586
 3115W        W19249  12.691   1.303   5.517  0.4148 -0.3192 -0.1384
 3116W        W19250   5.246  16.059   5.246 -0.2562 -0.1719  0.3267
 3117W        W19251   1.244  10.559   1.374  0.2991 -0.3422  0.1608
 3118W        W19252  14.248  14.994   5.157 -0.1177 -0.1931  0.0713
 3119W        W19253   5.547   8.872   0.747 -0.0595 -0.1384  0.0217
 3120W        W19254  18.151  12.194   3.477  0.1681  0.1745 -0.0629
 3121W        W19255   2.751   8.405  13.589 -0.1657 -0.3964 -0.2763
 3122W        W19256   5.236   9.514  11.763  0.0267 -0.0089 -0.2187
 3123W        W19257  16.525   6.383   5.523  0.1231  0.1379  0.2227
 3124W        W19258   4.824  16.387  13.170  0.1436  0.0854 -0.0465
 3125W        W19259   7.461  17.421   2.554  0.3825 -0.0044  0.0220
 3126W        W19260  16.447  14.143  12.929  0.3521 -0.0426  0.2189
 3127W        W19261  13.548   4.827  12.586  0.1395  0.0127 -0.1141
 3128W        W19262  14.747  12.358   4.134 -0.2566  0.2560 -0.0241
 3129W        W19263   3.363  18.408  13.079 -0.1739  0.3341 -0.0896
 3130W        W19264  13.287   1.010   3.411 -0.0522 -0.0775  0.0153
 3131W        W19265   9.776  11.994  12.123 -0.0188  0.0748 -0.0396
 3132W        W19266  14.707   6.126   4.920  0.2300 -0.0859  0.0235
 3133W        W19267  13.271  17.480  12.261 -0.1081  0.2956  0.3378
 3134W        W19268  13.404  10.589  14.147  0.0531  0.0428 -0.0948
 3135W        W19269  15.077  18.956   3.523 -0.1201 -0.0132  0.0154
 3136W        W19270   1.135   7.033   0.013  0.1819  0.1497 -0.0762
 3137W        W19271  14.090   4.602  14.417 -0.2138  0.0704 -0.1339
 3138W        W19272   9.262   4.987  11.695  0.1441  0.2873  0.2105
 3139W        W19273  15.596   2.433   4.329 -0.1921  0.0703  0.0583
 3140W        W19274   4.781  16.986  11.323 -0.2559 -0.0999 -0.1608
 3141W        W19275  18.730   5.740   3.243 -0.0508  0.0328 -0.0391
 3142W        W19276   2.567  18.448  12.057 -0.2519 -0.0029  0.1017
 3143W        W19277  17.222  16.787   3.629 -0.0470 -0.1757 -0.5003
 3144W        W19278  12.293   6.501   1.336 -0.2297  0.0419 -0.1507
 3145W        W19279   6.515  11.649   2.047  0.0527  0.0515  0.1488
 3146W        W19280  16.855   5.700  13.240  0.3235 -0.3670  0.2585
 3147W        W19281  14.984   2.545   0.519 -0.1555  0.4120  0.1146
 3148W        W19282  14.663  11.267   3.703 -0.1765  0.3664  0.1199
 3149W        W19283  12.095   0.267  12.248 -0.0641 -0.1369  0.2805
 3150W        W19284   8.649   2.186  14.742 -0.2768 -0.1647  0.1861
 3151W        W19285  17.670  10.873   3.635  0.2234 -0.1665 -0.0589
 3152W        W19286   1.602  14.842   3.560  0.2730 -0.0451 -0.2429
 3153W        W19287   2.172  11.261  10.966  0.2795  0.0942 -0.3043
 3154W        W19288   2.008  15.829   1.610  0.0353  0.0126 -0.1180
 3155W        W19289   2.120  17.322  10.991 -0.0336 -0.1026 -0.0111
 3156W        W19290   4.288  16.761   3.910 -0.2341  0.1245 -0.1515
 3157W        W19291   5.346   8.873   4.444  0.0437 -0.0025 -0.1461
 3158W        W19292   2.141   6.304   0.780  0.4294  0.3107 -0.1492
 3159W        W19293  18.544  16.663  13.954 -0.3183 -0.4238  0.2919
 3160W        W19294  18.398   4.538   4.044  0.1188  0.4221 -0.1444
 3161W        W19295   6.479   6.242  10.844 -0.2211  0.0618 -0.1816
 3162W        W19296  18.527  16.031   0.678  0.5197 -0.3436  0.3167
 3163W        W19297  15.044   5.064   2.570 -0.2639  0.2087  0.0733
 3164W        W19298  18.563   1.146   3.547 -0.1520 -0.0837 -0.4816
 3165W        W19299   2.485  17.173  11.304 -0.1355  0.2431  0.2133
 3166W        W19300   0.884   5.917   2.194 -0.0679 -0.0247  0.2847
 3167W        W19301   8.813   0.951   2.895  0.1362 -0.1169  0.2228
 3168W        W19302   2.418   2.108  14.816  0.2881 -0.0950 -0.2402
 3169W        W19303  14.781   4.227  12.238 -0.1586  0.4062 -0.1280
 3170W        W19304   6.652  17.314  10.495 -0.1087  0.3027 -0.0967
 3171W        W19305  17.626   1.444   1.445 -0.4380  0.1974 -0.0921
 3172W        W19306   5.140  13.976  13.210 -0.0108  0.0805  0.1322
 3173W        W19307  11.558  13.306  14.639  0.3997  0.2857  0.2160
 3174W        W19308  11.225   8.438  14.801 -0.0679 -0.1116  0.1988
 3175W        W19309  12.019  15.059   1.500  0.3802  0.3437  0.1042
 3176W        W19310  15.672   0.690  12.289 -0.0315  0.2664  0.0789
 3177W        W19311   4.887  17.793   0.818  0.0027  0.0991 -0.2397
 3178W        W19312   1.566   7.776   4.800 -0.0157 -0.0134 -0.0444
 3179W        W19313   4.277   9.205  11.628  0.0402  0.0663 -0.0776
 3180W        W19314   0.552   9.165   9.547  0.0252 -0.0588  0.0729
 3181W        W19315  13.708   1.418  12.040  0.1175 -0.0321  0.0530
 3182W        W19316  11.912  16.842   3.492 -0.1520 -0.0534  0.0228
 3183W        W19317   0.538   8.340  14.435  0.0119 -0.1493  0.1483
 3184W        W19318  14.716  16.456  11.285 -0.2606  0.1816 -0.3410
 3185W        W19319   9.175   8.586   9.603  0.1349 -0.3175  0.0953
 3186W        W19320  17.534  18.622  10.441 -0.2044 -0.3941 -0.0509
 3187W        W19321  12.184   0.449   4.913 -0.1152  0.0459 -0.4179
 3188W        W19322  17.771   2.212  12.551  0.0526  0.1249 -0.2889
 3189W        W19323  18.416   4.481  12.002 -0.3120 -0.0440  0.1258
 3190W        W19324   6.860   7.995  10.426 -0.1444 -0.0214  0.0887
 3191W        W19325   8.864  18.560  10.769 -0.2873  0.1740 -0.4843
 3192W        W19326   1.093   1.922  13.824  0.1444  0.1752 -0.1279
 3193W        W19327   3.526  15.962  10.371  0.0614 -0.0645 -0.1610
 3194W        W19328  10.588   9.231  14.543 -0.1411 -0.0792  0.0413
 3195W        W19329  16.324  12.001   2.961  0.1456 -0.0199 -0.0453
 3196W        W19330  12.095   9.203   4.447  0.0794 -0.2664  0.0675
 3197W        W19331   5.857  16.945  13.062 -0.2164  0.2576  0.1907
 3198W        W19332   7.569   1.272  14.092  0.0400  0.1027 -0.0616
 3199W        W19333  13.158   2.005  14.598 -0.0012 -0.0871  0.0219
 3200W        W19334  15.781  11.556   4.788  0.1706  0.1422  0.1869
 3201W        W19335   3.404  17.640  12.981  0.3509  0.2457 -0.2031
 3202W        W19336  13.739  11.426  12.881  0.0026  0.3361  0.3131
 3203W        W19337  11.711  16.822   4.767  0.4163  0.0981  0.3053
 3204W        W19338   2.923  11.929   1.397  0.0879  0.1868 -0.1642
 3205W        W19339   6.685   6.168  13.185 -0.1381 -0.1815 -0.0168
 3206W        W19340   0.886  10.295   3.223 -0.2432  0.0022 -0.2535
 3207W        W19341   4.395   0.920   0.217 -0.1263 -0.1455 -0.2712
 3208W        W19342   2.885  10.871  14.542  0.2632 -0.1056 -0.3900
 3209W        W19343  14.106   8.570  11.250  0.0663 -0.1258  0.0400
 3210W        W19344   6.932  11.630   1.178  0.2800 -0.1216 -0.2554
 3211W        W19345   2.899  18.740  14.280  0.0815  0.4270  0.0797
 3212W        W19346  17.819  16.102   3.736 -0.0501  0.0167  0.2445
 3213W        W19347   4.872   0.750  14.237 -0.2085  0.0924  0.1158
 3214W        W19348  13.272   5.198  11.600  0.4487  0.1915 -0.3223
 3215W        W19349   0.440   8.512   5.361  0.3480  0.2405  0.2398
 3216W        W19350   8.759   1.840  12.292 -0.3480  0.0033 -0.0579
 3217W        W19351  17.607  17.268   4.938  0.0038 -0.0618 -0.1937
 3218W        W19352  11.312   4.272  12.984  0.0682  0.0857 -0.1469
 3219W        W19353   4.620   7.219   2.824  0.0579 -0.0451 -0.3371
 3220W        W19354   9.881  12.523  13.599  0.2722 -0.2017  0.0058
 3221W        W19355   1.260   1.274   0.661  0.0694 -0.2376 -0.4314
 3222W        W19356   4.658  10.611   4.745  0.0797 -0.0653  0.0460
 3223W        W19357  17.768   5.227   4.092 -0.1598  0.0038  0.0912
 3224W        W19358   3.633   8.360   1.680  0.0054 -0.0014  0.1686
 3225W        W19359   7.380   9.055  14.662  0.0445 -0.3048  0.1974
 3226W        W19360   9.059  18.995  13.101 -0.0624 -0.1051  0.1438
 3227W        W19361  15.712   7.200   3.689  0.1901  0.0070 -0.1037
 3228W        W19362  17.179   3.117   3.562 -0.1316  0.3137  0.0016
 3229W        W19363  18.602   5.276   0.829  0.2107  0.0527  0.2039
 3230W        W19364  13.720  14.106   3.906  0.2254  0.0803  0.0670
 3231W        W19365   9.038  10.114  13.202  0.0739  0.0489  0.1173
 3232W        W19366  18.437   2.527   3.221 -0.0617  0.0330 -0.0351
 3233W        W19367   1.880   8.148   1.412 -0.0541 -0.1424  0.0288
 3234W        W19368  12.329   6.745   5.632  0.1320  0.0654  0.1969
 3235W        W19369   6.671  15.924  13.123 -0.1745  0.0652 -0.5077
 3236W        W19370   4.920   1.394   3.515  0.1996 -0.1671  0.2780
 3237W        W19371   4.095   6.441  12.234  0.1799  0.1948  0.0743
 3238W        W19372  16.078   2.324   4.254 -0.0204 -0.0173  0.0889
 3239W        W19373   1.671   3.782   4.204 -0.1034 -0.0714 -0.1569
 3240W        W19374   9.468   0.372   4.716 -0.1397  0.1009 -0.0596
 3241W        W19375  17.066   1.138   1.608  0.3462 -0.3294 -0.1426
 3242W        W19376   3.045   0.823   4.359  0.3240  0.0351 -0.1313
 3243W        W19377   7.223   6.209  14.019  0.1572  0.0428 -0.0141
 3244W        W19378   2.251  18.069   5.171  0.1445 -0.2514  0.3327
 3245W        W19379  15.688  15.248  14.055 -0.4691 -0.3876  0.2017
 3246W        W19380   2.848   8.133  11.510 -0.4419 -0.2231 -0.2030
 3247W        W19381   5.729  12.831   5.971 -0.0284  0.1403  0.4473
 3248W        W19382  13.932  18.111  15.033  0.1249  0.0875  0.1151
 3249W        W19383  16.126  11.101   3.345  0.1873  0.0217  0.3792
 3250W        W19384   2.414  17.862  15.154  0.0354 -0.0643 -0.1511
 3251W        W19385  12.512   5.384   9.530  0.5651  0.0980 -0.2348
 3252W        W19386  17.774   4.608  13.645 -0.0727 -0.1890 -0.1510
 3253W        W19387   0.396   3.512   5.405 -0.5255 -0.0292  0.1984
 3254W        W19388   5.089  12.840   2.427 -0.1422  0.0526 -0.4108
 3255W        W19389   1.571   5.185   3.817 -0.1635 -0.1752 -0.0313
 3256W        W19390   3.206  16.971  15.203  0.1756  0.0561 -0.3512
 3257W        W19391   6.226   6.285  13.037 -0.0969 -0.3307  0.0024
 3258W        W19392  11.930   6.938   2.049 -0.2062  0.1058 -0.1355
 3259W        W19393  14.295   1.595   4.012  0.0644  0.5325  0.3518
 3260W        W19394   9.326   8.566   3.341  0.1407 -0.0322 -0.1980
 3261W        W19395   1.138  15.344   2.687  0.0686 -0.0534  0.4134
 3262W        W19396  17.708   8.400   2.333 -0.0240 -0.1892  0.2131
 3263W        W19397  13.425  10.499  14.669  0.1852  0.1414 -0.2218
 3264W        W19398   9.614   0.972  10.531 -0.0063  0.1665  0.1038
 3265W        W19399  12.038  10.969  12.526  0.0257  0.0109 -0.5140
 3266W        W19400  12.615  14.716   0.277 -0.2578 -0.1844 -0.0811
 3267W        W19401  13.594  13.250  11.507 -0.0152 -0.2990 -0.4427
 3268W        W19402   5.247   1.180   1.827  0.0599  0.0710  0.1524
 3269W        W19403   7.278  14.367  11.136  0.0244  0.2322  0.0480
 3270W        W19404   9.837  10.315  13.635  0.0025  0.2144 -0.0263
 3271W        W19405  11.168  12.917   0.293 -0.1676  0.1070  0.1155
 3272W        W19406   7.167  15.712  11.443 -0.2520  0.1142  0.3177
 3273W        W19407  16.648   2.041   3.773  0.1989  0.1306 -0.2906
 3274W        W19408  18.816  10.777   1.661 -0.1719 -0.0120 -0.1640
 3275W        W19409   9.892  17.626  11.674 -0.0097  0.1549 -0.1903
 3276W        W19410  14.696   5.515   0.640 -0.0647  0.1840 -0.4418
 3277W        W19411   5.195  11.743   4.246 -0.1704  0.1652 -0.1707
 3278W        W19412  17.299   4.579   5.130  0.3025  0.0201 -0.1917
 3279W        W19413   9.515   3.257   0.376 -0.2275 -0.0725 -0.1721
 3280W        W19414   5.318  14.090   0.574 -0.0437 -0.1196 -0.2291
 3281W        W19415  18.599  15.966  11.968 -0.2895 -0.3532  0.0366
 3282W        W19416  15.785  17.659   2.333 -0.4186 -0.2214 -0.0558
 3283W        W19417  16.760  15.709   1.780 -0.3138  0.1750 -0.1026
 3284W        W19418   6.540  12.754   0.749  0.0620 -0.1208  0.1256
 3285W        W19419   7.190   2.095  13.676  0.0973  0.0573 -0.3140
 3286W        W19420  13.798   7.074  11.333 -0.0345  0.2377  0.0470
 3287W        W19421  15.449  10.474   2.188 -0.0934 -0.1215 -0.0464
 3288W        W19422   6.561   5.036   2.774  0.1119 -0.1448  0.0434
 3289W        W19423  11.994  10.561  14.618  0.2497  0.1514 -0.1052
 3290W        W19424  14.395   3.162  15.121  0.1966 -0.0102  0.1268
 3291W        W19425   5.020  15.797  10.860  0.1901 -0.1670 -0.4569
 3292W        W19426  14.207  15.079  14.089  0.0739  0.1178 -0.2120
 3293W        W19427   0.224  11.995  14.958  0.2373  0.1579 -0.1877
 3294W        W19428  14.362   3.579  11.674 -0.2016 -0.0500 -0.0246
 3295W        W19429  10.527  18.256  12.004 -0.3766  0.4855 -0.0974
 3296W        W19430  15.841  18.009  10.425 -0.1372  0.0395 -0.2814
 3297W        W19431   8.453   8.463   2.607 -0.0696  0.1458  0.1618
 3298W        W19432  16.475  13.018   3.269  0.0346  0.0097  0.2313
 3299W        W19433  14.919  13.425   2.866 -0.0516 -0.0598 -0.0865
 3300W        W19434   4.858   5.940   2.134  0.3956 -0.0050  0.0823
 3301W        W19435  18.515   8.917  11.351 -0.1274  0.4437  0.2572
 3302W        W19436   7.918  16.197  13.975 -0.0027 -0.1967  0.1925
 3303W        W19437  16.078   1.599   4.382 -0.2692  0.0608 -0.0742
 3304W        W19438   7.119  10.525   4.894  0.1014  0.1260  0.1595
 3305W        W19439   3.257  16.418  13.872  0.3247 -0.1713 -0.0068
 3306W        W19440   9.845  10.201   1.868  0.0254 -0.3141 -0.0130
 3307W        W19441   8.067   2.550   5.053 -0.0337  0.0949 -0.0868
 3308W        W19442   8.655  16.288  10.033  0.1798  0.2660 -0.1712
 3309W        W19443  14.544   5.104  12.321 -0.4325 -0.1447 -0.0721
 3310W        W19444  11.105  12.973   5.689 -0.1158  0.0846  0.1919
 3311W        W19445   2.225   4.875   2.042 -0.0412  0.1705 -0.2743
 3312W        W19446   6.572   7.294   2.947 -0.0560  0.0383 -0.0694
 3313W        W19447  15.762   6.265  11.891 -0.0042  0.0684 -0.3128
 3314W        W19448  12.405  14.718   3.706 -0.2610 -0.0992  0.0636
 3315W        W19449   0.207   9.943   3.713 -0.1111 -0.2200  0.1760
 3316W        W19450   4.713   7.706   2.918 -0.0079  0.0293 -0.0261
 3317W        W19451  14.133  16.330   1.489  0.2432  0.2498  0.1006
 3318W        W19452  12.928  15.952  14.628 -0.0106  0.2925  0.0233
 3319W        W19453   2.091   0.746  15.018  0.1132  0.1506  0.2312
 3320W        W19454  14.454   8.290   4.885  0.0791 -0.3164  0.0479
 3321W        W19455  18.266  10.358   2.619  0.0990  0.0451  0.0354
 3322W        W19456   8.189   8.044  14.440  0.1042  0.1468  0.0058
 3323W        W19457  16.428   5.625  11.497  0.2680  0.0349  0.0641
 3324W        W19458  10.157  16.693   1.321  0.1741  0.1653 -0.0048
 3325W        W19459   6.882  14.735   0.588  0.1016  0.2081  0.0658
 3326W        W19460   8.456  14.865  11.097  0.1954  0.1754 -0.2401
 3327W        W19461   6.884   5.305   1.913  0.1698  0.0091  0.0741
 3328W        W19462  11.235   5.217  12.534 -0.0762  0.3515 -0.1322
 3329W        W19463   2.806   8.474   5.423  0.3504 -0.0990 -0.0489
 3330W        W19464   9.138   0.760  13.796  0.1118 -0.3883  0.0038
 3331W        W19465  10.846   6.344  11.779 -0.3153  0.1384 -0.0053
 3332W        W19466   4.979   7.638  13.563 -0.1194 -0.1268 -0.0891
 3333W        W19467  15.747  16.110   2.191  0.3425  0.3542  0.0256
 3334W        W19468  13.519  18.673  12.768 -0.1742 -0.1755  0.0809
 3335W        W19469  13.234  11.399   0.010 -0.0013 -0.4206  0.0667
 3336W        W19470   2.302   9.800   3.910  0.1254  0.0360  0.0774
 3337W        W19471  17.457   8.853   2.119  0.2594 -0.1481  0.5446
 3338W        W19472   0.790  13.774   0.647 -0.0958  0.2040  0.0841
 3339W        W19473   8.412   6.221   4.525 -0.2176 -0.2181  0.0057
 3340W        W19474   1.598  12.087  10.871 -0.2040 -0.0409 -0.1723
 3341W        W19475   1.582  10.915   1.665 -0.0285  0.1156 -0.1776
 3342W        W19476  18.948   8.266   3.527 -0.0139  0.1223  0.2377
 3343W        W19477  15.823  12.742   1.006 -0.0548  0.3359  0.0828
 3344W        W19478  11.911   3.992   3.928 -0.1325  0.3132 -0.2275
 3345W        W19479   0.420  13.328  11.481  0.1947  0.2185  0.0434
 3346W        W19480   8.415  17.584   2.750 -0.2430  0.2404 -0.3273
 3347W        W19481  18.893   5.148  15.024  0.1604 -0.2384  0.0843
 3348W        W19482   8.636   6.402   2.535 -0.0652 -0.2252 -0.2731
 3349W        W19483  15.466   6.315   0.616 -0.1234 -0.0740 -0.1199
 3350W        W19484   8.216   9.816   5.414 -0.2572  0.1389  0.0461
 3351W        W19485   5.876  13.225  12.537  0.1050 -0.0778 -0.0784
 3352W        W19486   4.819  10.031   1.603 -0.1535  0.0393  0.2105
 3353W        W19487  14.935  15.916  14.023 -0.1504  0.0415 -0.0909
 3354W        W19488   1.038  16.805  11.543  0.0146 -0.1552  0.1838
 3355W        W19489  17.910   8.047   5.328 -0.0131  0.1678  0.0523
 3356W        W19490   8.970   6.002  13.662  0.0515  0.1392 -0.1854
 3357W        W19491   3.427   3.146  14.665  0.0512 -0.1271  0.0515
 3358W        W19492   3.437  18.055   3.971  0.3520 -0.0198  0.1623
 3359W        W19493   0.297   4.323   1.978 -0.3630  0.0523 -0.1933
 3360W        W19494   9.499   6.450  11.662 -0.0868 -0.0428  0.2215
 3361W        W19495  15.130   0.373   3.247 -0.0730  0.2578 -0.1660
 3362W        W19496   2.511   6.657   2.060  0.0245  0.1138 -0.0055
 3363W        W19497   7.801   5.648   4.745  0.2398  0.2631  0.0032
 3364W        W19498   7.502  12.815   3.252  0.0073  0.0818  0.3600
 3365W        W19499   8.404  10.106  10.255 -0.1118  0.0333 -0.0332
 3366W        W19500  12.432   4.355   1.814  0.2052 -0.1600  0.0072
 3367W        W19501  12.512  15.104   2.353 -0.1675  0.0331  0.1823
 3368W        W19502   0.424  18.802   0.053  0.2217  0.2314 -0.4735
 3369W        W19503  17.098   8.509  10.911  0.0815  0.3004 -0.4581
 3370W        W19504   5.381  17.919   1.328 -0.1039  0.2694 -0.1447
 3371W        W19505   0.816   0.175   1.415 -0.2208  0.3114 -0.2740
 3372W        W19506  10.296  14.874  12.427 -0.0079  0.1715 -0.0947
 3373W        W19507   3.724  15.694  11.269  0.0495 -0.1478  0.1613
 3374W        W19508   0.121   1.871  14.096 -0.1399 -0.1542 -0.2451
 3375W        W19509  13.651   7.682  14.875  0.1792  0.0768  0.0914
 3376W        W19510   2.742  15.380  11.199  0.0740  0.1467  0.1677
 3377W        W19511   0.320   0.195   3.105  0.0576 -0.0568 -0.2168
 3378W        W19512  11.603   7.936  10.502  0.2199 -0.2069  0.0944
 3379W        W19513   5.246   1.143  14.079  0.1321  0.0638  0.1057
 3380W        W19514   1.811  10.201  11.436  0.2983 -0.2565  0.0760
 3381W        W19515  18.907   3.297   5.159 -0.3678  0.1131  0.2321
 3382W        W19516  10.273   2.023  11.982 -0.1248  0.1049 -0.2063
 3383W        W19517   5.876  11.922   1.375 -0.1010 -0.1150  0.2233
 3384W        W19518   2.811   5.891   1.192 -0.1082 -0.0923  0.0991
 3385W        W19519   8.855   2.674   4.349 -0.0746  0.2799  0.0878
 3386W        W19520  18.089   6.841   3.221 -0.3785 -0.1813 -0.0590
 3387W        W19521   3.364  15.790   5.136 -0.0264 -0.0274 -0.0282
 3388W        W19522   5.020   6.040  12.551  0.1066 -0.3266  0.1485
 3389W        W19523   8.231   4.239  12.540 -0.0414 -0.0219  0.1187
 3390W        W19524   0.375  14.286   4.918 -0.1683 -0.0340 -0.0945
 3391W        W19525   2.837   4.840   0.587 -0.3631  0.0054  0.0286
 3392W        W19526  17.184   1.335  12.595 -0.2748  0.3576  0.1690
 3393W        W19527   5.583   4.382  12.923 -0.0093  0.3623 -0.1516
 3394W        W19528  16.822  14.828   5.397 -0.1848  0.0788  0.0998
 3395W        W19529   9.665   9.360  13.242  0.0324  0.0509  0.0461
 3396W        W19530  18.968  14.647   4.934 -0.3281  0.0998  0.1499
 3397W        W19531   9.737   6.600   1.603 -0.1883 -0.2420 -0.1974
 3398W        W19532  16.555   5.313   3.534  0.2205 -0.0879  0.1856
 3399W        W19533   9.535  10.697   2.497  0.1026  0.1549 -0.2023
 3400W        W19534  14.191   2.884   3.498  0.0905  0.3235  0.2113
 3401W        W19535   2.595   6.186  14.800  0.2229  0.1406 -0.0783
 3402W        W19536   8.954   6.990   5.018  0.4694 -0.1829 -0.0854
 3403W        W19537  12.770   1.612  13.555 -0.0660 -0.1409 -0.0190
 3404W        W19538  10.585   5.533  11.170  0.1702  0.1910  0.2162
 3405W        W19539  16.234   6.386  14.922 -0.2056  0.0695  0.1306
 3406W        W19540  12.006   0.656  11.200 -0.0236 -0.2515 -0.0393
 3407W        W19541  13.647   3.382   0.220 -0.5374 -0.1267 -0.3090
 3408W        W19542   4.523  18.678  11.188  0.2301 -0.3007 -0.0987
 3409W        W19543  16.093   5.433   1.648  0.1952 -0.0671  0.0016
 3410W        W19544  17.896   0.831  13.058 -0.2456  0.0634 -0.2128
 3411W        W19545  13.348   8.679  11.234  0.1498 -0.1658 -0.1162
 3412W        W19546  12.880  17.982   2.393 -0.0191  0.0708  0.1091
 3413W        W19547   2.764   3.301  13.586 -0.2534 -0.0508  0.4095
 3414W        W19548  10.739  12.620  13.198 -0.1928  0.0682  0.1688
 3415W        W19549  12.385   2.723  12.779  0.2140 -0.2251  0.0254
 3416W        W19550   9.421   9.016   4.153 -0.0371  0.0781 -0.2051
 3417W        W19551   9.586  17.535   2.864  0.3253 -0.0074 -0.0791
 3418W        W19552  17.935  16.907  12.771  0.1873 -0.2154 -0.1438
 3419W        W19553  17.937   6.149  14.656  0.3037 -0.1410 -0.1338
 3420W        W19554   5.846  16.916   1.344  0.0712  0.2512  0.1329
 3421W        W19555  15.626   0.324   0.118  0.0224  0.0385  0.0881
 3422W        W19556   6.782  17.335  12.041 -0.0647  0.0377 -0.2082
 3423W        W19557   4.920   3.283   0.560 -0.1046  0.0766 -0.1877
 3424W        W19558   7.761  12.444   4.041 -0.1949  0.2463 -0.1820
 3425W        W19559  15.097  11.451  14.720  0.0184  0.0853  0.0562
 3426W        W19560  10.289  11.208  13.538  0.1982  0.3093 -0.2746
 3427W        W19561   0.381  15.528   5.285 -0.0116 -0.1188 -0.2034
 3428W        W19562  15.780   7.442   4.163  0.3774 -0.1132  0.1215
 3429W        W19563   5.168   6.812   4.113  0.5462  0.2840  0.1194
 3430W        W19564  10.805  17.315   1.162 -0.1723 -0.1221  0.3555
 3431W        W19565   3.811  13.106   0.847  0.0929  0.0696 -0.2564
 3432W        W19566   8.239  12.389   3.862 -0.2557 -0.0578  0.1130
 3433W        W19567   2.761  13.581  14.507 -0.0680  0.0239 -0.1841
 3434W        W19568  18.400  12.110   1.840 -0.1729  0.1355 -0.1915
 3435W        W19569  14.861  12.532  10.328  0.0849  0.1494 -0.0345
 3436W        W19570   0.980   6.844   1.350 -0.1494 -0.1366 -0.0842
 3437W        W19571  11.193  15.608   4.751 -0.0239  0.2591 -0.0793
 3438W        W19572  17.678   3.852  11.988 -0.4247  0.3232 -0.1233
 3439W        W19573   0.533  13.817  13.948 -0.0470 -0.5097 -0.3712
 3440W        W19574   2.642   4.987  11.233  0.1765  0.0444  0.3108
 3441W        W19575   2.609   1.893   3.593 -0.1798  0.0838  0.0669
 3442W        W19576   3.196   6.506  10.965 -0.0956 -0.1183 -0.2588
 3443W        W19577  17.387  12.570   0.145 -0.1051 -0.2168 -0.0878
 3444W        W19578   3.473   5.962   0.452  0.0791  0.2494  0.1456
 3445W        W19579   3.706   7.395   3.520  0.2200 -0.0516  0.0355
 3446W        W19580  14.019   4.600  10.455 -0.1834 -0.0066  0.0990
 3447W        W19581   1.801  11.704  11.652 -0.0184  0.1269 -0.2215
 3448W        W19582  18.108  10.665   2.949  0.3053  0.0514 -0.1562
 3449W        W19583   3.810   8.149   4.402  0.0683  0.2695 -0.0446
 3450W        W19584   0.925   8.776   2.220  0.0256 -0.4992  0.1028
 3451W        W19585   5.949  12.341   3.996  0.0680  0.1923 -0.0372
 3452W        W19586  14.033   7.571   2.453  0.1473  0.0361  0.2248
 3453W        W19587  12.526  18.476   0.097  0.0206  0.2355 -0.0032
 3454W        W19588   0.630   1.337  11.511 -0.3064 -0.3165 -0.1304
 3455W        W19589   2.285   3.200   2.405  0.0833  0.2619 -0.0358
 3456W        W19590   1.867   8.920   4.342  0.1726  0.1943 -0.3149
 3457W        W19591   6.987   3.442  11.099  0.1777 -0.0001 -0.1001
 3458W        W19592   1.660   9.588  10.240 -0.0256  0.0952  0.0466
 3459W        W19593  13.690  14.952   0.853 -0.2589  0.0676  0.2696
 3460W        W19594   1.525   8.506  14.559 -0.0048 -0.0787 -0.1173
 3461W        W19595   6.542  15.691  12.037  0.0681 -0.1443  0.0074
 3462W        W19596  15.243   4.143  13.955 -0.3684  0.1002 -0.1927
 3463W        W19597   6.327  13.438   4.910  0.3086  0.0601  0.2179
 3464W        W19598  17.584  10.028   3.599 -0.1438  0.1251 -0.0366
 3465W        W19599  16.512   8.218   0.806 -0.1724  0.1188  0.3654
 3466W        W19600  17.274   6.192  14.568 -0.2757 -0.0229  0.0131
 3467W        W19601   4.026   9.184  13.437 -0.2206  0.0966 -0.1480
 3468W        W19602  12.359  17.119  12.912 -0.0293 -0.1395  0.3133
 3469W        W19603   1.627  13.400  13.320 -0.1627 -0.1932 -0.1447
 3470W        W19604  14.752  14.317  13.821  0.0507  0.2135  0.3627
 3471W        W19605   7.812   3.372   4.892 -0.0158 -0.5456  0.0987
 3472W        W19606   1.926  18.163   1.385 -0.0924 -0.2208  0.0830
 3473W        W19607  18.902  16.767  10.126  0.0657 -0.4881 -0.0467
 3474W        W19608   6.884   8.159   3.094  0.0366 -0.2816 -0.2591
 3475W        W19609   7.662  18.629  12.741  0.0439  0.0744 -0.3899
 3476W        W19610   0.257   7.013  12.694 -0.2978 -0.1948  0.0491
 3477W        W19611  15.206   5.980   5.031  0.0713  0.0532 -0.1336
 3478W        W19612  10.078   1.179   5.057  0.1813 -0.1152 -0.1669
 3479W        W19613  17.014  16.419   4.377 -0.0414  0.2262  0.1739
 3480W        W19614  11.541   8.857  14.801  0.1508  0.0004  0.0206
 3481W        W19615   5.241   9.375   9.882 -0.2081  0.1894  0.1619
 3482W        W19616   9.760   6.836   3.722 -0.1714 -0.1117 -0.1477
 3483W        W19617   3.928  18.649   9.951  0.2931  0.6367  0.2013
 3484W        W19618  16.965  12.366   0.874  0.3203 -0.0738  0.0261
 3485W        W19619  14.028  11.555   3.155 -0.1378  0.1007  0.1403
 3486W        W19620   8.572   3.718   2.137  0.0094 -0.1833  0.2083
 3487W        W19621   5.845   2.545  15.114 -0.0042 -0.0684 -0.1333
 3488W        W19622  14.754  15.255  15.235 -0.2213 -0.0126 -0.0185
 3489W        W19623   6.439  18.749   1.734 -0.2046  0.0358 -0.1564
 3490W        W19624   8.226   0.773   4.066  0.2952  0.0095 -0.0731
 3491W        W19625   9.616   0.752   1.350  0.2416 -0.0750 -0.2263
 3492W        W19626  14.589   4.283   2.485 -0.2887  0.2007  0.2132
 3493W        W19627  18.436   4.424   1.071  0.1656  0.1489  0.0516
 3494W        W19628  16.412  13.609  13.258  0.0047  0.2393 -0.2912
 3495W        W19629   7.396   0.898  12.483 -0.2735 -0.1186  0.1409
 3496W        W19630   9.594   5.063   1.957  0.1359  0.1010 -0.1096
 3497W        W19631  13.247  10.410   9.694  0.1156 -0.0626 -0.0096
 3498W        W19632   7.058  12.858   2.426 -0.0384 -0.1118 -0.1559
 3499W        W19633  16.124  16.891   3.300  0.1331  0.0879 -0.0361
 3500W        W19634   7.231  13.203   1.320  0.0347  0.2517  0.1251
 3501W        W19635  11.749   4.736   2.487  0.1834 -0.0818  0.1231
 3502W        W19636  12.426  15.295  10.420  0.2793 -0.0445  0.1096
 3503W        W19637  12.370   3.081  14.852 -0.0791  0.1840 -0.0841
 3504W        W19638   5.923   6.957   1.466  0.2247  0.0768 -0.1100
 3505W        W19639   2.108  17.829  10.719  0.0994  0.1522 -0.2057
 3506W        W19640  14.367   1.554   2.635 -0.0595  0.1288 -0.0569
 3507W        W19641  13.945   0.042  15.149 -0.5575 -0.1500 -0.1938
 3508W        W19642  14.592  18.251  11.565 -0.1080  0.1052  0.1765
 3509W        W19643   8.780   6.463   1.517 -0.1313  0.1414  0.3418
 3510W        W19644   9.186   3.698  13.900 -0.1202 -0.0049 -0.5048
 3511W        W19645   5.471  17.140   3.484 -0.1582 -0.2080  0.1140
 3512W        W19646   8.208   4.879   5.322 -0.1730 -0.0284  0.0551
 3513W        W19647   6.339  13.100   4.539  0.0696  0.2106 -0.1705
 3514W        W19648   6.299  15.763   1.851 -0.4642 -0.0821 -0.2554
 3515W        W19649   3.832   7.531   0.839  0.0412  0.1135  0.1120
 3516W        W19650   8.649  15.632  12.088  0.0491  0.1228  0.1133
 3517W        W19651   1.657  16.960  11.560  0.0103 -0.1618  0.0529
 3518W        W19652   1.364  12.575   4.338  0.0351 -0.2268  0.0804
 3519W        W19653   7.534   6.204  12.498  0.0339 -0.0547 -0.0009
 3520W        W19654   7.779  16.144   2.611  0.0918 -0.3053 -0.1321
 3521W        W19655  14.131  10.581   1.594 -0.4358 -0.0803 -0.1535
 3522W        W19656   7.470  16.272   1.290 -0.2062 -0.2620  0.1695
 3523W        W19657   4.154  17.529   4.510  0.2060 -0.1325  0.0637
 3524W        W19658  17.522   7.889   5.007  0.2865 -0.1158  0.0540
 3525W        W19659   6.941  12.382   0.058  0.1116  0.0442  0.0546
 3526W        W19660   0.634   8.687  13.338  0.2514  0.0940 -0.0033
 3527W        W19661  14.599   0.613  14.020  0.1097 -0.3219 -0.5823
 3528W        W19662   9.240  15.245  11.526 -0.1118  0.1624 -0.0111
 3529W        W19663   5.787   8.615   4.359 -0.1119 -0.2559  0.2128
 3530W        W19664   4.017  15.546  12.455  0.0358  0.0116 -0.3589
 3531W        W19665  18.717  11.943   4.346 -0.1446 -0.1009 -0.0006
 3532W        W19666  14.967   3.896   1.208 -0.0193 -0.0381 -0.1295
 3533W        W19667   5.980  12.701   4.481 -0.3062 -0.0014  0.0674
 3534W        W19668   6.392   3.442  13.095  0.2320  0.0166  0.3696
 3535W        W19669  15.421  11.931   4.735 -0.0755 -0.1500  0.2870
 3536W        W19670  18.690  12.289   3.251 -0.1364  0.0467  0.0344
 3537W        W19671  17.558  13.999  11.015 -0.2150 -0.0630 -0.0408
 3538W        W19672  18.074  10.034   3.916 -0.1183  0.0647  0.4096
 3539W        W19673  11.342  10.678   0.958  0.0576 -0.0033 -0.0278
 3540W        W19674   0.684  15.261  12.308  0.0304  0.2688 -0.1174
 3541W        W19675  12.998   7.064   4.838 -0.0806  0.0656  0.0787
 3542W        W19676   8.510  14.931  12.716 -0.0542 -0.0659  0.2224
 3543W        W19677  10.146   7.370   0.461 -0.1201  0.0737  0.3260
 3544W        W19678  17.847  10.136  12.479 -0.0953  0.2769 -0.0303
 3545W        W19679  14.167  17.122  12.107 -0.3394  0.2569 -0.0415
 3546W        W19680   6.048  17.578  14.145 -0.1577 -0.2798 -0.1298
 3547W        W19681  18.814   2.206   0.787  0.1612 -0.2253  0.2225
 3548W        W19682   5.453   7.702  13.243 -0.0384  0.0706  0.1584
 3549W        W19683  10.021   9.328   2.747 -0.0766  0.2907 -0.0668
 3550W        W19684  13.522   9.220   5.244  0.1147 -0.0025 -0.1547
 3551W        W19685   4.803   0.055  10.276 -0.0368  0.2412  0.2999
 3552W        W19686  18.111   0.733   1.246  0.2109  0.2236 -0.3648
 3553W        W19687  18.334  13.225   4.825 -0.0580 -0.1019 -0.0149
 3554W        W19688  14.879   1.773   3.597  0.1302 -0.2330  0.0107
 3555W        W19689   5.887   2.910   5.904 -0.2128  0.2653 -0.0446
 3556W        W19690  15.547  15.119  14.583 -0.0793  0.1956 -0.0685
 3557W        W19691   4.198   7.206  10.144 -0.0295 -0.1638  0.3177
 3558W        W19692  16.857  12.370  13.791 -0.0374  0.2439  0.1726
 3559W        W19693  17.687   2.835  10.982  0.0274 -0.2267 -0.5037
 3560W        W19694   7.410  11.382  11.747 -0.2048  0.2690 -0.3570
 3561W        W19695   0.628  14.386   4.473 -0.1155 -0.2894  0.1272
 3562W        W19696  15.401  12.348   2.100 -0.0693 -0.1021 -0.0542
 3563W        W19697  10.475  14.534   2.434 -0.2553 -0.0172 -0.1323
 3564W        W19698   2.389   3.448  14.546 -0.2006  0.2241 -0.0994
 3565W        W19699   2.314  16.037  11.279 -0.3712 -0.2412 -0.1253
 3566W        W19700  16.712   3.403   1.480  0.0709 -0.0220 -0.1301
 3567W        W19701   4.481  10.181   1.917  0.0468  0.2521 -0.0207
 3568W        W19702   3.362  17.337   5.595 -0.0175  0.0220 -0.1602
 3569W        W19703   8.937  13.227  15.001  0.0129 -0.2273 -0.2060
 3570W        W19704   6.547   4.005  13.965  0.1093  0.1238  0.0683
 3571W        W19705   7.270  10.940   4.277  0.1947  0.1603  0.0318
 3572W        W19706   3.708  14.051   2.675 -0.1893  0.1487 -0.0749
 3573W        W19707  16.219  16.885  15.068  0.0449  0.0669  0.0626
 3574W        W19708   4.350   8.016  11.714 -0.1308 -0.0485  0.3054
 3575W        W19709  13.724   7.578   4.231  0.2288  0.1480  0.0387
 3576W        W19710  11.145  14.476   3.819 -0.1325 -0.0281 -0.2322
 3577W        W19711   4.703  17.966   1.752  0.2151 -0.0730 -0.0330
 3578W        W19712  13.722  11.941  10.998  0.0086  0.0531 -0.0221
 3579W        W19713  12.224   5.437   1.847  0.0461 -0.0616  0.3181
 3580W        W19714  12.749   7.560  13.248  0.3357 -0.2267  0.0160
 3581W        W19715   1.990   3.922   0.997 -0.1867  0.3469 -0.0819
 3582W        W19716   1.863  13.718   6.322  0.0231 -0.0135 -0.0340
 3583W        W19717   7.636  10.500   0.207  0.2022  0.1650 -0.0864
 3584W        W19718   7.365   1.416   2.399  0.0676  0.2631  0.0660
 3585W        W19719  17.882  14.081   1.197 -0.2559 -0.0115  0.0198
 3586W        W19720   5.885  13.130  13.874 -0.0117  0.3067  0.1769
 3587W        W19721  13.377   7.587  12.824 -0.0079  0.1287  0.0071
 3588W        W19722  12.105  15.995  11.919  0.0488 -0.1404 -0.0297
 3589W        W19723   8.046   3.872   2.101 -0.2130  0.0323  0.1354
 3590W        W19724  17.955   8.343   1.302 -0.1989 -0.0307  0.0409
 3591W        W19725   3.450   6.519   5.386  0.0928  0.0546  0.1040
 3592W        W19726  11.934   7.824   0.410  0.0365  0.1139  0.3552
 3593W        W19727  13.575   9.722  13.793 -0.0743  0.3153  0.0438
 3594W        W19728   0.473  11.637   3.322  0.3425  0.2568  0.0979
 3595W        W19729   5.696   4.338  12.351  0.0406  0.2014  0.0111
 3596W        W19730   7.231  14.575   4.205  0.1201  0.1002 -0.0408
 3597W        W19731   4.779  12.775   9.932  0.1188  0.0952  0.2684
 3598W        W19732  16.677  17.041  12.837 -0.3384 -0.2198 -0.1668
 3599W        W19733  11.866   1.402   3.656  0.2986 -0.0714  0.1790
 3600W        W19734   5.518   7.835   2.216  0.0576  0.0620  0.0132
 3601W        W19735   0.760   6.538   3.046  0.2037 -0.0457  0.1691
 3602W        W19736   6.121   5.419   3.347 -0.0605  0.2018  0.1515
 3603W        W19737   9.092   3.085  13.705 -0.0847 -0.2863  0.4339
 3604W        W19738  12.516   4.926  15.129 -0.2362  0.4126  0.3761
 3605W        W19739  11.424   1.898   0.393  0.2611 -0.1061 -0.2276
 3606W        W19740  17.767  16.304   1.134  0.2910  0.2111  0.1623
 3607W        W19741   3.351   8.279   4.966  0.2194 -0.0939  0.1312
 3608W        W19742   6.145  11.893  13.823  0.1138  0.1401  0.1584
 3609W        W19743  18.499   7.582   0.414 -0.0844  0.3827 -0.1047
 3610W        W19744  16.525   5.907  12.018 -0.0828 -0.0685  0.3476
 3611W        W19745  11.018   0.282  14.180  0.2511 -0.2665 -0.0855
 3612W        W19746   0.718  13.618   4.461 -0.1563 -0.0582  0.0238
 3613W        W19747  12.545   0.514  12.689  0.0393 -0.1876  0.3818
 3614W        W19748   2.612  14.991  11.599 -0.0915  0.2488  0.1782
 3615W        W19749  15.870   2.324   3.018 -0.2918  0.2190 -0.3854
 3616W        W19750  11.366   1.350   0.207 -0.1042  0.3451  0.0092
 3617W        W19751   6.770  13.179   4.241 -0.1199 -0.0575  0.2118
 3618W        W19752  10.124   9.068  10.856  0.2680 -0.0612  0.2466
 3619W        W19753  16.369   0.775   0.742 -0.0280  0.2351  0.2642
 3620W        W19754  11.845  14.152   1.426  0.2258  0.2659  0.1766
 3621W        W19755  11.004   9.782   0.634  0.0781 -0.3404 -0.0680
 3622W        W19756  14.763   2.571   1.524 -0.0321  0.1367  0.0003
 3623W        W19757  16.974  12.842   0.902  0.2865  0.1325 -0.1304
 3624W        W19758  13.883  15.249  14.547 -0.0870 -0.1229  0.0016
 3625W        W19759  18.327  15.972   2.927 -0.2407 -0.2462  0.0098
 3626W        W19760  10.098   9.934  12.286  0.1692  0.0471 -0.0391
 3627W        W19761  10.834  12.321   1.906 -0.0489 -0.1319  0.1051
 3628W        W19762  12.902  14.801   2.359  0.1984  0.0932  0.1518
 3629W        W19763  16.456   0.626   0.248  0.1575  0.0915  0.2351
 3630W        W19764   7.727   5.081   4.640 -0.0667 -0.3738 -0.0151
 3631W        W19765   3.228  11.300  14.404 -0.1872 -0.1227  0.0004
 3632W        W19766  13.727  17.641   0.006 -0.1592 -0.0516 -0.0776
 3633W        W19767   3.576   7.622  12.553  0.0346 -0.5172  0.0707
 3634W        W19768  10.435   3.152  10.746  0.0943  0.0186  0.2999
 3635W        W19769  10.297  13.549   2.075 -0.0194  0.0855 -0.1696
 3636W        W19770  15.225   1.647  12.259  0.1775 -0.2866 -0.0761
 3637W        W19771   1.583   5.732  14.198 -0.0257 -0.0773 -0.2593
 3638W        W19772  18.304   3.226   0.650  0.2297 -0.1338 -0.0645
 3639W        W19773  11.913  10.449  14.091 -0.0748 -0.0906 -0.1449
 3640W        W19774   3.345  18.842  12.661  0.0712  0.2147  0.4729
 3641W        W19775   5.332  12.407  12.388  0.3144  0.0519  0.0925
 3642W        W19776  18.592  18.652   2.107  0.2102 -0.2767 -0.0062
 3643W        W19777  15.593   6.156   1.857 -0.0619 -0.0075  0.0207
 3644W        W19778   2.934   2.100   3.975  0.2231 -0.1613 -0.2888
 3645W        W19779  17.229   4.504   2.033  0.0513  0.2477 -0.0260
 3646W        W19780  15.877   4.265  11.043  0.0042  0.0867 -0.0874
 3647W        W19781  18.737  16.690   3.175  0.3005  0.0991  0.0599
 3648W        W19782   2.777  18.991   2.283 -0.1068 -0.0896 -0.0744
 3649W        W19783  11.682   7.576   1.174  0.1130 -0.1505  0.1410
 3650W        W19784   5.074   9.699  13.034  0.0899  0.0877 -0.0118
 3651W        W19785  15.285   9.067   1.832  0.2838 -0.4085 -0.0242
 3652W        W19786  15.232   5.244   0.447 -0.1722  0.1404  0.0714
 3653W        W19787   0.125   7.125   2.296 -0.2189 -0.2577 -0.1075
 3654W        W19788   8.701   6.706  11.643  0.0722 -0.0601  0.1126
 3655W        W19789  15.595  15.450   0.891 -0.0632  0.0036  0.4830
 3656W        W19790   1.931  17.165   0.984  0.0520  0.0186 -0.1543
 3657W        W19791   5.840   3.991   0.520 -0.5817  0.1162 -0.5456
 3658W        W19792   0.457  10.000  15.077 -0.0158  0.0985  0.1205
 3659W        W19793   7.952   6.848   5.334  0.0941 -0.2359 -0.0461
 3660W        W19794  13.121  10.502   0.111  0.0310  0.0654  0.2454
 3661W        W19795   6.776   5.324   4.590 -0.0305  0.0300  0.1641
 3662W        W19796  12.784  13.972  14.349 -0.1262 -0.0140 -0.0393
 3663W        W19797  17.122  13.361  13.958  0.1543 -0.0452  0.3627
 3664W        W19798  11.156  16.026   1.610  0.2800 -0.0414 -0.1120
 3665W        W19799  10.130   6.280   1.505 -0.0355  0.1084  0.0676
 3666W        W19800  14.037   0.312   5.893 -0.3870 -0.0640 -0.1498
 3667W        W19801   6.769  16.928   3.750 -0.3028  0.1114  0.0875
 3668W        W19802  18.238   1.563  12.346  0.0942  0.1355 -0.1201
 3669W        W19803  12.676   2.555  13.102  0.2818  0.0615  0.0208
 3670W        W19804   2.380  10.768   2.907  0.0325 -0.3006 -0.1309
 3671W        W19805   3.137   6.079   2.471  0.0383  0.0970  0.3593
 3672W        W19806   2.174   7.382  12.274  0.0922  0.1081  0.0512
 3673W        W19807   9.021  15.305   5.082  0.1375 -0.0251 -0.0236
 3674W        W19808   5.359   0.273   3.997 -0.1811  0.2314 -0.1559
 3675W        W19809  10.435   5.232  14.320 -0.1888  0.0511  0.0945
 3676W        W19810  14.996   0.841  11.974 -0.1199  0.0240  0.2891
 3677W        W19811   6.580   7.343   9.291 -0.0532 -0.0538  0.0051
 3678W        W19812   1.616   0.004   0.959 -0.1695 -0.2028 -0.0216
 3679W        W19813   9.153  17.458  11.920  0.3222  0.1318  0.1186
 3680W        W19814  10.355   8.381  14.100 -0.0122  0.1431  0.1634
 3681W        W19815   4.304  11.297   1.841  0.0536  0.1679 -0.3034
 3682W        W19816   1.375   1.087  12.057  0.2956  0.3513 -0.1743
 3683W        W19817   3.833  15.879  14.408 -0.0669 -0.2927  0.0024
 3684W        W19818  15.679   6.698  11.505  0.0073  0.1689  0.1794
 3685W        W19819  18.003   2.059   3.498  0.3665  0.3676  0.2270
 3686W        W19820  14.161   3.680  13.136  0.0184  0.0179  0.3136
 3687W        W19821   6.389  10.336   2.655  0.0638 -0.2866  0.0811
 3688W        W19822   8.406   9.041  14.603 -0.1513 -0.1448 -0.2495
 3689W        W19823   1.857  18.566  13.552  0.2629  0.2484  0.2382
 3690W        W19824  14.242   7.104   4.506  0.0764  0.1081 -0.1422
 3691W        W19825  18.741   7.705  10.473  0.0393  0.3105  0.2538
 3692W        W19826   0.466   3.910  13.283  0.3555  0.0037 -0.0025
 3693W        W19827   0.181  10.482  12.560  0.0186 -0.4698  0.0070
 3694W        W19828  13.855   8.058   2.256 -0.2240 -0.2738 -0.2019
 3695W        W19829   7.018  13.224   0.006 -0.3025  0.1064  0.0656
 3696W        W19830  18.925  17.487  13.352  0.0308  0.0528 -0.0016
 3697W        W19831  13.332   0.492  14.493 -0.4437 -0.1702 -0.1029
 3698W        W19832  12.089   1.559  15.230  0.2717 -0.1202  0.1225
 3699W        W19833   5.165   7.364  13.138  0.0751  0.1439 -0.0017
 3700W        W19834   8.180  14.423  14.950  0.2344  0.2274 -0.1303
 3701W        W19835  13.783   4.216   5.209 -0.0013 -0.0559 -0.1499
 3702W        W19836  11.998  17.327   3.558 -0.0882  0.1176 -0.0027
 3703W        W19837   1.564  12.537   2.223 -0.0440  0.1687  0.1379
 3704W        W19838   4.482  15.650  10.184 -0.0026 -0.2642  0.1897
 3705W        W19839  17.378   6.912  12.035 -0.3089 -0.1884 -0.1968
 3706W        W19840  12.838  12.429   0.613  0.2495 -0.2070 -0.1292
 3707W        W19841  10.638  16.489   4.059 -0.1942  0.4542 -0.3528
 3708W        W19842  12.639  11.836  10.166  0.2727 -0.0692  0.1115
 3709W        W19843   7.224  15.518  12.510  0.2250  0.1370  0.1818
 3710W        W19844  14.049   5.359  11.611 -0.3184 -0.1816  0.1962
 3711W        W19845   5.790   5.541  13.391  0.0877 -0.1759  0.0114
 3712W        W19846  14.773  11.552  13.880  0.1351 -0.0764  0.2978
 3713W        W19847   3.006  14.605  14.389  0.3298 -0.0161 -0.0416
 3714W        W19848  12.298  14.436   0.920  0.4837  0.3980  0.1167
 3715W        W19849  12.516  17.102   0.142 -0.2142  0.4488 -0.3414
 3716W        W19850   0.309  13.369  14.175  0.1460 -0.1361  0.0241
 3717W        W19851   1.982   5.562  13.903  0.1666 -0.0646 -0.2387
 3718W        W19852  14.962  11.709   1.596 -0.2778  0.2703  0.0376
 3719W        W19853   5.699   7.170   3.174  0.1350  0.3906  0.3999
 3720W        W19854   5.814   7.596   5.206 -0.1014 -0.2265 -0.0543
 3721W        W19855   6.737   6.719  13.258 -0.0575  0.0512  0.1580
 3722W        W19856   7.023   9.060   3.158 -0.0510 -0.0144 -0.0507
 3723W        W19857  13.468   4.021  13.469 -0.1763  0.0276 -0.1206
 3724W        W19858  16.080   7.087   0.439 -0.2364 -0.2303  0.0547
 3725W        W19859   8.715  15.072   2.804 -0.0389 -0.0854 -0.2165
 3726W        W19860   9.941   1.790   5.626 -0.1220 -0.3553 -0.1300
 3727W        W19861  13.731   5.470   0.599 -0.0694 -0.0427  0.2308
 3728W        W19862  13.278  13.012   8.953  0.1069 -0.0390 -0.0705
 3729W        W19863  14.328  17.676  11.194 -0.0588  0.1219  0.0754
 3730W        W19864  16.037   0.465   2.938  0.3755 -0.1879 -0.0292
 3731W        W19865   3.472   1.941   1.637 -0.0585 -0.2053 -0.0206
 3732W        W19866   9.100  16.639  12.214 -0.0842 -0.1520  0.2189
 3733W        W19867   7.991  18.444   0.047 -0.1156 -0.0608  0.2406
 3734W        W19868   3.885   9.942   0.499  0.0711  0.1419  0.1576
 3735W        W19869   3.102  12.323   3.189 -0.4595 -0.0538  0.0221
 3736W        W19870   5.636   3.936  11.952  0.1498  0.1340 -0.2218
 3737W        W19871   5.753   0.361   1.438 -0.2153  0.0639  0.1203
 3738W        W19872  11.370   1.852  13.068  0.1830  0.0980  0.0487
 3739W        W19873   6.282  11.883   0.416  0.0921  0.0352  0.0726
 3740W        W19874  11.955   7.748  13.941 -0.1832  0.0217 -0.0164
 3741W        W19875   3.536   0.617   2.273 -0.1320  0.0854  0.2608
 3742W        W19876   7.791   2.469  11.683 -0.0035  0.0021  0.0155
 3743W        W19877  10.219  12.630  12.390  0.0056 -0.1359 -0.1043
 3744W        W19878  16.660   3.011   2.385 -0.1407  0.0925  0.0418
 3745W        W19879  10.507   4.559   4.988  0.3738  0.0489 -0.1159
 3746W        W19880  12.809   4.569   4.697  0.0855 -0.0093  0.0059
 3747W        W19881  13.461  14.183   2.132  0.1199 -0.0224  0.0952
 3748W        W19882  18.723   1.387   0.597  0.2907 -0.0749  0.2730
 3749W        W19883  17.435  11.616  14.613  0.0291 -0.0575  0.1081
 3750W        W19884  14.301  13.850   5.827 -0.0642 -0.1418 -0.0834
 3751W        W19885  11.511  11.048  13.467  0.2365  0.0737  0.1306
 3752W        W19886   0.129  10.741  13.034 -0.0530  0.0770 -0.3905
 3753W        W19887  12.975  13.350   2.085 -0.1124  0.4441 -0.2101
 3754W        W19888   2.165   1.782   3.370  0.3114  0.1800  0.1162
 3755W        W19889   9.226  10.776   3.722 -0.0200  0.0855 -0.1915
 3756W        W19890   5.801   6.638  12.979 -0.3581  0.0166  0.2546
 3757W        W19891  15.355  17.674   0.916  0.0255 -0.0219 -0.0436
 3758W        W19892   3.107   9.302  11.773  0.2979 -0.0593 -0.2525
 3759W        W19893   7.323   1.119  12.019  0.2915  0.0650 -0.0441
 3760W        W19894  11.635  14.692   1.409 -0.2174  0.1663 -0.0919
 3761W        W19895   3.006  11.328   5.437 -0.1684  0.2185  0.0468
 3762W        W19896   7.414   2.384   2.128 -0.0276 -0.1628 -0.0355
 3763W        W19897  18.297   2.900   3.508  0.2945  0.1655  0.1309
 3764W        W19898  10.661   7.500   2.913 -0.1553 -0.2189  0.3814
 3765W        W19899  11.655   3.390   0.522  0.3193  0.1406 -0.1535
 3766W        W19900   9.923  11.369  14.281 -0.0635 -0.2472  0.1216
 3767W        W19901   7.712   2.973  11.628  0.2156 -0.0520 -0.1209
 3768W        W19902   7.393   8.581   2.443  0.1441 -0.1505 -0.0531
 3769W        W19903   0.797  15.201  14.663  0.1680 -0.3252 -0.1749
 3770W        W19904   7.366   2.946  14.050 -0.4324 -0.0904 -0.1363
 3771W        W19905   6.175   0.985  14.588 -0.0083  0.1565  0.0086
 3772W        W19906  15.419   2.755  13.623  0.0740 -0.0525  0.0463
 3773W        W19907   9.044  14.046   1.463 -0.0772  0.1130  0.1973
 3774W        W19908   0.585  14.787  12.916 -0.0284 -0.0293  0.0923
 3775W        W19909  16.520  17.084   3.789  0.0191  0.3796 -0.1967
 3776W        W19910  12.970   0.904   2.917  0.1377  0.2551  0.1724
 3777W        W19911   9.976  16.505  15.202  0.1570  0.0655  0.1711
 3778W        W19912   0.293  12.121  12.153  0.0309 -0.2790 -0.2185
 3779W        W19913  14.606  11.681  10.887 -0.0876  0.1088 -0.0434
 3780W        W19914  12.456  17.934   5.439  0.0057 -0.0895 -0.2179
 3781W        W19915   3.796  12.754  15.051  0.0023 -0.1518  0.0386
 3782W        W19916   2.111   2.722  11.819  0.1239 -0.1319 -0.1065
 3783W        W19917  13.153   6.756  10.528  0.1132 -0.0002 -0.0594
 3784W        W19918  13.218   0.977   4.833  0.3360 -0.1678  0.0366
 3785W        W19919  12.893   2.941  12.862  0.0690 -0.4617 -0.0127
 3786W        W19920  17.066   8.689   4.690 -0.2378 -0.2170  0.2681
 3787W        W19921   1.600  12.552  11.987 -0.1936 -0.0587  0.0956
 3788W        W19922   2.482   7.795  12.532  0.1024  0.1354  0.0895
 3789W        W19923   8.170   4.526   0.971 -0.1579 -0.0992  0.1384
 3790W        W19924   7.763  14.529  10.933  0.1050  0.0185 -0.0509
 3791W        W19925  12.729  15.742   3.196 -0.1537 -0.2144 -0.2155
 3792W        W19926  12.941   3.566  10.725  0.0098  0.1434  0.1687
 3793W        W19927   0.038   0.994  13.188  0.0356 -0.0062 -0.0246
 3794W        W19928  16.194   4.027   1.990 -0.1156 -0.3016  0.1194
 3795W        W19929   0.788   2.937   2.141  0.0548  0.0037 -0.0247
 3796W        W19930   6.610   2.521  12.018 -0.3762 -0.1456  0.0404
 3797W        W19931   7.454   0.220   0.066 -0.0790 -0.0861 -0.0339
 3798W        W19932  12.519   4.115   2.708  0.1077  0.3526 -0.1345
 3799W        W19933  14.096   5.263  15.205  0.1607  0.4746  0.1129
 3800W        W19934   0.360   9.428   4.094  0.2654  0.2306  0.2716
 3801W        W19935   8.635   1.145   2.461 -0.2228  0.1213 -0.1827
 3802W        W19936   6.136  11.439  14.623  0.0693 -0.4579  0.1107
 3803W        W19937  16.896   0.481  13.498  0.2822 -0.2574  0.1635
 3804W        W19938   0.086  18.843   3.451 -0.1045 -0.0879  0.0728
 3805W        W19939   6.525   8.572   9.613  0.1744 -0.0298  0.1759
 3806W        W19940  13.667   1.419  10.956 -0.2332  0.1206 -0.0924
 3807W        W19941   7.765   2.532  14.139 -0.1845 -0.0747 -0.1425
 3808W        W19942  13.554   4.938   2.001  0.1349 -0.1214  0.0313
 3809W        W19943  10.139   6.822  12.946 -0.0997 -0.0182 -0.0625
 3810W        W19944  16.743   4.772  11.936 -0.1230  0.2793 -0.3741
 3811W        W19945   7.365   6.900  13.425  0.0238  0.1232 -0.2553
 3812W        W19946   3.702  13.458  14.149  0.2852  0.1722 -0.2698
 3813W        W19947   0.946   3.566   0.153  0.0738  0.2379  0.4661
 3814W        W19948   6.020  14.793  11.640 -0.0896 -0.0689 -0.1785
 3815W        W19949  17.525  18.327   0.187  0.0192 -0.0139  0.5353
 3816W        W19950  17.551   2.330  13.482 -0.1036  0.3548  0.0904
 3817W        W19951   1.021  18.290  10.604 -0.0551  0.2229  0.1338
 3818W        W19952  16.272  12.161  11.006 -0.0525 -0.0006  0.0744
 3819W        W19953   9.853   9.085   0.539 -0.2896  0.4214  0.4485
 3820W        W19954  10.863  11.809  13.741 -0.0255 -0.4392  0.0515
 3821W        W19955  11.503  17.038   3.763 -0.1473  0.0675 -0.1945
 3822W        W19956   8.530   8.294  12.628  0.1530  0.0388 -0.3533
 3823W        W19957  16.113   3.647   5.620 -0.1922  0.2155  0.2531
 3824W        W19958   7.956  11.912   1.316 -0.2359 -0.0899  0.2387
 3825W        W19959  12.491  17.176   1.786  0.0462  0.2755  0.1677
 3826W        W19960   6.492  11.759   2.529  0.0109  0.0066  0.3007
 3827W        W19961   1.614   6.271  15.045  0.0761 -0.1724  0.3384
 3828W        W19962   2.849   6.684   4.447  0.1018 -0.1762 -0.1554
 3829W        W19963  18.111   7.673   1.899 -0.1547  0.0482 -0.0791
 3830W        W19964  14.015  18.841   0.827 -0.1330  0.2157  0.0568
 3831W        W19965   3.047   5.069  12.879  0.1161 -0.1972 -0.1258
 3832W        W19966  18.224  10.339   3.354  0.2655 -0.1585 -0.1301
 3833W        W19967   8.212   6.657   3.656  0.1343  0.2059 -0.1033
 3834W        W19968  11.399  16.523   2.402  0.0525  0.0510 -0.0307
 3835W        W19969   9.181  10.089  10.515  0.1798  0.0477  0.0223
 3836W        W19970  10.576  18.571  11.003 -0.1761 -0.0467 -0.0640
 3837W        W19971   0.198   1.057  13.851 -0.1607  0.3141 -0.1441
 3838W        W19972  10.497   5.890  11.583  0.1103 -0.3813 -0.1179
 3839W        W19973   1.215  10.979   0.315 -0.1055  0.2877 -0.2031
 3840W        W19974  18.685  15.200  11.203  0.0190  0.0143 -0.2110
 3841W        W19975  15.836   5.676  15.250 -0.1279  0.0388 -0.1422
 3842W        W19976   7.822   4.385  14.681 -0.0010  0.3141 -0.2200
 3843W        W19977   1.866   4.450  14.025  0.0769  0.0318  0.0186
 3844W        W19978  10.686  12.730   1.167  0.3881 -0.1145  0.2196
 3845W        W19979   2.818  13.733  10.030 -0.2104 -0.1860  0.0855
 3846W        W19980  18.609   6.703   1.056 -0.0352  0.0216  0.3337
 3847W        W19981   6.931   2.473   5.121 -0.1358  0.5049  0.0057
 3848W        W19982   3.063   9.544   3.567 -0.1861 -0.2429 -0.1476
 3849W        W19983  13.983  12.103  11.748  0.0748  0.3596 -0.0887
 3850W        W19984   6.815  11.665  10.957 -0.0300  0.1647  0.1529
 3851W        W19985  16.304   9.457  12.177  0.0129 -0.2262 -0.1671
 3852W        W19986  18.202   3.022   2.490 -0.1451  0.0522  0.3420
 3853W        W19987   9.502   3.226  11.704  0.3914 -0.0679  0.1511
 3854W        W19988   7.432   4.051  11.188 -0.3355  0.0113  0.4665
 3855W        W19989   9.034  15.335   1.099 -0.0404 -0.0113  0.0442
 3856W        W19990   6.528   3.281   1.617  0.2074  0.0148  0.0337
 3857W        W19991  12.484   3.766   0.256  0.3159  0.4223 -0.1275
 3858W        W19992  17.513   2.975  10.540  0.1537 -0.1828 -0.1548
 3859W        W19993  17.268  18.719   5.464 -0.0382 -0.0989  0.2016
 3860W        W19994   8.300   8.595   1.127 -0.2460  0.2038 -0.2279
 3861W        W19995  15.280   0.633   0.322 -0.1217 -0.1481 -0.0428
 3862W        W19996  11.722  15.909  13.229 -0.4150  0.1240  0.1708
 3863W        W19997  15.477  12.474  11.453  0.1750 -0.2404  0.0048
 3864W        W19998   5.510  13.612   4.547  0.1062 -0.0767  0.2019
 3865W        W19999  17.407  16.018  14.039  0.1234  0.2860  0.0419
 3866W        W20000   9.359  10.955  10.026 -0.2450 -0.4237  0.0793
 3867W        W20001  16.812   6.624   4.107 -0.2054 -0.0558 -0.2116
 3868W        W20002  12.043   9.200   1.328  0.0864  0.3436 -0.1179
 3869W        W20003   1.678  16.286   0.638  0.1276 -0.1925 -0.1756
 3870W        W20004   6.835  10.894  15.153  0.0468  0.1961  0.0194
 3871W        W20005  19.004   7.361   4.149 -0.0058  0.0028 -0.0245
 3872W        W20006  11.371   6.696   1.054 -0.0031 -0.0874 -0.1164
 3873W        W20007   7.045   8.526  12.800  0.4264 -0.1738 -0.1681
 3874W        W20008  18.788   2.431   3.594 -0.1583  0.4336 -0.1347
 3875W        W20009  18.049   5.088  14.842  0.1082  0.0301 -0.0164
 3876W        W20010   6.840  11.033   0.420 -0.0128  0.1523  0.0383
 3877W        W20011   8.521  15.697  13.289 -0.1637 -0.0137  0.0615
 3878W        W20012  18.284  15.390   0.771 -0.0202 -0.1391 -0.0815
 3879W        W20013   7.289   9.529   2.228 -0.0934  0.1990 -0.3101
 3880W        W20014   3.703  11.968  10.534  0.1951 -0.0690 -0.1149
 3881W        W20015  11.888  12.071   4.858 -0.0530  0.1202  0.1046
 3882W        W20016  15.784   9.694   4.386 -0.0326  0.2173 -0.0010
 3883W        W20017   5.013   8.096   1.894 -0.0565  0.0311 -0.1944
 3884W        W20018  14.278   1.083   2.361 -0.0613 -0.0232 -0.2570
 3885W        W20019   4.608  12.771   4.718  0.0249 -0.1629  0.0032
 3886W        W20020  13.810   6.732  10.786  0.1296 -0.1395  0.2201
 3887W        W20021   1.162   2.850  13.698 -0.0137 -0.0306 -0.1633
 3888W        W20022   5.478  17.512  11.879 -0.0894 -0.0664 -0.6136
 3889W        W20023   7.914  11.267   0.931 -0.1365  0.3582  0.0109
 3890W        W20024   4.491  15.424  13.247 -0.0630  0.0138 -0.0457
 3891W        W20025   6.015  18.756   4.912 -0.0931 -0.2798  0.1088
 3892W        W20026  18.225  14.205  11.979 -0.1859  0.1529 -0.0130
 3893W        W20027  10.641   0.041  15.232  0.4032 -0.0622 -0.0726
 3894W        W20028  15.042  15.320   0.967  0.2681  0.1832  0.0475
 3895W        W20029   5.122   8.150  14.699  0.1300 -0.1863 -0.0331
 3896W        W20030  13.458   0.629  12.709  0.0840 -0.2561  0.1559
 3897W        W20031  18.703   4.078   0.689 -0.0150 -0.0494 -0.1363
 3898W        W20032  18.054   8.640   1.863  0.0911 -0.0808  0.0949
 3899W        W20033  14.192   6.013  12.938 -0.2988  0.1050  0.1946
 3900W        W20034  13.314  13.231   0.150 -0.4103  0.0730  0.4214
 3901W        W20035   1.893  11.780   4.723 -0.2103 -0.2130 -0.1342
 3902W        W20036   5.821   8.749  11.748  0.2519 -0.0172 -0.1942
 3903W        W20037   4.500  15.913   4.470  0.1044  0.2426 -0.0101
 3904W        W20038   9.122  11.327   0.055 -0.0228  0.0176 -0.1760
 3905W        W20039   4.108   1.900   2.305  0.3331 -0.1352 -0.0245
 3906W        W20040  16.329  17.233  14.213  0.0403  0.1175 -0.0390
 3907W        W20041  13.828   3.029   2.549 -0.2519 -0.2081 -0.1636
 3908W        W20042   1.881  12.830   2.530 -0.0589 -0.2373 -0.2638
 3909W        W20043  18.932  15.672  15.063  0.5611  0.3058 -0.2870
 3910W        W20044   1.670  18.230   0.554  0.0038 -0.0045 -0.1911
 3911W        W20045   3.979   9.125  10.520 -0.0565  0.1564 -0.0341
 3912W        W20046  10.682  15.447  14.366  0.1455  0.1913 -0.2027
 3913W        W20047  18.202  18.283   5.027  0.4041  0.1337  0.3216
 3914W        W20048   7.872   1.497   3.613 -0.2553 -0.3654  0.1569
 3915W        W20049  17.726  18.714   0.490  0.1864  0.2330 -0.2266
 3916W        W20050  11.167  17.813  11.252 -0.1206  0.1396 -0.3949
 3917W        W20051   6.258  14.485  13.671  0.0101 -0.1946 -0.0961
 3918W        W20052   1.707   2.781   0.278 -0.1674  0.0944  0.0573
 3919W        W20053  13.917  12.557  13.541 -0.0499 -0.1228  0.0809
 3920W        W20054  16.083   0.862  11.642  0.2618 -0.0119  0.0866
 3921W        W20055   3.884  15.807   5.175 -0.0847 -0.0724  0.1363
 3922W        W20056   7.450   7.135   0.271  0.2143 -0.1604  0.1291
 3923W        W20057   8.043   7.887  11.843 -0.0482 -0.0591 -0.1236
 3924W        W20058   7.290  13.697  13.528  0.3452  0.4516 -0.0510
 3925W        W20059   0.282   9.473   3.589  0.2598  0.0316  0.2221
 3926W        W20060  16.784  13.998  13.227  0.1457  0.0195  0.0129
 3927W        W20061   1.295  16.680   1.817 -0.1383  0.2772 -0.0667
 3928W        W20062  12.463   6.545  11.115 -0.1079  0.0636 -0.4456
 3929W        W20063   5.174   0.234  10.928 -0.0110 -0.0494  0.1540
 3930W        W20064  12.359   4.868   0.838 -0.0184 -0.2233  0.0875
 3931W        W20065  12.504   7.181  11.526  0.1629 -0.0121 -0.2348
 3932W        W20066  12.434  18.898  15.097 -0.1747 -0.0837  0.0031
 3933W        W20067   8.040   8.776   0.683 -0.0986  0.3203  0.1455
 3934W        W20068   9.812  13.150  14.672 -0.2623  0.1940 -0.0069
 3935W        W20069  13.960  12.914  13.167 -0.1977  0.2690  0.0211
 3936W        W20070  12.995   8.566  13.789 -0.0315 -0.0522 -0.2833
 3937W        W20071   8.594  14.746  11.625  0.1378  0.3558 -0.1737
 3938W        W20072   9.254   7.826   0.412  0.2005  0.0561 -0.2337
 3939W        W20073  12.166   6.655   9.756 -0.1557  0.1576  0.4973
 3940W        W20074  10.961   2.308   0.999 -0.0096  0.0027  0.0258
 3941W        W20075  18.152   5.908  13.636  0.0040 -0.0657  0.0980
 3942W        W20076   2.493  18.503  13.002  0.2100 -0.0031 -0.0316
 3943W        W20077   5.262   2.962   0.136  0.1432 -0.1345 -0.2579
 3944W        W20078   1.635  10.770   4.810 -0.0797  0.0765 -0.1509
 3945W        W20079  10.507   4.333  13.973  0.0161 -0.0693 -0.3741
 3946W        W20080   6.745  13.931  14.252 -0.2242 -0.1943 -0.0642
 3947W        W20081   9.389  13.162   3.700 -0.2446 -0.4202  0.2915
 3948W        W20082   8.801   2.912  14.093  0.2483  0.2469  0.1134
 3949W        W20083   2.273  18.968  10.681  0.1291  0.0956 -0.0645
 3950W        W20084   0.793  16.488   4.039 -0.0300 -0.3685 -0.1366
 3951W        W20085  16.412  18.530   4.475 -0.2636 -0.1490 -0.3322
 3952W        W20086   5.001  12.932  14.356 -0.1341  0.2140 -0.1126
 3953W        W20087  13.009  16.612   1.985  0.0507 -0.0508  0.2173
 3954W        W20088  12.774   7.857  11.269 -0.1757  0.3211  0.0252
 3955W        W20089   0.319   7.848   9.884 -0.1533  0.6054 -0.3322
 3956W        W20090  18.967   1.298  14.212  0.1437 -0.1733 -0.1471
 3957W        W20091   9.007   4.369  10.563 -0.1153 -0.0492  0.0972
 3958W        W20092  18.568   2.731   4.783 -0.2508  0.1826 -0.0914
 3959W        W20093  16.783   9.418  12.493 -0.3410 -0.1897  0.0680
 3960W        W20094   0.614   7.243  14.625  0.0730  0.0203 -0.3785
 3961W        W20095  17.322  19.005   4.021  0.1566  0.0571 -0.0053
 3962W        W20096  11.253   8.305  13.631 -0.0283 -0.1224  0.1312
 3963W        W20097  12.532   9.183  15.037 -0.0722  0.1501  0.1025
 3964W        W20098   0.562   2.596  10.234  0.1280 -0.1720 -0.1156
 3965W        W20099   8.326   3.030  11.026  0.0482 -0.1407  0.0772
 3966W        W20100   3.524  11.963   4.358  0.0968  0.2201  0.2817
 3967W        W20101  12.065   1.116  11.836 -0.0860 -0.2461 -0.0188
 3968W        W20102  11.062   4.976  13.673 -0.5345 -0.3328  0.1326
 3969W        W20103   8.091   3.301  11.449 -0.5328 -0.1132  0.0298
 3970W        W20104  17.810   3.387   1.289  0.1338 -0.1381  0.3965
 3971W        W20105  14.850   8.595   4.060 -0.2013 -0.0429 -0.3530
 3972W        W20106  18.001   1.590  15.174 -0.1753  0.3187  0.2081
 3973W        W20107   4.558  12.919  13.995 -0.0560 -0.1065  0.0383
 3974W        W20108   9.955  10.530   0.863 -0.1840 -0.2601 -0.4171
 3975W        W20109   4.808   9.976  13.821  0.1321 -0.1008 -0.2692
 3976W        W20110   5.084  13.714   3.328 -0.1802 -0.1864 -0.1690
 3977W        W20111   1.104   9.112   4.107 -0.2746  0.2116  0.0638
 3978W        W20112  10.420  17.452   0.786  0.1010  0.0178 -0.3982
 3979W        W20113  14.535   9.543   0.815 -0.1074  0.1630 -0.1963
 3980W        W20114  18.461   0.590  12.603 -0.2853  0.0418  0.1694
 3981W        W20115  14.183  14.495  14.941 -0.0155 -0.1421  0.3015
 3982W        W20116  16.942  12.133   2.779 -0.0368 -0.0076 -0.3137
 3983W        W20117  15.778  12.726  13.971 -0.1325 -0.1134 -0.0199
 3984W        W20118   8.632  18.062   4.336 -0.0477 -0.2780 -0.0751
 3985W        W20119   7.067   3.626   9.406  0.1707  0.0834  0.3458
 3986W        W20120   4.386  16.398   1.460 -0.0180 -0.1528 -0.2137
 3987W        W20121  13.696   8.399   3.379  0.2437  0.1844 -0.2200
 3988W        W20122  18.448  11.607   0.273  0.1704 -0.1053 -0.0935
 3989W        W20123   8.117  15.696   3.742  0.1191  0.2695 -0.1215
 3990W        W20124  16.186   1.584   4.884  0.3320 -0.1968 -0.1308
 3991W        W20125  11.170  11.831  12.045 -0.2721  0.3775  0.0084
 3992W        W20126  17.296   2.268   0.732 -0.2443  0.1751  0.1223
 3993W        W20127   5.619  11.038  12.248  0.1258 -0.1151 -0.0334
 3994W        W20128  13.920   2.926   0.098  0.2896  0.0748  0.3632
 3995W        W20129   6.837   6.615   1.678 -0.4155 -0.0692  0.0363
 3996W        W20130  11.265   3.013  11.763  0.2256  0.4230  0.0334
 3997W        W20131   4.121  12.304   5.437  0.1238  0.0200  0.0162
 3998W        W20132  17.893  11.344   1.218 -0.2709 -0.0690 -0.0106
 3999W        W20133  16.243   1.109   5.096 -0.0720  0.1982 -0.0510
 4000W        W20134   4.267  12.800  13.239 -0.0172 -0.0034 -0.2453
 4001W        W20135   8.802  13.805  14.522 -0.3078  0.2854  0.1370
 4002W        W20136  13.386  16.911  11.499  0.0174 -0.2796  0.0470
 4003W        W20137   1.414   7.609  12.819  0.0629  0.1146 -0.1178
 4004W        W20138   5.534  12.294  12.817 -0.2365 -0.5048  0.2811
 4005W        W20139  18.426  13.162   0.421  0.2152  0.0144  0.0235
 4006W        W20140  18.366  17.756   1.743  0.3248  0.3386  0.0044
 4007W        W20141   0.918   1.479  13.806  0.1805 -0.2571 -0.0650
 4008W        W20142  17.004   0.847  12.553  0.0368 -0.2614 -0.1170
 4009W        W20143   1.060  14.144   1.493  0.0888  0.1331 -0.1052
 4010W        W20144  13.715   7.472   1.906 -0.1458  0.1101 -0.1166
 4011W        W20145   3.446  13.135   0.204  0.0444 -0.0138  0.2928
 4012W        W20146   6.560  13.615  12.912 -0.2254 -0.0897  0.0515
 4013W        W20147   0.890   9.966   5.834 -0.3294 -0.0823 -0.1423
 4014W        W20148  13.831  15.120   3.485  0.1537  0.2222 -0.1670
 4015W        W20149   8.307   0.289  12.234  0.0487 -0.0475  0.0702
 4016W        W20150   0.444  16.187   0.287 -0.2980  0.1814  0.1664
 4017W        W20151   2.150  10.663   3.998 -0.0701 -0.1124  0.3467
 4018W        W20152  10.323  13.872  13.055  0.1294  0.1932 -0.1326
 4019W        W20153  15.589  15.782  13.016  0.1937  0.1377  0.2412
 4020W        W20154   7.237  10.667   2.166  0.1837  0.0812  0.1441
 4021W        W20155  11.142   8.801  13.717  0.1797  0.1325  0.4632
 4022W        W20156   0.815   5.673  10.884  0.1316  0.0426  0.0181
 4023W        W20157  17.417  14.953  11.870  0.0082  0.2036  0.0303
 4024W        W20158   5.030   0.261   2.875  0.1467 -0.1310 -0.2135
 4025W        W20159   0.952  14.368  12.230 -0.5022  0.1316 -0.2420
 4026W        W20160  16.395  10.798   1.507  0.0484  0.0311  0.1241
 4027W        W20161  12.200   1.755   3.776 -0.0350  0.1594  0.0108
 4028W        W20162  11.102  17.262   0.724  0.0852  0.0262 -0.2613
 4029W        W20163   5.877  14.876   1.811  0.2228 -0.0914  0.0618
 4030W        W20164  13.672   7.604   0.846  0.0714  0.3670  0.0093
 4031W        W20165   0.938  17.834  13.227 -0.1419  0.1261 -0.2188
 4032W        W20166  17.358   3.841   5.573  0.2858  0.1226 -0.0138
 4033W        W20167   2.673  14.434  13.307  0.1539 -0.0974  0.1693
 4034W        W20168   4.852  18.311   4.208  0.2219 -0.0286  0.1885
 4035W        W20169   1.153  17.907   0.193  0.0042  0.0372  0.1159
 4036W        W20170   8.644   1.904   4.837 -0.2164 -0.1248 -0.0401
 4037W        W20171   1.292  18.676  12.521  0.1494 -0.0102 -0.0538
 4038W        W20172  11.071   0.800  14.368 -0.0016  0.0319  0.0122
 4039W        W20173  14.918   7.302  13.454 -0.0757 -0.0742  0.1007
 4040W        W20174   0.394   0.863  12.254  0.2709 -0.0526  0.1533
 4041W        W20175  16.205  12.505   1.685 -0.2174 -0.0440 -0.0061
 4042W        W20176  11.020  10.171  10.456  0.4484 -0.1758  0.2346
 4043W        W20177   2.819  17.884   0.255 -0.0270  0.3247  0.2434
 4044W        W20178   3.549  14.320  12.057 -0.1033  0.1213 -0.0917
 4045W        W20179   7.630   6.219   2.023 -0.1766 -0.0273  0.1200
 4046W        W20180   7.888  12.173  12.217 -0.1180  0.1316  0.0312
 4047W        W20181  13.245  16.424   0.999 -0.0101 -0.0968 -0.2399
 4048W        W20182   5.580  17.660   0.106  0.0643  0.0262 -0.4443
 4049W        W20183   7.205  18.382  14.280 -0.0259  0.1137 -0.0455
 4050W        W20184   2.099  18.121   2.464 -0.0915  0.0412  0.0354
 4051W        W20185  15.622  14.090  11.558 -0.6228 -0.0934 -0.2437
 4052W        W20186  11.575  13.416   0.678 -0.1691  0.0849  0.1097
 4053W        W20187  14.130   0.134   2.347  0.0363 -0.1265  0.0651
 4054W        W20188  12.579  16.535   4.552  0.0802 -0.2938  0.0291
 4055W        W20189  12.086  12.020  12.224 -0.1915  0.1339  0.1430
 4056W        W20190   8.477   0.369  13.238 -0.0659  0.1805  0.2119
 4057W        W20191  14.232   7.469   1.547  0.0816 -0.3796 -0.2819
 4058W        W20192   9.433   0.837   4.531 -0.2195 -0.0734 -0.3840
 4059W        W20193   7.364   9.931   4.789  0.0867  0.0626  0.1647
 4060W        W20194  10.803  18.328  12.439  0.3816 -0.3798  0.2092
 4061W        W20195   5.870   1.565   4.351  0.2214 -0.2423 -0.0813
 4062W        W20196   6.236   1.197   3.196 -0.0090 -0.1662 -0.1749
 4063W        W20197  14.489   0.023  11.075  0.0662 -0.0760  0.1861
 4064W        W20198   8.281   4.977  12.931  0.1553 -0.0596  0.0395
 4065W        W20199  18.826   6.209   9.971  0.1355 -0.0831 -0.0902
 4066W        W20200  12.562  15.123  13.222  0.1421  0.1261 -0.1736
 4067W        W20201   6.723  16.555   4.132  0.1762  0.1745  0.0844
 4068W        W20202  17.335  18.602  13.579 -0.4642 -0.0025 -0.0906
 4069W        W20203  13.463   4.790   4.096 -0.0584  0.3054 -0.1153
 4070W        W20204  14.998   0.412  10.320  0.3129 -0.1906 -0.1098
 4071W        W20205   9.065   1.475  14.405 -0.0704  0.0198  0.1376
 4072W        W20206   7.481   9.272   1.663  0.1586  0.2151  0.0221
 4073W        W20207  18.911   1.720  11.793 -0.0246  0.0139 -0.3088
 4074W        W20208   5.164   6.861   5.360 -0.0171  0.2028 -0.3080
 4075W        W20209   5.996   8.505   2.039  0.1375 -0.1408 -0.0001
 4076W        W20210   3.910   8.875  14.937  0.1766 -0.0802  0.2500
 4077W        W20211  14.651   8.950  14.460 -0.0295 -0.1901  0.4842
 4078W        W20212  12.773   2.611   3.412 -0.2195 -0.0941 -0.1762
 4079W        W20213   9.278  16.192  12.592  0.4904  0.1993  0.0820
 4080W        W20214  12.662   7.178   3.533 -0.0871  0.2489 -0.0233
 4081W        W20215  10.901  15.593   1.600 -0.2827 -0.0351  0.0258
 4082W        W20216  17.853   8.862   0.388 -0.2978  0.1065  0.2649
 4083W        W20217  17.966   0.426   5.255  0.2590 -0.1247  0.0293
 4084W        W20218   4.520   1.551  10.780 -0.2193  0.0157  0.0436
 4085W        W20219  10.978  14.499  13.976 -0.0570 -0.1635  0.2044
 4086W        W20220  17.100   5.536   4.815 -0.0543  0.1492  0.1801
 4087W        W20221  11.714   8.212   3.712 -0.1642  0.0879  0.3296
 4088W        W20222  18.019  13.921  11.192  0.4009 -0.0950 -0.3615
 4089W        W20223   1.725   7.274  13.149  0.2328  0.1006 -0.5949
 4090W        W20224  16.917  10.407   4.349  0.0264  0.0184 -0.1231
 4091W        W20225   5.495   4.275  13.798 -0.1897 -0.1798 -0.1591
 4092W        W20226   9.363  11.913   3.711  0.4158 -0.0385  0.0127
 4093W        W20227   2.739   6.111   3.601 -0.0599 -0.1274 -0.2224
 4094W        W20228  15.599   5.960   0.947 -0.0402  0.0327 -0.1097
 4095W        W20229  18.874   0.424   1.015 -0.1623  0.0563  0.0627
 4096W        W20230  14.542   3.359   3.728 -0.0459 -0.0942  0.1362
 4097W        W20231  17.780   6.698   1.037 -0.0076  0.1138  0.2789
 4098W        W20232  16.960   4.437   4.814 -0.1135  0.0021 -0.1498
 4099W        W20233   3.562   2.662   4.351 -0.1573  0.2116 -0.0199
 4100W        W20234  13.206   1.455   5.089  0.1515  0.1403 -0.0036
 4101W        W20235   3.031   5.385   4.123  0.0877 -0.0798  0.3592
 4102W        W20236   1.787   7.139  10.975 -0.2775 -0.2290 -0.1941
 4103W        W20237  15.130   2.699   1.100 -0.0507 -0.1412  0.1953
 4104W        W20238   8.126   8.383  11.625  0.0919 -0.5024 -0.0235
 4105W        W20239  15.104   9.078   0.005 -0.1489  0.0504 -0.0148
 4106W        W20240   4.304   6.792  11.917  0.2488  0.0377  0.1672
 4107W        W20241   2.248   9.975  11.220  0.0329  0.0787 -0.3229
 4108W        W20242   7.964   6.661  10.126 -0.2980  0.0933 -0.0600
 4109W        W20243  11.630  12.802   0.791 -0.2486 -0.2083 -0.0910
 4110W        W20244   6.008   5.924  12.600 -0.4010  0.2049 -0.2365
 4111W        W20245   0.742   0.697   5.015  0.1592  0.2225 -0.0476
 4112W        W20246   0.681  16.929  14.350  0.2203 -0.0644  0.1342
 4113W        W20247  17.853   2.433  12.098 -0.3152  0.0389  0.1989
 4114W        W20248   7.954   7.218   1.306 -0.2989  0.3253  0.1345
 4115W        W20249  11.045   6.554  14.717  0.1341 -0.0426 -0.2587
 4116W        W20250   0.307   5.715   2.150 -0.1815 -0.0767  0.0882
 4117W        W20251   5.205  17.916   3.745 -0.2763 -0.0998 -0.1704
 4118W        W20252  13.000   9.262  14.452  0.1724  0.0369 -0.3205
 4119W        W20253   8.676   5.003   5.136  0.0992  0.0682 -0.2726
 4120W        W20254  18.877  14.417  14.355  0.0464  0.0370  0.1268
 4121W        W20255  15.711   8.714   4.464  0.0338 -0.1270 -0.0534
 4122W        W20256  18.386  15.142   0.331  0.2510  0.1043 -0.2203
 4123W        W20257  15.262   2.122  12.603  0.3196 -0.1200 -0.0802
 4124W        W20258  12.338   6.129   3.623 -0.3468  0.1320 -0.0138
 4125W        W20259  17.357   0.051   4.522 -0.2600  0.1584 -0.0805
 4126W        W20260   9.792  17.765   0.314 -0.1018  0.0680  0.1848
 4127W        W20261   0.559   8.340   0.130  0.1790 -0.0118 -0.1573
 4128W        W20262  18.184   4.338   3.131 -0.1377  0.3064  0.5133
 4129W        W20263  17.422  10.239  10.936 -0.2989 -0.1172 -0.4384
 4130W        W20264  15.828   6.764   4.092  0.0672 -0.0690  0.1793
 4131W        W20265  10.229  10.108  15.286  0.0249  0.0190  0.2735
 4132W        W20266  13.154   6.536  11.412 -0.3706 -0.0685  0.4080
 4133W        W20267   7.698   7.417  15.274  0.0797 -0.3141  0.1524
 4134W        W20268  18.606   6.375  10.430  0.0210 -0.0494  0.2657
 4135W        W20269   4.784  17.965   2.934  0.0723 -0.0708  0.0416
 4136W        W20270   9.163   6.877  11.772  0.2050  0.0125  0.1108
 4137W        W20271   2.461  15.148   0.606  0.0931  0.2049 -0.1038
 4138W        W20272   7.232  14.057   1.133 -0.3718  0.2200 -0.5261
 4139W        W20273   3.064  18.576  10.619  0.0658  0.0344  0.0504
 4140W        W20274   1.474  12.253  13.128 -0.2774  0.0259 -0.1895
 4141W        W20275  11.051   9.562   1.628 -0.4790  0.1230 -0.1934
 4142W        W20276   4.120   5.387  13.625 -0.1664  0.4421 -0.0897
 4143W        W20277  13.214   8.002  14.506  0.0393 -0.1491  0.0627
 4144W        W20278   4.790  17.682  15.277  0.1491  0.3498  0.0769
 4145W        W20279  10.180  10.582  13.374 -0.3204 -0.2619 -0.2621
 4146W        W20280   1.599   2.663  13.460 -0.1766 -0.3751 -0.1391
 4147W        W20281   9.267   3.460   4.789  0.0423  0.1977 -0.0983
 4148W        W20282  14.143  16.159  11.900  0.2150  0.1154  0.2592
 4149W        W20283  12.267   5.349   3.002 -0.3178 -0.0389 -0.1205
 4150W        W20284   7.771   4.927  12.118 -0.2569  0.2226  0.1619
 4151W        W20285  16.394  14.519  14.834 -0.1703 -0.0189 -0.2732
 4152W        W20286   0.064   6.799  10.956 -0.3614 -0.0439  0.0560
 4153W        W20287   6.559   4.877   9.417 -0.4410  0.5028  0.2458
 4154W        W20288  10.918   1.728   3.996  0.0459  0.0947  0.0190
 4155W        W20289  18.463   2.589  12.898  0.1438 -0.2360 -0.2583
 4156W        W20290   5.480   3.697  12.831 -0.1146  0.3326 -0.0840
 4157W        W20291  16.627  17.783   6.203 -0.1725 -0.1249  0.3036
 4158W        W20292   9.707  13.445   1.252  0.3183 -0.0256 -0.2447
 4159W        W20293   3.626   8.899   5.043 -0.2194  0.2398 -0.1478
 4160W        W20294   2.135   3.467   3.430 -0.0028 -0.1339  0.0334
 4161W        W20295  16.190  11.036  10.573  0.2204 -0.3821  0.2836
 4162W        W20296   4.866  13.674  13.669 -0.1944 -0.0248 -0.0199
 4163W        W20297   8.949   9.325   1.559 -0.0795 -0.0881  0.1164
 4164W        W20298   0.546  13.822  14.961  0.1507  0.2920  0.2811
 4165W        W20299  18.230   4.663   4.849 -0.0986  0.0438  0.0127
 4166W        W20300   5.391   2.657   2.306 -0.1976 -0.2995  0.2173
 4167W        W20301   3.288   2.077  15.203 -0.2545 -0.2955 -0.0746
 4168W        W20302   5.915   5.160   1.183  0.0420 -0.3749 -0.0087
 4169W        W20303   5.632  10.557   1.826  0.0781  0.1607  0.3271
 4170W        W20304   4.547   8.271  12.443  0.1859  0.0672 -0.4241
 4171W        W20305   4.789  13.742   5.088  0.3679 -0.0392  0.4103
 4172W        W20306   3.718  12.750  14.537 -0.2305 -0.1278  0.0228
 4173W        W20307  14.939   5.243  10.669  0.4191  0.3565  0.0064
 4174W        W20308  14.387  13.407  11.819  0.0842  0.0308  0.0644
 4175W        W20309  14.285   1.982   9.878  0.1332 -0.3375  0.0161
 4176W        W20310   4.741   8.054   4.803  0.0569  0.0103  0.1307
 4177W        W20311   0.561   4.702   2.657  0.0328  0.0429  0.1027
 4178W        W20312   5.393   0.758   3.025 -0.0786 -0.3058 -0.1583
 4179W        W20313   2.449   6.443   0.425 -0.1191 -0.0400  0.0929
 4180W        W20314  18.879   4.325  14.602  0.6575  0.0604  0.2189
 4181W        W20315  18.603   8.443   5.022 -0.1568  0.0664 -0.0471
 4182W        W20316  12.339   1.287   3.586 -0.1078  0.1257 -0.0201
 4183W        W20317  11.711  17.767   4.912  0.1688  0.2105  0.1018
 4184W        W20318  16.563  13.061  13.502  0.1065 -0.3938 -0.1927
 4185W        W20319  15.659   2.250  14.859  0.0635 -0.0139 -0.0090
 4186W        W20320  14.163   1.473  13.997 -0.3131  0.0705 -0.1489
 4187W        W20321   2.414   7.324  14.239  0.2296 -0.0300 -0.0098
 4188W        W20322  12.415   5.769  15.065  0.0891 -0.0436 -0.0259
 4189W        W20323  18.243   2.547   2.263 -0.0117  0.0547  0.0818
 4190W        W20324  12.027   2.788   0.061 -0.0455 -0.0672  0.0025
 4191W        W20325   9.208   9.606  14.252 -0.1063  0.2930 -0.1282
 4192W        W20326  17.789   9.939  13.391 -0.4299 -0.1350  0.0177
 4193W        W20327  10.753   8.471  12.559 -0.0216 -0.1964 -0.0431
 4194W        W20328  13.783  13.066  15.170  0.3518  0.0828 -0.0518
 4195W        W20329   6.525   3.202  10.860  0.1268  0.0187 -0.0392
 4196W        W20330  11.610   2.644  15.063 -0.1647  0.0491 -0.1460
 4197W        W20331   6.704   8.471   0.263 -0.1311  0.1885  0.0621
 4198W        W20332  18.567  14.536   2.308 -0.0422 -0.0271  0.0967
 4199W        W20333  11.514   7.132   1.331 -0.1712 -0.0071  0.0074
 4200W        W20334  15.650   2.551  10.634  0.1463  0.1037  0.0250
 4201W        W20335  11.446  15.898   2.525  0.0784  0.0959  0.1494
 4202W        W20336   5.398  16.272   4.222  0.0180 -0.0012  0.1846
 4203W        W20337  11.223   7.521   2.131 -0.0030  0.0170  0.1738
 4204W        W20338  17.068  14.569  10.142  0.2910 -0.0640  0.2210
 4205W        W20339  13.887   7.891   1.695 -0.2886 -0.0891 -0.1652
 4206W        W20340  13.084   4.409  12.022 -0.0420  0.1363  0.0476
 4207W        W20341  13.453  14.905   9.463 -0.1964 -0.2431 -0.3587
 4208W        W20342  17.492   4.078   1.733  0.3743  0.2124 -0.1246
 4209W        W20343   2.422   3.454  11.255 -0.0425 -0.0489 -0.2284
 4210W        W20344  11.365  11.452  14.470  0.3701  0.0891 -0.1885
 4211W        W20345  10.571  18.712   4.839 -0.3349  0.0964 -0.1010
 4212W        W20346   9.212  17.629   4.893  0.1134 -0.1227 -0.0330
 4213W        W20347  16.332  18.531  12.547 -0.1840 -0.0728  0.0419
 4214W        W20348   4.797  17.512  11.202  0.1572 -0.0430 -0.0590
 4215W        W20349  13.485  15.956   0.976 -0.1046  0.0221 -0.0759
 4216W        W20350   1.165   8.646   4.312  0.1424 -0.2729  0.0163
 4217W        W20351   2.557  12.543   4.903  0.2265 -0.0486  0.3146
 4218W        W20352   0.098  14.193   5.896 -0.1193 -0.0226  0.0932
 4219W        W20353  11.948   0.892   3.828  0.2101  0.0151  0.0545
 4220W        W20354  18.346  16.753   1.229  0.0360 -0.1073 -0.1082
 4221W        W20355   3.623   1.133   2.113 -0.1133 -0.0370 -0.2533
 4222W        W20356  16.521   9.886  12.487  0.4971  0.4726  0.3678
 4223W        W20357   7.174   5.246   3.967  0.0074 -0.0404 -0.3644
 4224W        W20358   8.505   8.636  15.020 -0.3102  0.2052  0.1288
 4225W        W20359   6.995  17.718  14.878  0.1398 -0.4379 -0.1073
 4226W        W20360  12.739  13.919   5.197 -0.2791  0.4826  0.0603
 4227W        W20361   4.374   5.683  14.914  0.0625 -0.1347  0.1629
 4228W        W20362   5.327   1.182  11.484  0.1723  0.1641  0.0688
 4229W        W20363  18.359   3.807   0.441 -0.2331  0.0808 -0.0315
 4230W        W20364  14.962   9.937   4.416 -0.0040 -0.0098 -0.0356
 4231W        W20365   3.069  18.118  10.752 -0.3535 -0.0946 -0.0920
 4232W        W20366  17.775   7.769  10.820  0.2770  0.0608 -0.0294
 4233W        W20367   8.236  13.003  15.159  0.2951  0.0201 -0.1510
 4234W        W20368   0.426  15.808   3.517 -0.0641  0.3194 -0.2154
 4235W        W20369   3.837   6.778   3.281 -0.0232 -0.1233 -0.1285
 4236W        W20370   4.172   8.044  14.815  0.2794  0.2354  0.1594
 4237W        W20371   2.779  17.423   0.550 -0.1022  0.1774 -0.1496
 4238W        W20372  11.615  16.575  10.797  0.1524 -0.1026  0.0827
 4239W        W20373   8.282   1.171   1.217  0.0167  0.1139  0.0753
 4240W        W20374  12.535   4.080   5.289 -0.0897 -0.1965  0.2925
 4241W        W20375  11.023  17.089   1.686  0.0172  0.1530  0.1053
 4242W        W20376   6.309  18.409   3.479 -0.0132 -0.2314  0.2496
 4243W        W20377   9.953  14.754   1.082 -0.1181 -0.1473 -0.1379
 4244W        W20378   3.807   2.968   0.156 -0.0154  0.1228  0.1360
 4245W        W20379   6.617   1.009   0.108  0.0483 -0.0428  0.4092
 4246W        W20380   7.284  10.484  13.759  0.0319  0.0310  0.4125
 4247W        W20381   5.963   7.939   1.846 -0.1323  0.0768  0.0080
 4248W        W20382   4.017   1.603  11.847  0.0115 -0.0694 -0.0620
 4249W        W20383  13.965   2.733  11.395  0.0432 -0.2635 -0.0829
 4250W        W20384  15.354   3.763  11.435  0.0444 -0.0114  0.3675
 4251W        W20385  18.007  15.824   0.860  0.1864  0.0762  0.5589
 4252W        W20386   2.144  11.739  13.410 -0.0918 -0.0600 -0.0275
 4253W        W20387  17.653  14.886   1.731 -0.1413 -0.1398  0.0872
 4254W        W20388  12.679   1.654   5.033 -0.1934  0.1141  0.0309
 4255W        W20389   5.004  14.827   2.260  0.0615 -0.1058  0.1736
 4256W        W20390  10.841  18.964   0.522 -0.1900 -0.1382  0.3735
 4257W        W20391   9.606   7.659  15.054  0.0043 -0.2777 -0.2124
 4258W        W20392   5.882  12.098  13.086  0.0897  0.2348 -0.0291
 4259W        W20393   1.878   3.939   2.790  0.1926 -0.3840 -0.0291
 4260W        W20394   3.729  15.072   0.835 -0.3384 -0.0728  0.1787
 4261W        W20395  12.627  18.814   3.403  0.2966 -0.1252 -0.0966
 4262W        W20396   3.423   7.035  12.799 -0.1939 -0.0068 -0.0811
 4263W        W20397  14.794  15.998  12.699 -0.0828  0.1791 -0.1134
 4264W        W20398   8.160  14.657  13.295  0.1067 -0.2713 -0.2171
 4265W        W20399   7.074   7.661  14.318  0.0244 -0.2165 -0.0598
 4266W        W20400  16.197  11.642  11.074  0.0230  0.2727  0.1490
 4267W        W20401  14.611   6.333   0.729 -0.1989 -0.0175 -0.1020
 4268W        W20402  14.120   8.381  11.759 -0.1649 -0.5306  0.0061
 4269W        W20403   2.030  16.643  10.320  0.0983 -0.1145 -0.2706
 4270W        W20404  13.211  17.336  14.054  0.1462 -0.1940 -0.1812
 4271W        W20405  11.766  17.505  11.887  0.3527 -0.0845 -0.0417
 4272W        W20406   7.940  17.091  14.583  0.2778  0.0487  0.0391
 4273W        W20407  11.175   1.925   4.523  0.0389  0.0645  0.0337
 4274W        W20408   4.002  15.488  10.336 -0.0701 -0.2407 -0.2500
 4275W        W20409   3.494   5.131  14.657  0.2136 -0.0314  0.0082
 4276W        W20410   8.520   3.261   1.955 -0.2763  0.2363 -0.4980
 4277W        W20411   9.999   9.807   4.865 -0.1969 -0.1029 -0.1230
 4278W        W20412   0.242  11.063   5.261  0.0656 -0.1319  0.1135
 4279W        W20413   9.303   6.895   3.754 -0.0843  0.0476  0.2122
 4280W        W20414   3.972  11.481  15.044  0.4299 -0.1222 -0.3155
 4281W        W20415  18.301  11.058   1.415  0.2118 -0.1910  0.2015
 4282W        W20416  13.234   9.753   3.263  0.0637 -0.2933  0.1538
 4283W        W20417   9.920  17.383  13.748 -0.3299  0.1283  0.0163
 4284W        W20418  17.422  15.889   1.020 -0.0140 -0.3262  0.2570
 4285W        W20419  13.147  13.984   2.722  0.0288 -0.2335  0.1326
 4286W        W20420  11.322   0.007   5.843  0.2192  0.2840 -0.1843
 4287W        W20421   0.755   1.439   3.668 -0.3603  0.0400  0.3152
 4288W        W20422  10.424   4.173  13.059 -0.2246 -0.1512 -0.0912
 4289W        W20423  14.109   3.291   0.344  0.0445 -0.1615 -0.0207
 4290W        W20424  15.878  14.944  12.979 -0.1129 -0.0085  0.1634
 4291W        W20425  11.106   8.488  14.235  0.0368  0.0113  0.2038
 4292W        W20426   4.599   5.542   0.092 -0.0157 -0.1726  0.2237
 4293W        W20427  18.050  14.321   1.645  0.0717 -0.0935  0.1696
 4294W        W20428  17.004  12.226   0.317  0.1771 -0.2548 -0.0619
 4295W        W20429  17.504  12.045   3.182 -0.2123 -0.0776  0.0476
 4296W        W20430   5.974   9.711  11.879  0.1376 -0.2729  0.2417
 4297W        W20431   3.773   3.363  15.130 -0.4205 -0.0823 -0.1194
 4298W        W20432  11.160   6.179  10.809  0.3214  0.0275  0.0138
 4299W        W20433   4.740  12.024   4.102  0.3875 -0.3495  0.1326
 4300W        W20434  13.698   3.727   3.355  0.0340  0.2094 -0.0624
 4301W        W20435   5.688  14.560   4.563 -0.0804 -0.3386  0.1128
 4302W        W20436   6.011   4.808   0.198 -0.1650 -0.0845  0.4332
 4303W        W20437   1.733   3.127   2.246 -0.1273 -0.1627  0.1413
 4304W        W20438  17.194   6.857  14.384  0.0661 -0.1337  0.0689
 4305W        W20439  11.513   2.537  10.979 -0.3685 -0.1224  0.1427
 4306W        W20440  16.264   9.194  13.202 -0.0309 -0.2072 -0.1584
 4307W        W20441   3.989  13.888  13.533  0.1973 -0.3206  0.1229
 4308W        W20442  14.280  13.146  15.185 -0.1344 -0.1472 -0.0003
 4309W        W20443   9.230  13.658  14.669 -0.2143 -0.0076  0.0574
 4310W        W20444   5.416  13.614  11.614  0.3338  0.2290 -0.2805
 4311W        W20445  11.734  17.778   2.560 -0.1154  0.1315 -0.2444
 4312W        W20446  11.044  14.079  11.524 -0.1611 -0.0218 -0.0815
 4313W        W20447   4.179  17.322  14.340  0.2986  0.1174 -0.2828
 4314W        W20448  16.129  10.469  11.081  0.2599 -0.2724 -0.2057
 4315W        W20449  14.973   2.405   2.783 -0.0311  0.1056  0.3850
 4316W        W20450  17.120  17.149  12.397  0.0097  0.1760  0.1373
 4317W        W20451   2.797  12.179  14.271  0.0088 -0.3088 -0.2514
 4318W        W20452   3.246  17.963   3.394  0.1333  0.2054 -0.2940
 4319W        W20453  18.909   3.561   4.219  0.2318  0.0370 -0.2639
 4320W        W20454  11.620   9.855   1.369  0.0497 -0.0142 -0.1053
 4321W        W20455   9.788   9.683   0.644  0.1183  0.1324 -0.1907
 4322W        W20456   1.379  12.932   0.708 -0.0825 -0.2581 -0.1627
 4323W        W20457  18.001   2.638  12.716 -0.1598 -0.0504  0.0843
 4324W        W20458   5.395  12.458  14.153  0.1270  0.3415  0.0860
 4325W        W20459   7.243  10.315  13.247 -0.0797 -0.0278 -0.0699
 4326W        W20460   1.040  16.462   3.426 -0.2095  0.0712 -0.1169
 4327W        W20461   9.618  13.908   1.492  0.0571 -0.0666  0.1358
 4328W        W20462  17.113   3.651   4.683  0.0629 -0.0008 -0.1517
 4329W        W20463   0.124   2.884  10.414  0.0584 -0.0877  0.2239
 4330W        W20464   6.658   5.467   2.992 -0.0803  0.0630  0.0072
 4331W        W20465  15.786   7.694  15.138 -0.2680 -0.1782 -0.1657
 4332W        W20466   6.376   0.546   2.553  0.2066  0.1657 -0.1323
 4333W        W20467  10.765  14.717  12.983 -0.1738 -0.0592 -0.0448
 4334W        W20468   8.113   2.996   0.020 -0.2128 -0.1609 -0.1489
 4335W        W20469   3.496   7.382   4.362 -0.1344  0.0882 -0.0749
 4336W        W20470   2.677  10.413  12.446  0.2816 -0.3116 -0.0634
 4337W        W20471   6.650   0.169   1.566 -0.2995 -0.0119  0.0071
 4338W        W20472  10.871  14.649  13.471  0.1034 -0.0052  0.0226
 4339W        W20473  18.452  11.849   3.315  0.2968 -0.0292  0.1740
 4340W        W20474  12.181   2.230   2.816 -0.1049  0.1111 -0.2347
 4341W        W20475  17.560  18.551   4.980  0.6205  0.0344 -0.2208
 4342W        W20476  16.381  14.665  12.145 -0.2714 -0.0809  0.1341
 4343W        W20477  15.121  14.497  12.567 -0.1038 -0.0150  0.0314
 4344W        W20478   3.693  18.242  11.408  0.0186  0.3324 -0.1422
 4345W        W20479  15.749   1.913  11.392  0.3502  0.2056 -0.4164
 4346W        W20480   5.506  17.438   4.113 -0.2113 -0.1321  0.1785
 4347W        W20481   5.185  12.979  10.285  0.1602  0.0957  0.1443
 4348W        W20482  11.225  14.150   4.201  0.0672  0.1969  0.0969
 4349W        W20483  10.111  11.650  11.285  0.2442  0.1295  0.0471
 4350W        W20484   1.693  17.648  13.700  0.3660 -0.1630 -0.0197
 4351W        W20485   5.926  10.723  15.121 -0.0583  0.1343 -0.1692
 4352W        W20486   3.980   5.824   3.200 -0.1584  0.2215  0.0521
 4353W        W20487   7.405   8.763  10.474 -0.0440 -0.4621  0.2632
 4354W        W20488   4.759   0.597  14.783  0.0610  0.1262  0.2177
 4355W        W20489  10.158   0.874   1.179 -0.1243  0.0895 -0.0807
 4356W        W20490   0.562   8.506   5.853  0.4646  0.0291  0.2532
 4357W        W20491   5.055  17.401  11.584 -0.2265 -0.3214  0.1993
 4358W        W20492   2.514   6.359  13.432  0.0370  0.3670  0.0450
 4359W        W20493   7.266  10.077  14.807  0.2870 -0.0815 -0.0431
 4360W        W20494   9.243   7.885   3.816  0.0668 -0.1335 -0.0263
 4361W        W20495   1.850   9.023  15.073 -0.1215 -0.3049  0.2609
 4362W        W20496  12.131  12.012   1.746 -0.1008  0.0318 -0.1034
 4363W        W20497  13.825   3.832   4.355  0.0584 -0.2272  0.0885
 4364W        W20498  10.966  15.311   2.415 -0.0927  0.2326  0.2708
 4365W        W20499   4.866   7.549   1.689 -0.0939 -0.3014  0.0485
 4366W        W20500   4.785   1.217   1.171 -0.0420 -0.1153  0.1711
 4367W        W20501  12.678   5.710  11.610 -0.0216  0.1579 -0.1612
 4368W        W20502  13.730   9.212   4.160 -0.0751 -0.0236  0.1539
 4369W        W20503  14.028  17.209  15.179  0.2083 -0.2261  0.0141
 4370W        W20504   4.066   7.034  11.513 -0.0156 -0.1008 -0.2368
 4371W        W20505  14.749   9.123   4.905 -0.3922 -0.1760  0.0130
 4372W        W20506   5.851  13.297  10.826 -0.2399  0.0928  0.0835
 4373W        W20507  15.121  11.063  13.325  0.2569 -0.1734  0.2024
 4374W        W20508  15.529   6.493  15.004  0.1581 -0.0770 -0.0644
 4375W        W20509   9.545   8.031   0.796  0.1680 -0.0239 -0.0047
 4376W        W20510  14.879  10.344   5.706  0.1679  0.2137 -0.0437
 4377W        W20511  13.791  18.320   4.167 -0.0381  0.0967 -0.1745
 4378W        W20512   0.192   3.129  14.543 -0.1414  0.0559  0.3274
 4379W        W20513  14.035   0.473  12.676 -0.0217 -0.0680 -0.0839
 4380W        W20514  11.252  18.326   0.837 -0.1072  0.0782  0.0433
 4381W        W20515  17.131  12.087  14.639 -0.2107  0.0754 -0.2994
 4382W        W20516   8.948   8.792   0.089 -0.1283 -0.2152 -0.1655
 4383W        W20517  10.080  17.861   3.445 -0.1252  0.2606  0.1038
 4384W        W20518  17.087  10.754  12.262 -0.0659 -0.0910 -0.0993
 4385W        W20519   9.062  17.705   1.092 -0.1179 -0.0951 -0.3185
 4386W        W20520  18.905   5.957  12.551  0.1703 -0.0652 -0.1004
 4387W        W20521   2.723   0.576   4.090  0.2242 -0.1567  0.6928
 4388W        W20522   2.388  17.958  12.967  0.0326 -0.0931 -0.0894
 4389W        W20523  10.528  16.374  14.501  0.1914  0.1162  0.0266
 4390W        W20524  17.364  16.788   2.574  0.1050  0.1247  0.2000
 4391W        W20525   4.120   4.316  15.136 -0.1365  0.2620 -0.0764
 4392W        W20526  18.810   8.778   5.497 -0.1723  0.1734 -0.4906
 4393W        W20527   1.228  16.125  11.459  0.1574  0.1807  0.0138
 4394W        W20528  12.842  10.661  13.926  0.2469 -0.0586  0.1139
 4395W        W20529  18.437  11.467   1.098  0.1914 -0.3076  0.0328
 4396W        W20530   3.763  13.940  12.626  0.1251 -0.2260 -0.0790
 4397W        W20531   9.305  13.072   0.520 -0.0168  0.2268  0.0691
 4398W        W20532  10.319  14.417  12.189 -0.1942  0.2059 -0.1902
 4399W        W20533   1.788   2.741   1.843 -0.0529 -0.3599 -0.3625
 4400W        W20534  17.057   6.392  14.133  0.1388  0.0435 -0.1559
 4401W        W20535  18.441   3.197   4.865 -0.2928  0.2218  0.0239
 4402W        W20536   3.582   8.617  10.950  0.0893 -0.0336  0.5169
 4403W        W20537  10.633  15.611  10.693 -0.0145  0.1711 -0.2102
 4404W        W20538   4.081   0.495  13.514 -0.2197 -0.0833  0.1822
 4405W        W20539  11.229   2.386  14.496 -0.0200  0.0165 -0.1795
 4406W        W20540  13.560  10.769   2.507 -0.0144  0.3107 -0.1593
 4407W        W20541   9.051   3.590   1.308 -0.2723  0.2427  0.0542
 4408W        W20542   3.671   0.399  13.306  0.0074  0.1693 -0.2211
 4409W        W20543   8.535   9.314   2.894 -0.0772 -0.0985  0.0300
 4410W        W20544  17.805  11.826   2.783  0.1347  0.1024  0.1382
 4411W        W20545  16.191   9.287   1.366  0.0870  0.0591  0.0767
 4412W        W20546  14.375  15.218   3.151 -0.1022  0.2414  0.0261
 4413W        W20547   2.214   7.765   0.683 -0.1445  0.3164  0.1139
 4414W        W20548   5.710  18.911   2.180 -0.2481 -0.1469 -0.1786
 4415W        W20549  10.584   2.580  12.049  0.0442  0.1354 -0.0644
 4416W        W20550  16.921   0.930   0.360  0.0037  0.1031 -0.0415
 4417W        W20551   9.971   3.999  13.026  0.1493 -0.1835 -0.2423
 4418W        W20552   6.435  16.371  10.452  0.3309 -0.2709  0.3509
 4419W        W20553   6.416   6.373   1.080  0.5186  0.0632  0.3705
 4420W        W20554   0.080  16.664   5.885  0.0003 -0.2779  0.1469
 4421W        W20555   2.148  15.506  13.251 -0.2419 -0.0832  0.0767
 4422W        W20556   4.870   4.371  10.371  0.0914 -0.1104  0.1441
 4423W        W20557  11.062   2.234   1.556  0.0044 -0.2083 -0.0036
 4424W        W20558   0.240  11.364   2.974 -0.1247  0.2164 -0.0529
 4425W        W20559   1.605   9.044  12.974  0.3791  0.1823 -0.2797
 4426W        W20560  17.809   1.436  13.566 -0.1979  0.1763 -0.1581
 4427W        W20561  11.628   5.418   2.431  0.1995 -0.1375  0.2014
 4428W        W20562  13.876   5.094  10.473  0.1585 -0.4455  0.0525
 4429W        W20563   9.846   2.925  10.659  0.1085  0.1367 -0.1558
 4430W        W20564   6.778   5.998  11.432 -0.1269 -0.0586 -0.1847
 4431W        W20565   8.281   7.143   3.898  0.1714  0.0120 -0.2858
 4432W        W20566   0.582  13.364  13.730 -0.0067  0.0565  0.0716
 4433W        W20567  18.045  14.747  12.758 -0.2940  0.0132  0.2216
 4434W        W20568   4.277  11.761   4.197 -0.2597 -0.1484  0.2485
 4435W        W20569  10.173  10.468  12.320  0.2622  0.0159 -0.0873
 4436W        W20570   6.851  16.924  10.191  0.1548 -0.1290 -0.1544
 4437W        W20571  15.990   5.567   0.946  0.1024  0.1071  0.1694
 4438W        W20572  11.748   4.949   4.848 -0.3471  0.4345  0.4290
 4439W        W20573  17.697  15.132   2.374  0.1016 -0.3268 -0.1601
 4440W        W20574   0.441  11.614  12.096  0.1632  0.0754  0.3485
 4441W        W20575   6.397  10.837   2.869  0.1338 -0.1152  0.0557
 4442W        W20576   1.918   3.945   0.510 -0.3289  0.1657  0.0813
 4443W        W20577  11.609   6.461   3.246 -0.0578  0.0621  0.0065
 4444W        W20578  10.023  15.098   0.684  0.1831  0.0613 -0.0727
 4445W        W20579   2.199  15.463   2.959 -0.0908 -0.1147 -0.1418
 4446W        W20580   4.599  13.856   3.613 -0.0196 -0.1867  0.3143
 4447W        W20581   9.967   5.766  13.817 -0.2991  0.1426  0.1838
 4448W        W20582  14.467  17.175  14.131  0.0356  0.0824  0.0917
 4449W        W20583   7.571   3.507   0.278 -0.2142 -0.0747  0.1294
 4450W        W20584   0.126  16.900  11.462  0.1605  0.1063  0.0559
 4451W        W20585  12.584  15.714  13.221  0.0508 -0.0574  0.0601
 4452W        W20586   7.267  10.297   0.546 -0.0465  0.1961  0.0922
 4453W        W20587  18.345   7.373  13.739  0.0347 -0.1657 -0.0078
 4454W        W20588   1.527   2.370  15.273  0.0406 -0.1965 -0.2695
 4455W        W20589   5.865   4.300  13.370 -0.2556 -0.1550 -0.1081
 4456W        W20590  16.908   0.780   3.705  0.1417 -0.2259  0.1639
 4457W        W20591   0.188  15.854  10.840 -0.1112  0.2647 -0.0023
 4458W        W20592   1.127   2.485   0.248  0.1979  0.2212 -0.1739
 4459W        W20593  13.373  15.140   3.671 -0.0171  0.1854  0.0986
 4460W        W20594   7.310   6.377  13.018 -0.1103 -0.2116  0.3302
 4461W        W20595   8.595  18.705  13.905 -0.0106 -0.1044  0.2379
 4462W        W20596   4.782   5.095   2.469 -0.0989  0.1318 -0.2153
 4463W        W20597   7.477   2.652   1.732  0.0360 -0.0825  0.0195
 4464W        W20598   0.108   1.938   2.686 -0.0342  0.1118 -0.0495
 4465W        W20599   7.758  16.069   0.154 -0.2517  0.1188 -0.2939
 4466W        W20600  13.867  14.168  10.787 -0.3002  0.0766 -0.1913
 4467W        W20601   2.081   8.203  12.551 -0.2233 -0.1045 -0.1006
 4468W        W20602   5.855  17.231   5.148 -0.2121  0.1282 -0.0712
 4469W        W20603  17.491   1.492   0.982  0.1269 -0.0369 -0.0898
 4470W        W20604   5.952  18.325  12.206 -0.1391 -0.0508  0.0660
 4471W        W20605   1.049   6.584   4.661 -0.1511 -0.0483 -0.1889
 4472W        W20606   8.470   7.234  14.936  0.0162 -0.3187 -0.0352
 4473W        W20607   1.804   2.233   0.386  0.0108  0.0255  0.0536
 4474W        W20608  16.037  18.197  14.121  0.0882  0.1829 -0.0689
 4475W        W20609  11.350  15.263  11.113  0.2494  0.2868  0.0135
 4476W        W20610  15.564  18.165   0.020 -0.4192 -0.0055  0.4139
 4477W        W20611   0.447  10.768   1.008  0.0099 -0.1275  0.2028
 4478W        W20612   4.217  18.055   3.452  0.1354  0.0559 -0.0938
 4479W        W20613  16.653   6.538   0.960  0.0191 -0.1857 -0.0167
 4480W        W20614  11.300  11.549   1.530  0.0816 -0.1048 -0.0292
 4481W        W20615   6.730  17.815   2.337  0.0510  0.0988 -0.0898
 4482W        W20616   3.408  12.785   3.264 -0.2319 -0.2051  0.1537
 4483W        W20617  12.250  12.620   9.309  0.1262  0.2508  0.1704
 4484W        W20618   3.713  16.171   1.897 -0.0720 -0.0229  0.0958
 4485W        W20619  12.651   0.252   9.770 -0.3264 -0.2436  0.3539
 4486W        W20620   8.001   3.351   0.330 -0.0368  0.3425 -0.1474
 4487W        W20621   8.825   4.288  10.082 -0.0037 -0.0839  0.0170
 4488W        W20622   8.995   8.494  13.806 -0.0605 -0.1266  0.1130
 4489W        W20623  12.502   7.301  10.561 -0.1648 -0.0992  0.1197
 4490W        W20624  10.524   9.896  13.264  0.1332 -0.1583  0.2991
 4491W        W20625  15.444   0.937  13.413 -0.0322 -0.1966 -0.0256
 4492W        W20626  16.091  10.690  13.217 -0.1589 -0.0488  0.0680
 4493W        W20627  15.218  14.214  10.496  0.2564 -0.1389 -0.1222
 4494W        W20628  11.846  16.346  15.098  0.0586  0.1934 -0.2384
 4495W        W20629   8.260  17.617   1.891 -0.1672  0.3560  0.1093
 4496W        W20630   4.066   5.166  11.928  0.0275  0.0439 -0.1751
 4497W        W20631   7.722   8.737  13.538  0.0194  0.0447 -0.1635
 4498W        W20632  15.644   8.799  13.463 -0.0797 -0.2106  0.0092
 4499W        W20633   7.418   8.552  14.498 -0.5367  0.0070  0.1239
 4500W        W20634   6.638  13.632   1.849  0.0145 -0.0227  0.2120
 4501W        W20635  13.370   9.351  10.648  0.2379 -0.0055  0.0179
 4502W        W20636  16.105  18.647  13.927  0.1103  0.3680  0.0588
 4503W        W20637   6.552   2.061  11.117 -0.5308 -0.1423  0.3537
 4504W        W20638  12.967  14.306   3.358 -0.0878 -0.2068  0.1299
 4505W        W20639  11.979  16.766  13.133 -0.1232  0.0627  0.2693
 4506W        W20640  11.111   2.596  14.972 -0.1645 -0.0001 -0.1387
 4507W        W20641  15.002  10.707   0.463 -0.0571  0.2813 -0.0862
 4508W        W20642  10.316   8.816   2.806  0.2019 -0.2231 -0.0044
 4509W        W20643   8.807   7.821   1.172 -0.1336 -0.0015  0.0651
 4510W        W20644   8.785   2.658  13.649  0.0809  0.1469  0.1212
 4511W        W20645  10.634  14.466  14.606 -0.3587  0.1841  0.0519
 4512W        W20646   8.871   1.117   2.010 -0.0042  0.1282 -0.0570
 4513W        W20647  17.424   1.282  14.376 -0.0907  0.2286  0.0131
 4514W        W20648  18.852   0.169   1.671 -0.1299 -0.1471  0.1344
 4515W        W20649   3.143   1.948  11.727  0.0746  0.1300  0.1465
 4516W        W20650  14.077  11.810   0.327  0.0575 -0.1300 -0.0674
 4517W        W20651  11.445   1.552   1.044  0.2349  0.2412 -0.1175
 4518W        W20652  11.516  11.292  11.312 -0.0463 -0.1609 -0.2254
 4519W        W20653  14.419  12.786   3.671 -0.1622  0.2463  0.0736
 4520W        W20654   7.526   5.118  15.110  0.2214 -0.0448  0.2037
 4521W        W20655  12.894  12.910   0.889 -0.0764 -0.2273  0.2461
 4522W        W20656  17.656   8.249  13.720 -0.0098 -0.1698 -0.2246
 4523W        W20657   3.259  18.133   0.849 -0.3747  0.0858 -0.1952
 4524W        W20658   0.709  13.462   0.191 -0.2090 -0.2249  0.0680
 4525W        W20659   1.284   5.375  11.750  0.2462  0.1948  0.2871
 4526W        W20660   6.692  16.206   0.562  0.2497  0.0263  0.1382
 4527W        W20661  13.895  15.492  12.784 -0.0482  0.1418 -0.0149
 4528W        W20662   7.990   4.278   3.380 -0.3922 -0.0930  0.0761
 4529W        W20663   8.801   5.907  12.044  0.0998 -0.2080  0.0160
 4530W        W20664   2.518  18.119   2.898 -0.0962 -0.0894  0.1796
 4531W        W20665  15.045   6.307   0.403 -0.0891  0.2462 -0.2668
 4532W        W20666  13.663   4.399  12.832 -0.1812 -0.1152  0.1453
 4533W        W20667  17.575  16.703   1.426  0.0949 -0.2557 -0.3003
 4534W        W20668   0.182   3.977   1.170 -0.4002 -0.2379  0.1055
 4535W        W20669   8.708  12.338  14.167  0.0790 -0.3114 -0.0381
 4536W        W20670   2.536   5.041   2.952 -0.3482  0.0144 -0.1178
 4537W        W20671   7.836  11.321  12.781 -0.0529 -0.0819 -0.0201
 4538W        W20672   8.299   3.755  13.608  0.3756  0.0290 -0.1090
 4539W        W20673  17.640  14.976   1.225 -0.0540 -0.0393  0.0511
 4540W        W20674  13.555   0.383  11.496 -0.0759 -0.2551 -0.1067
 4541W        W20675   2.438   0.351   5.046 -0.2788  0.0769 -0.1318
 4542W        W20676   9.912   1.050  14.021 -0.1121 -0.1292 -0.5006
 4543W        W20677  17.479   1.135   2.447 -0.0850  0.0455  0.1478
 4544W        W20678   3.930   7.953  11.969  0.1587 -0.2298 -0.2323
 4545W        W20679  18.900  13.532  13.231 -0.1314  0.1839 -0.1282
 4546W        W20680   4.171   3.700   3.177 -0.1326  0.2604  0.0322
 4547W        W20681  10.204  11.254   1.509 -0.1420  0.3336  0.1589
 4548W        W20682  13.176   5.873   4.747  0.0449 -0.1904  0.0969
 4549W        W20683  13.562   5.380   2.154 -0.1433  0.0471 -0.1541
 4550W        W20684   2.960   7.582  13.729  0.1258 -0.1678 -0.2152
 4551W        W20685   7.627  16.652   0.488 -0.1210 -0.0866  0.5504
 4552W        W20686  14.551   9.225   4.077 -0.2006  0.1922 -0.0184
 4553W        W20687  16.408   2.485   4.591 -0.0848 -0.2241  0.0889
 4554W        W20688   6.093  12.081   2.251 -0.2907 -0.0553  0.3125
 4555W        W20689  10.500   5.368  12.163 -0.1119  0.2619 -0.1032
 4556W        W20690   0.850   8.110   5.398  0.1493  0.0431 -0.0875
 4557W        W20691  12.427   8.324   4.747 -0.0157 -0.1039 -0.1359
 4558W        W20692   7.829   2.051  13.094  0.0848  0.0447  0.2233
 4559W        W20693   3.321   3.470   1.673 -0.2036  0.1441 -0.2838
 4560W        W20694   6.196  16.895  11.448  0.1506 -0.0640 -0.2137
 4561W        W20695  15.372   6.427   3.261 -0.1835  0.1513 -0.1312
 4562W        W20696  13.045  11.396  10.808  0.2269 -0.3675 -0.0799
 4563W        W20697   4.707  11.622  11.581 -0.2393  0.0901 -0.0094
 4564W        W20698  18.053   0.411   2.945 -0.1736 -0.0541  0.2190
 4565W        W20699  11.546   6.021  13.102  0.1394 -0.1554  0.0725
 4566W        W20700   8.060   5.681   3.600  0.3193 -0.1506  0.0079
 4567W        W20701  12.134   1.104   1.756  0.2108 -0.4356  0.0473
 4568W        W20702   1.854  14.719  14.166  0.1334 -0.1614 -0.0612
 4569W        W20703   1.766  13.297  15.273  0.1947 -0.1553 -0.1447
 4570W        W20704   5.623   3.546  11.629  0.2461 -0.1066  0.1830
 4571W        W20705  14.790   0.741  11.545 -0.4003 -0.4135 -0.4028
 4572W        W20706   6.582  10.400  14.450  0.1988  0.2297 -0.1133
 4573W        W20707   8.872  16.776   4.583  0.1653  0.0407  0.1264
 4574W        W20708  14.551   9.519  12.052 -0.2724 -0.3175  0.1261
 4575W        W20709   0.829  13.160  12.223  0.0367  0.0469 -0.0925
 4576W        W20710  11.697   2.489   1.751 -0.0360 -0.4074 -0.0603
 4577W        W20711   1.794  15.563   3.246 -0.0239 -0.0141 -0.0286
 4578W        W20712   5.215  18.397   2.168 -0.1848  0.1788 -0.1605
 4579W        W20713   1.952   1.811   0.592 -0.3272 -0.3293  0.0215
 4580W        W20714   4.179  10.194   3.559  0.0118  0.1161  0.1545
 4581W        W20715   6.043  18.065  14.006  0.0551  0.0348  0.0374
 4582W        W20716   7.582  17.426  10.195 -0.1049 -0.1176  0.2322
 4583W        W20717   4.680   7.273   2.172  0.1271  0.1334 -0.1999
 4584W        W20718   3.557   6.121   3.268  0.0114 -0.1817  0.0789
 4585W        W20719   9.178   8.925  13.512 -0.1557 -0.0132  0.1585
 4586W        W20720   3.914  12.223   4.951  0.1187 -0.4789 -0.2094
 4587W        W20721  15.382  10.630  13.132  0.1216  0.2089  0.3405
 4588W        W20722   1.957  16.474  11.950 -0.2259 -0.0480 -0.0957
 4589W        W20723   2.672  11.012  10.680 -0.3989 -0.0860  0.3060
 4590W        W20724  12.408  14.023   9.432 -0.1465 -0.0832  0.1592
 4591W        W20725   8.797  16.822  14.943  0.2387 -0.2221 -0.1070
 4592W        W20726   0.567  18.050   1.860  0.1449 -0.3333  0.1564
 4593W        W20727  11.335   5.918   3.542 -0.0031 -0.0034 -0.1069
 4594W        W20728   6.121   4.055   3.539 -0.0636  0.1105  0.0366
 4595W        W20729  11.391   1.873  14.435  0.0054 -0.2843  0.1929
 4596W        W20730   4.792   0.910   1.625 -0.1194 -0.1438  0.1930
 4597W        W20731   0.070   6.921  14.364 -0.1792  0.0704 -0.2540
 4598W        W20732  18.674  13.818   4.956  0.4622  0.1269  0.2217
 4599W        W20733  15.815  16.271  12.215  0.2948 -0.2561 -0.3013
 4600W        W20734  11.833   6.676   1.269 -0.0641 -0.1269  0.1991
 4601W        W20735  17.250  17.293  11.150 -0.1017  0.0359  0.1111
 4602W        W20736   8.957  16.204  13.592 -0.1945  0.0566  0.2517
 4603W        W20737   3.097   8.121  13.399  0.0173 -0.3625  0.1048
 4604W        W20738   8.251   3.095   5.114 -0.3337 -0.1856  0.1353
 4605W        W20739   2.708   2.811   1.350  0.3216 -0.0359 -0.1198
 4606W        W20740   1.810  11.331  13.429 -0.1094  0.0242  0.1599
 4607W        W20741   5.689  10.017   3.829 -0.0172  0.2378 -0.0849
 4608W        W20742   8.548   3.319   0.483  0.0692 -0.1846  0.0373
 4609W        W20743   4.700   5.970  13.143  0.0547  0.0337  0.0437
 4610W        W20744   0.015  16.914  10.929  0.0232 -0.2268  0.1561
 4611W        W20745  17.053  10.252   0.953 -0.3046 -0.2275 -0.0418
 4612W        W20746   1.064  16.689   4.867 -0.1248  0.3982  0.0101
 4613W        W20747  11.903   2.597   3.653  0.0495 -0.0230  0.0098
 4614W        W20748   4.241  10.827   0.603  0.1080  0.0319 -0.0186
 4615W        W20749   2.523   3.555  12.389 -0.1363  0.1471  0.1652
 4616W        W20750  11.588   7.735   4.879 -0.0332  0.2169 -0.2225
 4617W        W20751  15.797  10.822   4.216 -0.1244 -0.0395  0.2998
 4618W        W20752  10.383  12.233   4.959 -0.0478  0.0337  0.0832
 4619W        W20753  13.627  16.131   9.282 -0.0631 -0.0525 -0.1191
 4620W        W20754  14.341   7.738  12.576  0.0611 -0.3492  0.2210
 4621W        W20755  14.441  12.926  14.260  0.0975 -0.3121  0.0036
 4622W        W20756   5.849  11.601  14.233 -0.1057 -0.3258  0.0353
 4623W        W20757   2.211  15.589   2.039 -0.0545 -0.0941 -0.2468
 4624W        W20758  14.089  15.545   3.366 -0.3095  0.1399 -0.1821
 4625W        W20759   0.988   9.654   1.979 -0.3169 -0.0231  0.0432
 4626W        W20760  17.697  17.790  12.286  0.0795  0.1538  0.2905
 4627W        W20761   2.011  18.621  11.370 -0.2654 -0.2036  0.1471
 4628W        W20762  18.891  11.431   0.529  0.1251  0.0900 -0.0058
 4629W        W20763  14.850  18.130  12.075 -0.2224  0.0188  0.1560
 4630W        W20764  14.643  18.238   0.633  0.3460  0.0209  0.0538
 4631W        W20765   8.834  11.771   1.395 -0.0291 -0.1234 -0.1264
 4632W        W20766  17.454   1.753   2.389 -0.0643  0.0282  0.1734
 4633W        W20767   3.951   1.526  10.814 -0.2216  0.0066 -0.1593
 4634W        W20768  13.392   8.218  12.983  0.3543  0.0309  0.0500
 4635W        W20769   3.072   4.880   3.085  0.0783  0.2051 -0.0259
 4636W        W20770  17.892   1.053  14.004 -0.1628 -0.0419  0.1368
 4637W        W20771   4.270   3.926  13.372 -0.0932 -0.1401 -0.0171
 4638W        W20772   6.468  15.172   5.293 -0.0819  0.2977 -0.1546
 4639W        W20773  15.596  13.025  10.421 -0.1291  0.2755  0.0614
 4640W        W20774   5.145  10.564  14.613 -0.0224 -0.1944 -0.1761
 4641W        W20775   9.748  18.344   1.159 -0.0141 -0.1738 -0.4730
 4642W        W20776  13.154   2.722   3.732  0.0411  0.2188 -0.4239
 4643W        W20777  14.031   5.124  13.552  0.1244 -0.1388 -0.0008
 4644W        W20778  17.550  12.128  12.252  0.2115 -0.2061 -0.0405
 4645W        W20779  18.086  17.304   0.982 -0.0088 -0.1990 -0.0886
 4646W        W20780  14.415   9.523  13.266 -0.2432  0.0367 -0.1747
 4647W        W20781   7.965   5.522   0.069 -0.0418  0.5005  0.1285
 4648W        W20782   8.995   6.018   9.439  0.4204  0.2716  0.1280
 4649W        W20783  10.335   8.099  10.723  0.2195 -0.1353  0.1818
 4650W        W20784  12.847   5.979  13.880  0.1882 -0.1368 -0.1654
 4651W        W20785   5.279   4.208   4.099  0.0128  0.1304 -0.1132
 4652W        W20786  17.240   6.612   2.336 -0.1180 -0.0248 -0.0140
 4653W        W20787   0.759  18.944  12.562  0.0204 -0.0982 -0.2547
 4654W        W20788  14.423  13.302   1.569  0.0029 -0.0263  0.0233
 4655W        W20789   9.217   9.246   2.101 -0.3457  0.0445 -0.1817
 4656W        W20790  13.753   2.599  15.019 -0.0472  0.1398  0.2608
 4657W        W20791   8.778   8.405   1.996  0.2155  0.3394  0.3408
 4658W        W20792  11.773  11.554  14.026  0.0011  0.1920  0.1914
 4659W        W20793   8.536   4.539   5.009  0.0042  0.1954 -0.1337
 4660W        W20794   5.552   3.436  12.098 -0.2517  0.1538  0.1096
 4661W        W20795   0.152   7.472  14.731  0.2774 -0.2541  0.0254
 4662W        W20796   7.733   4.051  11.624 -0.1490 -0.1165  0.0743
 4663W        W20797   2.153   0.352  11.774 -0.0527  0.0203 -0.0741
 4664W        W20798   4.400  17.328  15.205  0.0886 -0.0419 -0.1482
 4665W        W20799   0.523   4.693  11.152  0.0475 -0.0062 -0.4508
 4666W        W20800  17.070  15.934  11.781  0.0494  0.0673 -0.1323
 4667W        W20801  14.859   8.716   1.798 -0.0846 -0.0375  0.2231
 4668W        W20802  14.940  14.585  13.387 -0.2019 -0.0864 -0.4992
 4669W        W20803   1.839   3.220   5.215 -0.1447  0.0526  0.0418
 4670W        W20804  15.030  13.788   1.953  0.2426  0.2110 -0.1250
 4671W        W20805  18.208  18.964   0.182 -0.0031 -0.0774 -0.0509
 4672W        W20806   7.537   3.789   4.579  0.3720 -0.3054 -0.2975
 4673W        W20807   5.716   8.103   1.002 -0.3295  0.2573 -0.0980
 4674W        W20808   4.794   3.757  14.529 -0.3408  0.1447  0.1450
 4675W        W20809  17.056  17.724   0.463 -0.0244 -0.0770  0.1357
 4676W        W20810  10.541  12.336   0.780 -0.1502 -0.0478  0.0205
 4677W        W20811  16.119   4.569   1.275 -0.1202 -0.1426  0.0299
 4678W        W20812  14.559  16.528   0.049  0.2292 -0.0993  0.0404
 4679W        W20813   9.385   5.749  10.910 -0.1893  0.1603 -0.4035
 4680W        W20814  12.483  12.348  10.908  0.0752 -0.0742  0.2474
 4681W        W20815  15.985  12.423   0.388  0.1449  0.1223  0.1608
 4682W        W20816   7.905  16.577  12.756  0.1494  0.0847  0.1480
 4683W        W20817  17.925   0.904   4.953 -0.0465  0.0023  0.0157
 4684W        W20818   2.972   6.545  12.611  0.1708  0.1282  0.0318
 4685W        W20819  17.228   8.961   2.796 -0.0547  0.0608  0.3628
 4686W        W20820  12.803  14.651   5.139  0.0255 -0.2128  0.0303
 4687W        W20821  18.015   1.159  14.486  0.2894  0.0799  0.0970
 4688W        W20822  10.258  13.355   3.648 -0.0842 -0.3484 -0.2463
 4689W        W20823  17.637  17.126   0.913  0.0939 -0.5278  0.2712
 4690W        W20824  11.578  13.877  10.116 -0.2922  0.3050  0.3213
 4691W        W20825  13.990   6.792   3.104  0.0137 -0.0881 -0.1722
 4692W        W20826   8.468   4.977   5.737 -0.1000  0.0930 -0.0523
 4693W        W20827  15.598   9.809   0.391 -0.0241 -0.1765  0.2844
 4694W        W20828   4.012   7.181  13.557 -0.0003  0.1672  0.4480
 4695W        W20829   0.880   6.452  14.273 -0.0216  0.0402  0.1436
 4696W        W20830   2.396   2.203  13.704  0.2951  0.1744  0.1304
 4697W        W20831   4.473  13.122  14.522  0.1353  0.1820  0.0864
 4698W        W20832  11.807  15.823   4.771 -0.1947 -0.1266 -0.0295
 4699W        W20833   5.499  16.479   0.941  0.0693  0.0968  0.0585
 4700W        W20834   9.843  18.430  14.868 -0.0922  0.1899  0.0155
 4701W        W20835  16.220  15.335   4.914  0.0638  0.2724  0.3422
 4702W        W20836  18.474   4.353   2.232  0.4279  0.0792 -0.2760
 4703W        W20837   4.879   8.054   2.472  0.2806  0.3084 -0.0458
 4704W        W20838  14.067  10.539   4.097  0.2121  0.3728  0.0622
 4705W        W20839   0.056   5.334   0.386 -0.0246  0.1235  0.0276
 4706W        W20840  11.333  18.110   3.352 -0.1768 -0.2221  0.2304
 4707W        W20841  15.958  10.719   2.934 -0.0938  0.0941  0.0220
 4708W        W20842   9.532   3.746   1.231 -0.2464  0.0235 -0.1918
 4709W        W20843   0.867  15.745  12.583  0.0236 -0.0120 -0.0882
 4710W        W20844   0.348   4.925   1.340  0.0543 -0.1198  0.3989
 4711W        W20845  14.799  18.365   4.780 -0.0881 -0.3683 -0.3803
 4712W        W20846  11.348  12.730   2.941 -0.1586  0.0423  0.1524
 4713W        W20847  12.051  11.422  12.253 -0.1589 -0.1655 -0.2161
 4714W        W20848  10.466   7.537   0.828  0.1052 -0.1322 -0.0023
 4715W        W20849  11.733  15.611  11.890 -0.1655  0.0440 -0.0575
 4716W        W20850  18.163   7.653  14.140  0.2628  0.1796  0.3062
 4717W        W20851   9.179   2.334   1.983 -0.2713 -0.2640  0.1429
 4718W        W20852   0.547   0.697  13.142 -0.1237 -0.1497 -0.3500
 4719W        W20853   0.116  18.003  13.345 -0.1651  0.0631  0.0777
 4720W        W20854  11.850   3.480   4.860  0.0387 -0.5725 -0.1540
 4721W        W20855   8.015  11.871   0.284  0.0570  0.0256  0.2228
 4722W        W20856   9.825  17.096   0.105 -0.2404 -0.1963 -0.1347
 4723W        W20857  17.270  17.977   1.067  0.0842 -0.0312 -0.1030
 4724W        W20858  14.975   4.809  14.826 -0.1602  0.1366 -0.0181
 4725W        W20859   2.612   5.271   0.413  0.2298  0.0401  0.2047
 4726W        W20860  11.690   8.480  10.439 -0.1591 -0.3404  0.0967
 4727W        W20861   4.588   0.533   1.392  0.1394 -0.3180  0.1192
 4728W        W20862  16.998  10.816   1.561 -0.2681  0.0006 -0.2906
 4729W        W20863  11.995   0.704  14.330  0.0060  0.1833 -0.1270
 4730W        W20864  16.934   4.350   2.443  0.1825  0.3108 -0.0931
 4731W        W20865   2.458  16.403   2.034 -0.0863 -0.1639 -0.0190
 4732W        W20866   6.931   7.280   2.560 -0.1051 -0.0801 -0.0363
 4733W        W20867   3.078  12.782   2.071  0.2894 -0.1844  0.0143
 4734W        W20868   9.146   5.531   4.680 -0.0704  0.0257 -0.1731
 4735W        W20869  11.375   5.404   3.541  0.2622  0.0417  0.0385
 4736W        W20870  15.867   9.532  12.470  0.1715 -0.1771  0.3589
 4737W        W20871  15.042  10.198  12.537 -0.1201 -0.1352  0.0233
 4738W        W20872  15.349   4.129  15.090  0.0045  0.0483  0.0119
 4739W        W20873  12.060   5.876   3.288  0.0720  0.1408  0.3824
 4740W        W20874   6.691   1.746   0.596 -0.0731  0.1126  0.1793
 4741W        W20875  12.115   0.789  13.480  0.0324 -0.1243 -0.1260
 4742W        W20876   1.562  17.869   3.342 -0.2130  0.0925  0.3515
 4743W        W20877  15.583  13.993   2.742  0.1549 -0.0222  0.1481
 4744W        W20878   3.964  15.544   1.873  0.0214 -0.3631 -0.0777
 4745W        W20879   7.524  15.568   1.465 -0.1982 -0.1041 -0.2422
 4746W        W20880  18.215   6.359   2.140  0.0445  0.0472 -0.1629
 4747W        W20881  15.095   4.447   0.973  0.0107 -0.1791  0.0162
 4748W        W20882   5.122  17.889  11.751  0.1024 -0.2671 -0.1602
 4749W        W20883  15.032  14.727  15.284  0.1334 -0.0927  0.0245
 4750W        W20884   1.768   6.651   2.506 -0.2506  0.0240  0.3500
 4751W        W20885   3.104  12.288   2.324 -0.2683  0.4705  0.0310
 4752W        W20886   9.326  10.949   1.513  0.0479 -0.0769 -0.1233
 4753W        W20887   8.219   5.224  12.084  0.1282 -0.0509  0.1818
 4754W        W20888   0.154  14.443   0.510  0.0606 -0.1635 -0.5977
 4755W        W20889   9.962  15.552  14.349  0.0879  0.3303 -0.2083
 4756W        W20890   7.323   4.773   3.991  0.1787 -0.3019 -0.3850
 4757W        W20891   5.197  14.614   4.186 -0.0921 -0.0471 -0.0890
 4758W        W20892  13.307   5.799  13.593 -0.0769 -0.1139  0.0194
 4759W        W20893   1.247   1.455   3.176  0.4546  0.0819 -0.1168
 4760W        W20894  11.732   8.045   0.930 -0.0110  0.0765  0.0125
 4761W        W20895  16.729  13.644  12.815 -0.3313 -0.1447  0.2072
 4762W        W20896  16.150  10.221   4.895 -0.3382 -0.2182  0.5200
 4763W        W20897   8.705  11.211  11.374  0.3086 -0.0679 -0.0386
 4764W        W20898   9.792  11.183   1.872 -0.3037  0.1894 -0.1789
 4765W        W20899  13.587   1.426   1.036 -0.0005  0.0277  0.1103
 4766W        W20900  17.003  12.513   3.718  0.1865  0.1482  0.2551
 4767W        W20901  16.456   0.018  14.258 -0.2164 -0.0399 -0.0700
 4768W        W20902  11.695   5.384   4.029  0.1049 -0.1380 -0.0666
 4769W        W20903  16.683   2.600  11.629 -0.0040  0.1352 -0.2362
 4770W        W20904   4.231   2.207  11.814 -0.0364  0.0897  0.1229
 4771W        W20905   6.376   8.814  13.560  0.1012  0.1846  0.3142
 4772W        W20906   3.928   5.279  10.337  0.1684  0.2452 -0.1422
 4773W        W20907  18.291  11.608   4.229 -0.0405 -0.0054  0.2136
 4774W        W20908  12.695   0.583   1.548 -0.0699  0.1212  0.2398
 4775W        W20909  16.013   6.249  12.789 -0.2581 -0.0882  0.0834
 4776W        W20910   0.812  14.004   4.124 -0.0811  0.3414 -0.0269
 4777W        W20911   2.848  12.680  14.787 -0.2116  0.3696 -0.3426
 4778W        W20912   8.497  14.660   3.553 -0.2091 -0.0043  0.2480
 4779W        W20913   2.001   8.403   0.026  0.0747 -0.2884 -0.1593
 4780W        W20914  17.251  18.793   1.629 -0.2033 -0.0865 -0.1129
 4781W        W20915   1.591   8.530   0.281 -0.2333  0.1980  0.0778
 4782W        W20916   8.462   1.368   1.733  0.0125  0.2107 -0.1128
 4783W        W20917   4.861  17.712  13.228 -0.0824  0.0215 -0.2969
 4784W        W20918   2.606   8.955   4.206  0.3648  0.3519  0.2190
 4785W        W20919  12.676  15.333  11.554 -0.0471  0.3481  0.2569
 4786W        W20920   5.587   9.926  13.131  0.1942 -0.0751 -0.0301
 4787W        W20921   9.104   5.867   1.446  0.1751  0.1508 -0.0662
 4788W        W20922   3.355  13.471   4.672 -0.0272  0.1331 -0.0301
 4789W        W20923   4.362  11.819  14.832 -0.2744 -0.2401  0.1372
 4790W        W20924   8.112  12.116  13.142  0.0968 -0.1673  0.0534
 4791W        W20925   4.125   4.339  11.434 -0.3159  0.1487 -0.0585
 4792W        W20926   0.097  15.502   4.412  0.1720  0.2509  0.1577
 4793W        W20927   2.949  13.022  15.193 -0.1045  0.0295 -0.1938
 4794W        W20928  18.339  14.368  10.447  0.2198  0.0269 -0.2644
 4795W        W20929  16.451   4.691   0.018  0.1694  0.0174  0.0441
 4796W        W20930   1.850  10.485   3.663  0.0158 -0.0526 -0.1579
 4797W        W20931  16.078  16.472   1.975  0.0479  0.0329 -0.0527
 4798W        W20932   2.152  15.623   4.489  0.0959 -0.1525 -0.1588
 4799W        W20933  17.379   7.389  11.794 -0.1264 -0.0549 -0.0363
 4800W        W20934   4.940   9.030   4.857 -0.1696  0.1517  0.1272
 4801W        W20935  12.245   1.072  10.922  0.1800  0.0899 -0.0816
 4802W        W20936  14.515   9.566   9.895 -0.0805 -0.2308  0.3057
 4803W        W20937   7.840  12.029   2.631 -0.1669  0.1318  0.1238
 4804W        W20938   3.782  17.173   4.530  0.2680  0.1223 -0.0232
 4805W        W20939   9.739   3.821   1.772 -0.0858  0.0427 -0.1655
 4806W        W20940   7.998  13.161  13.073 -0.0655  0.0358  0.0283
 4807W        W20941   6.022   4.156   5.614 -0.0385 -0.0191  0.2755
 4808W        W20942   7.940   2.372   4.168  0.0455 -0.2770  0.4420
 4809W        W20943   8.431   7.707  11.542  0.1071 -0.0867  0.0327
 4810W        W20944   6.052   0.426  13.498 -0.0343  0.2329  0.0201
 4811W        W20945   3.626   8.812   3.964 -0.0404 -0.1681 -0.1137
 4812W        W20946  12.445   2.125   1.248 -0.0502 -0.1267 -0.0387
 4813W        W20947   4.400   6.599   3.357 -0.0767  0.2028 -0.0914
 4814W        W20948   9.321   0.250  13.732 -0.2303 -0.1912 -0.2524
 4815W        W20949   3.041   0.550   4.897 -0.0638  0.4418 -0.0196
 4816W        W20950  11.081   0.476   4.126 -0.0673  0.2835 -0.1091
 4817W        W20951   0.870   0.627   1.586 -0.3673 -0.0308  0.2096
 4818W        W20952   3.777  13.507  13.124 -0.1934  0.1382 -0.1604
 4819W        W20953   5.308   6.003  11.554 -0.1096  0.3307  0.0626
 4820W        W20954   2.232   7.529   1.279 -0.2594 -0.0101 -0.0652
 4821W        W20955   5.962  18.296  14.428  0.0380 -0.3195  0.0926
 4822W        W20956  12.170   8.601   5.052 -0.0184 -0.1864 -0.0779
 4823W        W20957  11.267  13.110  11.482  0.1190  0.0464  0.2003
 4824W        W20958   6.796  15.022   1.395  0.2518  0.0339  0.0157
 4825W        W20959   9.072  12.386   2.300 -0.3229  0.0020  0.0100
 4826W        W20960   6.718   8.288  12.343 -0.0751  0.2518 -0.0976
 4827W        W20961   8.674   2.510  11.568 -0.0588  0.1877  0.0238
 4828W        W20962  17.494  18.459   0.881 -0.0705  0.3240 -0.3428
 4829W        W20963   5.105   4.678  14.375 -0.0076  0.2285  0.0606
 4830W        W20964   2.227   8.896   0.842  0.1185  0.1302  0.4468
 4831W        W20965  12.137  10.446   1.824  0.2296  0.1473 -0.1964
 4832W        W20966  15.412   2.355   3.131 -0.1818 -0.0562 -0.3287
 4833W        W20967  18.721  16.008   1.142  0.3877 -0.0865 -0.3566
 4834W        W20968  11.792   6.290   2.787 -0.0820  0.1333 -0.0006
 4835W        W20969   8.337  16.296  13.763  0.2483  0.1325  0.1701
 4836W        W20970   3.264   5.995   1.589  0.1765 -0.0382  0.2606
 4837W        W20971  13.974   9.212  11.609 -0.3313  0.1444 -0.2391
 4838W        W20972   0.895   2.028  11.105  0.0310  0.1779  0.0208
 4839W        W20973  14.589  10.147  13.927 -0.0780 -0.0670  0.1419
 4840W        W20974   2.662  18.968   2.902  0.1351 -0.2136 -0.2081
 4841W        W20975   6.378   6.454  14.966  0.0798  0.0354  0.0227
 4842W        W20976  10.484   6.103   5.612  0.1260 -0.3537 -0.0773
 4843W        W20977   4.774  12.305   4.803  0.0977  0.0547  0.0115
 4844W        W20978   8.052  15.600  12.590  0.0727 -0.2333 -0.4210
 4845W        W20979  18.303  10.127  14.290 -0.1080  0.0731 -0.1675
 4846W        W20980  16.188   0.417  12.894 -0.0033 -0.0886  0.0716
 4847W        W20981  13.092   2.850  14.504  0.1151  0.1890 -0.1866
 4848W        W20982  18.069  14.486   5.181 -0.1008 -0.1123 -0.0449
 4849W        W20983  10.552   8.541  10.616  0.1180 -0.2436  0.0246
 4850W        W20984  14.727   7.071   4.389 -0.1098  0.3101 -0.4302
 4851W        W20985   4.835   6.741   0.372  0.1410  0.0221 -0.0579
 4852W        W20986  10.538   9.507  12.769  0.1234 -0.1047  0.0547
 4853W        W20987   2.114   7.435   2.229  0.2992  0.0329 -0.2878
 4854W        W20988   9.088  10.664   1.169 -0.1555  0.2780 -0.0185
 4855W        W20989  13.480  11.075   4.194 -0.2297  0.0278  0.0278
 4856W        W20990   7.866   4.322  14.022  0.0968  0.3202  0.4281
 4857W        W20991  16.187   1.870  11.650 -0.2560  0.1949 -0.2096
 4858W        W20992   4.544  14.491   2.941  0.0130 -0.0442  0.0096
 4859W        W20993  16.854   3.137   5.688  0.3759  0.0821 -0.5155
 4860W        W20994   1.613   2.370   3.803  0.2521  0.1632  0.2273
 4861W        W20995   2.239   8.944  14.734  0.1233  0.1370  0.0482
 4862W        W20996   2.774  16.264  14.035 -0.0322  0.0283  0.1697
 4863W        W20997   4.445  18.702  14.676  0.1901 -0.0100  0.1109
 4864W        W20998  15.197  18.309  14.178 -0.1116 -0.3462 -0.3521
 4865W        W20999   3.348  13.799  12.208 -0.4791 -0.0907  0.1627
 4866W        W21000  14.548   6.575   5.079  0.5434  0.1125 -0.2888
 4867W        W21001   5.639   2.116   5.185  0.0345  0.0503  0.4048
 4868W        W21002  10.814  10.249   4.310  0.0873 -0.0054  0.1624
 4869W        W21003  17.471   6.121  15.042  0.1484 -0.1845  0.2605
 4870W        W21004   1.466  12.992  13.680  0.2671  0.0070 -0.1262
 4871W        W21005   0.673   0.741   4.027 -0.4002 -0.1234  0.1283
 4872W        W21006  14.541  10.779   1.244 -0.0055 -0.1733  0.2363
 4873W        W21007   9.900  13.358  11.859 -0.0567 -0.2011 -0.1191
 4874W        W21008   3.615  15.413   0.030 -0.0086 -0.3980  0.0795
 4875W        W21009  10.970  18.481  13.688 -0.1787  0.0999  0.4265
 4876W        W21010   5.421   4.879   3.067 -0.0622  0.1454 -0.2408
 4877W        W21011   1.095  17.037   1.528  0.0830 -0.1210 -0.1431
 4878W        W21012   8.303  13.322   4.524 -0.2465  0.4664  0.2659
 4879W        W21013  11.867   1.090  11.260  0.3041 -0.2575  0.4430
 4880W        W21014   2.432  18.758  13.998 -0.1258  0.0063  0.0665
 4881W        W21015  14.964  10.138  10.647 -0.1206 -0.1180 -0.0784
 4882W        W21016   4.244   5.755   1.303  0.3391  0.0240 -0.0743
 4883W        W21017  16.389  18.608   5.400  0.2412 -0.0854  0.0875
 4884W        W21018  10.993  16.188  14.883  0.1028 -0.1202 -0.1355
 4885W        W21019  10.989   9.723   2.104  0.0127 -0.3851  0.1005
 4886W        W21020   1.061  14.752   0.774 -0.2092 -0.1500 -0.2132
 4887W        W21021   0.125   3.108  11.765  0.1016  0.0014  0.2835
 4888W        W21022  15.610  16.569   2.053 -0.0507 -0.0289 -0.0567
 4889W        W21023  16.826   0.019   4.300 -0.3063  0.1026  0.1282
 4890W        W21024  13.840   9.664   1.490  0.3128  0.0288 -0.1690
 4891W        W21025   8.351  11.849   2.767 -0.1297 -0.0586 -0.0190
 4892W        W21026  10.413   6.593   3.214  0.1748  0.2289 -0.0597
 4893W        W21027   2.614  12.588   2.009  0.1763 -0.3667  0.4702
 4894W        W21028   7.698   7.146  14.603  0.0514 -0.0796  0.1453
 4895W        W21029   8.601   5.260  13.958 -0.2664  0.0521  0.1802
 4896W        W21030  10.306  11.044  14.091  0.0045 -0.2175  0.1596
 4897W        W21031   1.587  10.076  11.839  0.1660 -0.0979 -0.2965
 4898W        W21032   4.961  17.144   4.668  0.1389  0.2446 -0.3332
 4899W        W21033  15.416   0.789  12.820 -0.0941  0.0407  0.0383
 4900W        W21034   7.237   5.842  10.629 -0.1077  0.2195  0.2187
 4901W        W21035  10.791  18.182   0.694  0.1183 -0.2055 -0.1067
 4902W        W21036   9.692   7.255   3.055 -0.1610  0.2266  0.2127
 4903W        W21037   2.093   2.838   4.420  0.0067 -0.0049  0.0688
 4904W        W21038  16.660  18.826  13.804 -0.0945  0.1426  0.0285
 4905W        W21039   5.131   4.495   2.842 -0.2002 -0.5157 -0.2965
 4906W        W21040  12.478   8.078  13.260  0.1478 -0.0364  0.0752
 4907W        W21041  10.155   1.930  12.657 -0.0295 -0.0624 -0.3439
 4908W        W21042  10.834  14.746   5.072 -0.1242  0.0680 -0.1715
 4909W        W21043   4.581  12.662  10.922 -0.0155  0.1710  0.0412
 4910W        W21044  12.186  11.006  10.117 -0.1619  0.2432 -0.0793
 4911W        W21045  13.835   8.716   4.217 -0.2041  0.0631 -0.0344
 4912W        W21046   6.326  10.651  12.088  0.0970  0.4390 -0.0465
 4913W        W21047  11.129  11.381   0.471 -0.0835  0.1655 -0.1822
 4914W        W21048  11.013   3.726   2.765  0.0042 -0.0274  0.1519
 4915W        W21049   5.082  15.186   5.213  0.2706 -0.1728  0.3436
 4916W        W21050  13.297   2.863  12.537 -0.2641  0.0152 -0.1154
 4917W        W21051  18.152   6.731  14.569 -0.2574 -0.0988  0.4250
 4918W        W21052  16.935   1.218  14.182  0.2215  0.0609  0.2700
 4919W        W21053   1.557  16.432   2.126  0.2234 -0.4245  0.0256
 4920W        W21054  10.568   3.991   3.167 -0.2265 -0.0961 -0.2915
 4921W        W21055  11.031   9.823  13.114  0.1365  0.1528  0.2009
 4922W        W21056  14.001  15.114  11.164 -0.3462  0.0264 -0.2843
 4923W        W21057  12.530   8.475   0.262 -0.0973  0.0955  0.0270
 4924W        W21058  14.188  10.414   4.636  0.2066  0.1713 -0.2849
 4925W        W21059   9.300   2.837  10.759 -0.2017 -0.0278 -0.2674
 4926W        W21060  15.053   3.557  13.210 -0.1290 -0.0058 -0.0453
 4927W        W21061   3.303   7.819   4.511 -0.1727  0.2841  0.1557
 4928W        W21062  12.123  12.067   5.367 -0.2362  0.0173 -0.0718
 4929W        W21063  15.865   6.739   3.548 -0.0788  0.1328 -0.1536
 4930W        W21064   0.171  15.585  12.938  0.2402 -0.2686 -0.2298
 4931W        W21065   5.027   8.577   0.724  0.2287 -0.1085 -0.0190
 4932W        W21066  13.247   0.521   3.376  0.0706 -0.0500  0.2172
 4933W        W21067  11.817   8.122   2.250  0.2989  0.1124 -0.0077
 4934W        W21068   2.560   9.226  12.919 -0.1326  0.1274 -0.2633
 4935W        W21069   7.768   4.062   1.677  0.0389 -0.2473 -0.3059
 4936W        W21070   4.268   5.377   3.286 -0.1065 -0.2759  0.1789
 4937W        W21071  18.158  12.657   4.159 -0.1424  0.0697  0.2384
 4938W        W21072  11.839   4.667   1.915 -0.0243 -0.1860  0.0019
 4939W        W21073   4.671   7.632   0.687 -0.2425 -0.1137  0.0196
 4940W        W21074   6.173  14.589   2.128 -0.1712 -0.0424  0.0826
 4941W        W21075  15.688  15.909   3.960 -0.2413  0.1148 -0.1096
 4942W        W21076  17.486   1.791  14.520  0.1785  0.0936  0.2659
 4943W        W21077  11.593  16.386  13.139 -0.2672 -0.1803 -0.0923
 4944W        W21078  18.981   0.082  10.464  0.1769 -0.2856  0.1960
 4945W        W21079   3.380   1.772   2.785 -0.0864  0.1864 -0.1768
 4946W        W21080  12.545   6.381   2.921  0.0948  0.0770  0.3463
 4947W        W21081   4.163  12.805  11.135 -0.2207 -0.1742 -0.0191
 4948W        W21082  13.679   6.505   0.048  0.1221  0.4210 -0.2423
 4949W        W21083   4.500   1.622   3.136 -0.1594  0.0636 -0.2240
 4950W        W21084   1.160   0.740   0.682  0.2440 -0.0431 -0.2496
 4951W        W21085   8.204   9.783   3.293  0.1543 -0.0485 -0.0459
 4952W        W21086  17.973   5.884   2.130 -0.0518  0.2404 -0.1721
 4953W        W21087  17.271  10.484   3.566  0.1700 -0.3167  0.1332
 4954W        W21088  12.069  12.559  13.090 -0.1710  0.1987 -0.2815
 4955W        W21089  18.125  13.434  14.110 -0.0642  0.0707 -0.0776
 4956W        W21090  10.833   8.344   0.002 -0.2792  0.0429  0.1994
 4957W        W21091   5.996   6.943  10.121  0.1003 -0.3178 -0.0964
 4958W        W21092  17.200  16.282   2.339  0.1622  0.0359 -0.3490
 4959W        W21093  10.316   9.734  14.895 -0.0317  0.0848 -0.1951
 4960W        W21094  18.987  15.449  12.086 -0.0399 -0.0617  0.0130
 4961W        W21095   2.987   7.292   4.317  0.0997 -0.1349 -0.0818
 4962W        W21096  13.752  11.963  14.257 -0.1278  0.1542  0.0264
 4963W        W21097  14.439   3.550  11.151 -0.0629 -0.0359 -0.0792
 4964W        W21098   3.849   0.837  11.538  0.0537 -0.0035  0.0196
 4965W        W21099  16.111   3.242  11.096  0.0305 -0.0931  0.1887
 4966W        W21100   1.934  12.179   0.574  0.1791  0.1800 -0.0781
 4967W        W21101   2.003   4.510   5.623  0.2490 -0.0904  0.3825
 4968W        W21102  11.578   7.644  14.347 -0.0197  0.1531  0.2617
 4969W        W21103  10.710   3.397  12.181  0.0391 -0.0264  0.0458
 4970W        W21104  14.269  14.091   1.408 -0.0496  0.0561  0.0230
 4971W        W21105   6.924  12.953  12.369  0.2426 -0.0727 -0.1234
 4972W        W21106  10.634   1.588   1.435  0.1556  0.5051  0.0473
 4973W        W21107   9.425  14.452   0.501  0.0740 -0.2127 -0.0465
 4974W        W21108  18.743  11.521   4.032  0.0143 -0.1657 -0.0429
 4975W        W21109   6.592   2.104  14.957  0.0333 -0.0134  0.2759
 4976W        W21110  10.093  14.177   0.442 -0.0157 -0.1407 -0.0648
 4977W        W21111  18.169  13.133  13.661 -0.2218 -0.1537 -0.2578
 4978W        W21112  13.573   1.235  10.323 -0.1498  0.0131  0.2822
 4979W        W21113   2.894   2.300   3.449 -0.1615 -0.2040  0.2409
 4980W        W21114   9.073  18.996   1.686  0.0777  0.1712  0.3398
 4981W        W21115  17.301   1.831   0.492 -0.1518  0.1809 -0.0258
 4982W        W21116  17.621   9.980   5.271  0.0940  0.3956  0.3766
 4983W        W21117  16.834   9.612   2.074 -0.2731 -0.1728 -0.0156
 4984W        W21118   6.354  17.942   5.341 -0.0935  0.0975 -0.0453
 4985W        W21119  15.658  18.440   2.287  0.0412  0.2326  0.2045
 4986W        W21120  17.207  17.983  12.082  0.2025 -0.2047  0.1193
 4987W        W21121   1.194   0.293   1.115 -0.2157 -0.0326  0.2768
 4988W        W21122   5.828  18.727   2.634  0.1807 -0.0649  0.0041
 4989W        W21123   9.506  17.194   5.332  0.0483 -0.0321 -0.3022
 4990W        W21124   3.322   8.322  14.717  0.1569  0.1518 -0.0486
 4991W        W21125   5.677   6.806  12.488 -0.2027  0.2211 -0.2200
 4992W        W21126  10.615   6.651   0.656 -0.1469  0.2186  0.0413
 4993W        W21127  13.495  17.177  15.126 -0.2774  0.1135 -0.2957
 4994W        W21128   0.226  11.500  15.046 -0.3048  0.2140  0.0725
 4995W        W21129   6.179   8.121   3.942 -0.2369  0.0910  0.1938
 4996W        W21130   7.404  11.654   4.260  0.0309 -0.0144 -0.0808
 4997W        W21131  16.643  18.289   6.092 -0.0160  0.2248  0.1441
 4998W        W21132   5.634   7.308   4.030  0.1777 -0.0412  0.0949
 4999W        W21133  13.288   2.543   1.756 -0.0279  0.0083  0.0178
 5000W        W21134  12.969  13.719   4.712 -0.0725  0.2105  0.0955
 5001W        W21135   4.500   9.089   5.047 -0.2147  0.0458  0.2254
 5002W        W21136  14.636   4.890  10.949 -0.0776 -0.0059  0.1131
 5003W        W21137   5.508   8.346   0.607 -0.2326  0.0141 -0.0666
 5004W        W21138   2.994  12.569   4.083 -0.4596 -0.0562  0.2231
 5005W        W21139   5.771   2.058   0.626  0.1953 -0.0318  0.2862
 5006W        W21140  12.144   7.664   2.337  0.0679 -0.1804  0.2958
 5007W        W21141  17.277   9.243  12.653  0.1178 -0.1685  0.1894
 5008W        W21142   9.710   2.838   0.754 -0.0907  0.0848  0.0392
 5009W        W21143  14.168  14.405  13.760  0.0504  0.0981  0.2729
 5010W        W21144  17.689  18.427   5.485 -0.0564 -0.1531  0.0431
 5011W        W21145   3.500   8.076  11.673  0.2729 -0.2478  0.0530
 5012W        W21146  10.233   0.077   0.915  0.2633  0.3412 -0.3330
 5013W        W21147  11.258  10.441  12.269  0.0193  0.0489 -0.5209
 5014W        W21148  10.716   1.470  14.579 -0.1964 -0.1527  0.5816
 5015W        W21149  10.056  13.905   5.595 -0.3531 -0.2959 -0.0142
 5016W        W21150   6.618  12.833   5.000  0.1235  0.0211 -0.1293
 5017W        W21151  11.229  10.480   0.182  0.0078 -0.2096  0.2479
 5018W        W21152  12.713  11.891  10.955  0.1702  0.1278  0.0067
 5019W        W21153  14.337  13.013   1.954  0.0518 -0.1633 -0.0223
 5020W        W21154  12.464  18.001  15.189  0.0720  0.2275 -0.1367
 5021W        W21155  14.340  11.805  14.311 -0.1636  0.1572  0.1194
 5022W        W21156   2.878  14.101   1.296  0.0819  0.2931 -0.2052
 5023W        W21157   8.887   2.919   2.637  0.0163  0.0431  0.2019
 5024W        W21158  13.597  13.934  14.380  0.1145  0.0670 -0.2549
 5025W        W21159  12.409   5.328   0.114 -0.0233 -0.0140  0.3719
 5026W        W21160   5.840  13.273   5.793 -0.1352 -0.0261 -0.0073
 5027W        W21161   6.506  11.257  10.881 -0.1151 -0.0649  0.0919
 5028W        W21162  10.068   6.879   1.845 -0.0566  0.2078 -0.2649
 5029W        W21163   4.004  18.168   4.549 -0.0239 -0.0219 -0.3215
 5030W        W21164  18.807  18.359   0.653 -0.1713  0.0756 -0.0030
 5031W        W21165   0.854   1.282   2.346 -0.2689  0.2874  0.1867
 5032W        W21166   5.106   1.066  14.674 -0.1086  0.1015  0.0134
 5033W        W21167   4.897   3.837  15.158  0.0157  0.1434  0.0929
 5034W        W21168   0.362   2.609   1.421 -0.0919  0.0332  0.0165
 5035W        W21169   3.924   0.931   0.964  0.0020  0.0668  0.0491
 5036W        W21170  15.171   8.318   2.543 -0.2450 -0.2841  0.1308
 5037W        W21171  10.182   7.616  15.252 -0.0152 -0.2970 -0.0059
 5038W        W21172  17.860  11.008   3.166 -0.0648  0.0714 -0.0626
 5039W        W21173  14.464  17.833  14.727 -0.0257  0.0542  0.1460
 5040W        W21174   1.784   6.418  13.758 -0.0715  0.2793  0.0406
 5041W        W21175   9.767  11.635   1.659  0.1492  0.1170  0.0063
 5042W        W21176   3.401   7.762  10.997 -0.0193  0.0638  0.0435
 5043W        W21177   3.701  16.441   4.431 -0.0349  0.0756  0.2153
 5044W        W21178   5.603  12.621  15.132  0.0303  0.4506 -0.0436
 5045W        W21179   2.657   2.951  11.878  0.0736 -0.4860 -0.1036
 5046W        W21180   2.958   9.660   4.968 -0.1620 -0.0226  0.0309
 5047W        W21181   4.645   9.281  13.425  0.1982 -0.1537 -0.1198
 5048W        W21182  17.630  13.277   2.452  0.1642  0.1752  0.1097
 5049W        W21183   1.752  10.182  10.416 -0.2524  0.0217  0.1024
 5050W        W21184   5.453   8.384  11.627 -0.1756 -0.0682  0.0968
 5051W        W21185   0.410   0.374  14.678 -0.0616  0.1146  0.1737
 5052W        W21186  11.504  15.376  10.631  0.0520  0.2009 -0.0165
 5053W        W21187   3.708   9.643   2.815 -0.1603  0.2044 -0.0652
 5054W        W21188  13.248  11.251  12.629  0.1443 -0.0524 -0.0935
 5055W        W21189   7.121   5.655   9.354  0.4202 -0.1805 -0.1135
 5056W        W21190   5.430   6.160  15.054  0.4057  0.0895 -0.1439
 5057W        W21191  16.622  14.524   3.914 -0.0602  0.3923  0.1324
 5058W        W21192  16.950   5.663   1.153 -0.2756 -0.0157 -0.0921
 5059W        W21193  11.086  11.599   4.585 -0.1200  0.2419  0.2805
 5060W        W21194  18.079   1.539   4.857  0.0113 -0.4146  0.0083
 5061W        W21195   4.472  12.065   1.397  0.1647 -0.0607  0.0858
 5062W        W21196   0.051  16.470  14.794 -0.0395  0.0763 -0.0396
 5063W        W21197  16.318   2.353  12.422 -0.1035 -0.0036 -0.3071
 5064W        W21198  18.908   2.716   1.994  0.0581 -0.0766 -0.2039
 5065W        W21199   9.143  10.653  10.776  0.2442  0.2549 -0.2538
 5066W        W21200   8.124  10.856   0.546  0.0544  0.4052  0.2223
 5067W        W21201  17.793  12.343  12.666  0.0732 -0.0280 -0.1942
 5068W        W21202   0.927   6.386  11.209 -0.2132  0.1636  0.1310
 5069W        W21203  13.360   8.451  14.572  0.0361  0.2099  0.0689
 5070W        W21204   9.123   1.147  10.633 -0.0746 -0.0496 -0.1401
 5071W        W21205  18.416   5.963   4.025  0.0765 -0.1167  0.0624
 5072W        W21206  14.305  11.953  15.124  0.1381  0.0525  0.1566
 5073W        W21207  13.455  10.201  10.616  0.0142  0.2758  0.0343
 5074W        W21208  13.197   0.670  11.094 -0.3288  0.2356  0.0493
 5075W        W21209   4.897   4.811   3.225  0.0375  0.3722 -0.0268
 5076W        W21210   6.389  10.842   4.005  0.3561  0.1861 -0.0782
 5077W        W21211  13.886   4.316   0.456 -0.0701 -0.2466 -0.1342
 5078W        W21212   2.709  10.368   4.644  0.0285  0.0584 -0.0262
 5079W        W21213   7.016   9.566  13.414  0.2405  0.3244  0.0329
 5080W        W21214   7.587  11.527  14.353 -0.1500  0.1564 -0.0039
 5081W        W21215  18.462  15.486  12.221  0.1198  0.1925  0.4328
 5082W        W21216   2.743  10.211   1.663 -0.0587  0.1799  0.0750
 5083W        W21217   7.549   5.850  14.112 -0.0300  0.2387 -0.0528
 5084W        W21218  13.343   8.983   9.982 -0.2143  0.1941  0.1386
 5085W        W21219  11.602  18.555  12.280 -0.2576 -0.1834 -0.1716
 5086W        W21220  18.116   3.230   3.000 -0.0105 -0.0011 -0.1804
 5087W        W21221  10.533   5.752  12.910 -0.1615 -0.0453 -0.1666
 5088W        W21222   9.012  18.707   3.877 -0.0115  0.2681 -0.1325
 5089W        W21223  12.100  13.864   4.151  0.2228 -0.2773 -0.0294
 5090W        W21224   0.719   2.519   1.044  0.1455 -0.0420 -0.0269
 5091W        W21225  15.866   4.090   1.533  0.3240  0.1247  0.0086
 5092W        W21226  15.917   9.360   4.795  0.0628  0.2301  0.3493
 5093W        W21227  11.380  13.564   4.925  0.1132 -0.2314 -0.1237
 5094W        W21228  18.399   9.467   3.270 -0.0686  0.2054  0.0322
 5095W        W21229   6.695   9.710   0.997 -0.2536 -0.1308  0.2606
 5096W        W21230  16.193   1.903   3.996  0.1238 -0.0837 -0.3146
 5097W        W21231   2.100   3.551   3.961 -0.1023  0.0292  0.1527
 5098W        W21232   8.445   0.120  14.407  0.2223 -0.1561  0.2867
 5099W        W21233   3.226   0.995  14.474  0.3251 -0.0009 -0.0113
 5100W        W21234   6.692  14.914  12.209  0.0150 -0.2402  0.2422
 5101W        W21235   4.217   1.348  12.932 -0.0969 -0.3459  0.2183
 5102W        W21236   7.041  12.103   2.973 -0.1908 -0.0173 -0.1385
 5103W        W21237  12.979  10.363  14.933 -0.1643 -0.2317  0.0755
 5104W        W21238   6.698   3.696   2.378  0.0606  0.2997  0.0129
 5105W        W21239  10.138  18.706  12.707 -0.2196 -0.0484 -0.2620
 5106W        W21240   7.052  18.825  12.456 -0.4128  0.2537 -0.0047
 5107W        W21241  16.218   3.600   3.482 -0.0410  0.2466 -0.3062
 5108W        W21242   9.955   7.348  12.885  0.0905 -0.0237  0.0352
 5109W        W21243   0.373  11.342  11.165 -0.0333 -0.5209 -0.0734
 5110W        W21244  16.173   1.661  10.697  0.1421 -0.0125 -0.1046
 5111W        W21245  14.547   2.078   2.760  0.3347 -0.0930  0.1978
 5112W        W21246  10.389   1.864   2.724  0.1029 -0.1237 -0.0289
 5113W        W21247  16.689  11.076  12.959 -0.2510  0.1980  0.0116
 5114W        W21248  12.056  12.518  14.803  0.3900  0.0149 -0.1107
 5115W        W21249   0.408  11.338  10.504  0.3213 -0.2580  0.0875
 5116W        W21250   5.750   9.171   3.114  0.2146  0.3041  0.1914
 5117W        W21251   7.484  17.807   2.947  0.0756  0.0382 -0.0160
 5118W        W21252   5.356   8.641  10.846 -0.1596  0.1946  0.0726
 5119W        W21253   1.367  14.371   3.655  0.1168 -0.1777 -0.1562
 5120W        W21254   5.770  11.822  11.868 -0.1222  0.0202  0.0550
 5121W        W21255   1.550   7.383  14.674  0.1766  0.2530  0.1720
 5122W        W21256  14.196  14.617  11.612  0.3428  0.2470 -0.0619
 5123W        W21257   9.947   3.534   2.111 -0.0288 -0.3890 -0.1151
 5124W        W21258  16.636   8.816   1.729 -0.1236 -0.1031 -0.2126
 5125W        W21259  18.468  16.139   0.166  0.1083 -0.1851  0.0444
 5126W        W21260  13.331   8.672   2.158 -0.1783  0.2325 -0.1370
 5127W        W21261  11.846   3.319   3.433 -0.0025  0.1504 -0.0158
 5128W        W21262  10.441   3.220  13.861 -0.1814  0.0568  0.1024
 5129W        W21263   5.067   2.176   9.453 -0.2632 -0.1078  0.2299
 5130W        W21264   9.141   5.819   3.124  0.3020 -0.1759 -0.1475
 5131W        W21265  12.088   6.763   4.248 -0.0429 -0.1496  0.0165
 5132W        W21266  17.764  15.577   4.437 -0.1102  0.1717  0.1254
 5133W        W21267   5.953   3.884  15.197  0.2246 -0.6479  0.1753
 5134W        W21268  10.598  14.702   4.592 -0.1551  0.2167  0.0449
 5135W        W21269  13.055  13.563  15.091 -0.3008  0.2200 -0.0126
 5136W        W21270  14.851   3.155  11.169 -0.1313 -0.2701  0.0630
 5137W        W21271   7.007  16.743  11.165 -0.0658  0.0616 -0.1921
 5138W        W21272   7.467  12.735   2.135  0.1434 -0.2131 -0.1580
 5139W        W21273   6.394   0.669   3.002 -0.1484 -0.1789 -0.0134
 5140W        W21274  16.619   5.431   1.633 -0.1677 -0.1460  0.4306
 5141W        W21275   6.504  11.572  13.653  0.0886 -0.2197  0.1674
 5142W        W21276   1.156   8.579   2.661 -0.2599  0.0763  0.0240
 5143W        W21277   6.043  11.733  12.772  0.0988 -0.0188  0.2426
 5144W        W21278   8.680  11.817   0.412 -0.2677  0.0823  0.1134
 5145W        W21279   5.701   7.373   2.103  0.3096 -0.0461 -0.2799
 5146W        W21280  18.807  11.057  14.330  0.0507 -0.2152  0.0137
 5147W        W21281  15.437  14.499   1.778  0.1992 -0.1685  0.2392
 5148W        W21282  16.805  10.511   2.449 -0.0733  0.2743  0.0969
 5149W        W21283   2.679  18.216  12.618  0.4056 -0.0114 -0.0798
 5150W        W21284  17.198   2.728   0.938 -0.1645 -0.0343  0.0345
 5151W        W21285  13.312   5.339  13.982 -0.1191 -0.3444 -0.0572
 5152W        W21286   7.311   1.967   2.959  0.0417 -0.1230 -0.1124
 5153W        W21287   9.578   5.381  11.861  0.0038 -0.1187  0.0532
 5154W        W21288  15.364  14.024   3.739  0.1095  0.1112  0.2396
 5155W        W21289  15.068  10.439   4.164  0.0406 -0.2061  0.2319
 5156W        W21290   1.753  16.231   5.221 -0.0878  0.3710  0.1075
 5157W        W21291  13.746   6.204   3.925 -0.3184  0.0671  0.2690
 5158W        W21292  16.768   2.412  14.230  0.1988 -0.1077 -0.2686
 5159W        W21293  18.596  17.907   4.256  0.0864  0.0029  0.0878
 5160W        W21294   2.918   0.298   4.467  0.0997 -0.2831  0.3075
 5161W        W21295  12.682   6.748   2.513  0.1172 -0.4119  0.0567
 5162W        W21296   7.433  11.067  10.860  0.2651 -0.2336  0.0697
 5163W        W21297  18.619   7.961   2.076 -0.1419  0.4386  0.2647
 5164W        W21298  17.954   0.780   4.424  0.2623  0.1427  0.1756
 5165W        W21299  15.882   8.048  12.462 -0.0731  0.1208 -0.0614
 5166W        W21300  13.967   9.785   3.623  0.0388 -0.0245 -0.3593
 5167W        W21301   2.188   3.532  15.131  0.2065 -0.1197  0.0914
 5168W        W21302   6.637  12.309  12.447  0.1368  0.1630  0.1708
 5169W        W21303   6.057  11.096   2.555 -0.2205 -0.3207  0.0464
 5170W        W21304   2.574  11.543   0.498  0.1085  0.3042 -0.1422
 5171W        W21305  14.912   7.863  12.654 -0.0814  0.1372 -0.2492
 5172W        W21306  11.757  13.035  12.989 -0.0520 -0.2635 -0.3805
 5173W        W21307  18.083   9.013  11.557  0.3247  0.1898 -0.1636
 5174W        W21308  18.376   0.450   0.935  0.1953  0.0478  0.0664
 5175W        W21309  15.109   9.781   1.134 -0.1188 -0.0221  0.1080
 5176W        W21310   9.991   5.373   1.236 -0.0721  0.2482 -0.1727
 5177W        W21311   9.930  11.824   0.283 -0.0640 -0.1329 -0.0744
 5178W        W21312   5.096  12.156  13.694  0.1494 -0.0717 -0.0181
 5179W        W21313   2.996   4.228   3.727  0.0853 -0.1471  0.2101
 5180W        W21314   9.213   0.200   2.080 -0.2281 -0.0665  0.1571
 5181W        W21315   2.088  16.866   9.820 -0.2088 -0.1749  0.0605
 5182W        W21316  12.295  11.332  11.576 -0.2202  0.0969  0.2393
 5183W        W21317   7.183  18.581   1.847  0.0134  0.1344  0.1557
 5184W        W21318  10.323   2.802   2.594 -0.0811  0.2323 -0.1670
 5185W        W21319   0.858  15.486   3.342 -0.1285  0.0109 -0.0096
 5186W        W21320   0.033  15.852  10.386  0.0512  0.0316  0.1630
 5187W        W21321   4.332   6.163   0.643  0.0049  0.2272 -0.0460
 5188W        W21322   9.421  11.544   4.695  0.2017  0.0826 -0.0201
 5189W        W21323   3.845  18.095  10.908  0.2524  0.3012  0.1506
 5190W        W21324   9.936  17.148  12.044 -0.2475  0.2154  0.1582
 5191W        W21325   7.591  14.003   3.877 -0.0783  0.1971 -0.1888
 5192W        W21326   5.305  18.022  15.173  0.2628  0.1872 -0.0315
 5193W        W21327   5.363   3.991  11.504  0.0129 -0.0864  0.4217
 5194W        W21328  15.489  11.162  12.855  0.1501  0.2643 -0.2214
 5195W        W21329   2.229   7.950   4.406 -0.1745 -0.3468  0.1915
 5196W        W21330  12.151  13.575   0.742  0.2401 -0.1131  0.0841
 5197W        W21331   7.331  17.328   1.658 -0.4762 -0.0642 -0.2727
 5198W        W21332  18.729  17.074  12.587 -0.1997  0.3155  0.1254
 5199W        W21333   5.550   4.869   3.852 -0.3483 -0.2275 -0.0850
 5200W        W21334   1.203   9.967  13.143  0.1438  0.0968 -0.1135
 5201W        W21335   1.561  16.392  12.348  0.0615  0.2486 -0.0720
 5202W        W21336   2.000   9.364   4.526  0.1745  0.1462 -0.2058
 5203W        W21337  12.363   9.389   4.912 -0.2388 -0.1152 -0.2428
 5204W        W21338   7.660   4.482   1.040 -0.0749  0.0035 -0.0409
 5205W        W21339   5.913   1.421  13.311  0.0689 -0.0392  0.1087
 5206W        W21340   4.908  14.425  13.177  0.4407  0.1417 -0.1016
 5207W        W21341   5.097   5.122  12.102  0.0782  0.0255  0.1108
 5208W        W21342  14.639  15.887   3.897 -0.0933  0.1278  0.1772
 5209W        W21343  13.791   6.158  14.261 -0.2663  0.0770  0.1213
 5210W        W21344  14.481   3.761  14.369 -0.1841 -0.3704 -0.2276
 5211W        W21345  15.480  14.019   5.691 -0.2657  0.3395  0.2299
 5212W        W21346  14.761   0.813   4.571 -0.2180  0.0883 -0.0031
 5213W        W21347  16.240   9.652   2.272 -0.0026 -0.1878 -0.0541
 5214W        W21348   4.082   7.719   2.090  0.1401 -0.2715  0.1550
 5215W        W21349   4.277   8.775   2.208  0.1669 -0.0262  0.0290
 5216W        W21350  17.464  14.681   4.556  0.0239  0.0096  0.1282
 5217W        W21351   3.685  16.307   4.956 -0.3916 -0.2367 -0.2304
 5218W        W21352  18.180  17.078  13.766 -0.2614 -0.4165 -0.2529
 5219W        W21353   5.727   5.800  10.706 -0.1947  0.1692  0.0250
 5220W        W21354   0.537  12.353   3.962 -0.1184 -0.0078 -0.1537
 5221W        W21355   9.839  17.532   3.978  0.1901 -0.0066 -0.1133
 5222W        W21356   0.908  17.653   6.105  0.4362 -0.1701  0.2170
 5223W        W21357   8.628   4.481  10.883  0.1667  0.1691  0.1492
 5224W        W21358   9.043   2.510  14.413  0.2658  0.1432 -0.3580
 5225W        W21359   3.441   1.452   4.710 -0.1623  0.0433 -0.2606
 5226W        W21360  13.254  15.973   1.720  0.0794 -0.0259  0.0471
 5227W        W21361  17.562   6.670  14.680  0.2550 -0.3840 -0.2944
 5228W        W21362  17.680   1.075  11.787  0.1811 -0.1476 -0.2954
 5229W        W21363  14.474   8.767  11.532 -0.0105  0.5034 -0.0001
 5230W        W21364  10.166   9.368   0.874  0.0919  0.2024 -0.3985
 5231W        W21365   7.080  18.185   4.639  0.2193 -0.1757 -0.1238
 5232W        W21366  18.114   4.484  15.135  0.0309  0.1916  0.1168
 5233W        W21367   4.678   0.055   0.127  0.2186  0.1627  0.1859
 5234W        W21368  10.495   7.240  15.283  0.0095  0.1740  0.1731
 5235W        W21369   3.684  18.199  14.655 -0.0528  0.0592 -0.1238
 5236W        W21370  18.618  13.807   2.522 -0.1596 -0.4420 -0.0731
 5237W        W21371  13.657  12.911  14.301  0.4248 -0.2443 -0.1206
 5238W        W21372  18.737  11.622  11.039 -0.1786 -0.0771  0.0574
 5239W        W21373   9.514  11.088  14.013  0.0604 -0.0905  0.1552
 5240W        W21374   5.631   8.836  14.378 -0.2236  0.0027  0.0765
 5241W        W21375  12.034  15.651  10.608 -0.3526  0.3884 -0.1840
 5242W        W21376  12.649  14.093   1.967  0.0368 -0.1266  0.0600
 5243W        W21377   8.737  18.574   3.233  0.3117 -0.1552  0.1129
 5244W        W21378  16.098   8.387  12.059  0.2846 -0.1865  0.1265
 5245W        W21379   1.506   1.883   1.865  0.0462 -0.1121 -0.0463
 5246W        W21380  13.678   6.042  11.898  0.1511  0.0666  0.3345
 5247W        W21381  15.872   0.463   9.919 -0.3062  0.0634 -0.0208
 5248W        W21382   6.583  18.593  13.630  0.2592  0.0426 -0.0137
 5249W        W21383   8.126  18.623   2.007 -0.3466  0.3326 -0.1256
 5250W        W21384  16.072   6.003   4.980  0.0162 -0.1362 -0.0591
 5251W        W21385   8.604  16.922   2.531 -0.0103 -0.2196 -0.3573
 5252W        W21386  10.498  16.925  12.712  0.0146  0.2145  0.2228
 5253W        W21387  15.507   1.514   1.161  0.2412  0.1680  0.0964
 5254W        W21388   0.333  13.187   5.496  0.4964  0.1705  0.2462
 5255W        W21389  16.910   6.684  13.328  0.0055 -0.1139  0.3019
 5256W        W21390  13.839  14.823  14.834  0.1874 -0.0944 -0.2040
 5257W        W21391   6.134  11.020   0.629  0.1146 -0.3140 -0.0613
 5258W        W21392  15.423   0.806   4.642 -0.1138 -0.1705  0.0084
 5259W        W21393   8.819   9.057   4.149  0.0627  0.1391 -0.1649
 5260W        W21394   7.164  13.646  14.174  0.0565 -0.5053 -0.1283
 5261W        W21395  17.429  10.606   2.947 -0.1605 -0.1919 -0.0632
 5262W        W21396   3.910  12.034  14.766 -0.1488 -0.0962 -0.0011
 5263W        W21397  16.355   3.669  14.681  0.1224  0.1060  0.2554
 5264W        W21398   8.052  16.807   4.547  0.0338 -0.0469  0.2024
 5265W        W21399   5.434  12.112   5.677  0.1171  0.0754  0.0469
 5266W        W21400   8.675   1.224  10.587  0.1205  0.1324 -0.1424
 5267W        W21401  10.705  12.785   1.701  0.2271  0.1203 -0.0064
 5268W        W21402   7.205   1.688   9.537  0.0583 -0.1782  0.2359
 5269W        W21403   2.142   7.941  12.168  0.0401  0.0630  0.0227
 5270W        W21404  11.392   2.134  13.937  0.1011 -0.2241  0.0609
 5271W        W21405   3.535  12.650   0.917  0.3665 -0.1252 -0.0161
 5272W        W21406  13.993  12.221   3.584 -0.0355  0.1243  0.2160
 5273W        W21407   3.275   3.805  13.017 -0.3062 -0.0644  0.1387
 5274W        W21408   2.519  18.223  11.431  0.0453 -0.2834  0.2148
 5275W        W21409   0.493   3.459   0.060 -0.3151 -0.2942 -0.3010
 5276W        W21410  13.603  14.715   0.381  0.2682  0.2767  0.2274
 5277W        W21411  13.386  15.046  13.783 -0.3367 -0.0639 -0.0493
 5278W        W21412   2.554  16.606   3.011  0.2354  0.2008 -0.0883
 5279W        W21413  13.907   9.094  12.985  0.0424  0.2397 -0.6084
 5280W        W21414   1.952  12.919   1.231 -0.1238  0.1520 -0.0633
 5281W        W21415   3.549  12.417   4.611 -0.1848 -0.1716  0.0137
 5282W        W21416  15.585   9.954   0.900  0.1461 -0.1848 -0.1182
 5283W        W21417   0.956   3.836  12.763 -0.1393  0.1275 -0.1309
 5284W        W21418  15.602  14.104   1.129 -0.1826  0.1121 -0.0057
 5285W        W21419  17.191  13.630  14.453  0.3189  0.0152  0.2335
 5286W        W21420   2.308   0.392  14.166 -0.1485  0.0375  0.1587
 5287W        W21421  12.702   7.470   2.853 -0.1546 -0.1313  0.0993
 5288W        W21422  15.342   7.590  15.167 -0.1097 -0.2244  0.3496
 5289W        W21423   7.627  17.796   1.424  0.0041 -0.5739 -0.0210
 5290W        W21424   6.394   1.764  14.167  0.1438  0.2277 -0.0915
 5291W        W21425   0.420   9.920   4.961  0.5594  0.1399  0.1010
 5292W        W21426   4.155  11.682  11.837  0.1754  0.0467  0.1550
 5293W        W21427  11.930   2.222   1.124  0.2608  0.1350 -0.3035
 5294W        W21428   1.830   6.280  12.819  0.0758  0.0965  0.0441
 5295W        W21429   5.507  13.481  13.925 -0.2176 -0.1003  0.4024
 5296W        W21430   1.784   7.745  13.213 -0.0488 -0.1896 -0.0364
 5297W        W21431   7.762  10.118   1.507 -0.3785  0.1094 -0.0944
 5298W        W21432   5.080   5.454   2.141  0.3955 -0.0690 -0.1854
 5299W        W21433  12.368   5.672  13.647  0.1002 -0.0799 -0.0773
 5300W        W21434   6.184  10.335  13.694  0.0407 -0.2040  0.0019
 5301W        W21435   7.106  17.532   4.965 -0.2653 -0.1772  0.0049
 5302W        W21436   2.525   9.191  15.038  0.0510  0.3277  0.1016
 5303W        W21437  12.491  16.755  14.019  0.0242 -0.0208 -0.1099
 5304W        W21438  12.184  13.184   4.959 -0.0134 -0.0289 -0.2018
 5305W        W21439   7.845  18.166  13.458  0.2808  0.1093  0.3848
 5306W        W21440  17.931   8.290   4.486 -0.1171 -0.2289  0.4577
 5307W        W21441   5.738   5.080   9.669 -0.1746  0.2476  0.0611
 5308W        W21442  10.446   5.993   3.959  0.1664  0.1031 -0.0236
 5309W        W21443   3.908   3.001  13.459  0.2907  0.1278 -0.3620
 5310W        W21444  16.247   7.841   0.709 -0.1776 -0.3061 -0.1219
 5311W        W21445   5.446   0.071   1.808  0.1322 -0.0307  0.0327
 5312W        W21446  13.646  11.611   2.212  0.0622 -0.2355 -0.2179
 5313W        W21447  10.568  10.776  13.606 -0.1338 -0.3351  0.1482
 5314W        W21448  16.004   6.374   6.014 -0.0094  0.1908  0.0820
 5315W        W21449  13.469   1.109   2.510  0.2281 -0.0345  0.2988
 5316W        W21450  14.884   4.444   4.367  0.0247  0.2414 -0.3453
 5317W        W21451  17.917  13.153   2.855  0.1076 -0.1388  0.1998
 5318W        W21452   0.667   4.258  14.730  0.0440  0.1214 -0.0605
 5319W        W21453   9.524   3.690   4.394  0.1694 -0.1253  0.0387
 5320W        W21454   1.201  12.186  12.249  0.1112  0.0289  0.0459
 5321W        W21455  15.757  11.216   0.342  0.1393 -0.1983  0.1821
 5322W        W21456   4.824   9.565  11.407  0.0937  0.2650 -0.0840
 5323W        W21457  12.387  12.199  14.604 -0.0855 -0.0735  0.0377
 5324W        W21458  11.163  11.418   5.020  0.0508 -0.2530 -0.1188
 5325W        W21459   1.936   6.819  13.073 -0.1055 -0.2917  0.1076
 5326W        W21460  18.885   5.077   2.111  0.1166 -0.0997 -0.0035
 5327W        W21461   4.123   3.803   2.634 -0.0881 -0.0118  0.1014
 5328W        W21462   7.078   5.624   4.371 -0.1898  0.0853  0.3287
 5329W        W21463  14.422   2.693   3.021  0.1243  0.1331 -0.0622
 5330W        W21464   5.342   2.061   9.965  0.2426 -0.3598 -0.2759
 5331W        W21465   7.777   7.657  14.379 -0.2117  0.0802  0.0065
 5332W        W21466   7.109   7.790  11.943  0.1433 -0.0142  0.0118
 5333W        W21467  10.454  10.119   4.670 -0.2256 -0.2899 -0.0201
 5334W        W21468  18.421  17.144  10.200 -0.2598 -0.1371 -0.0349
 5335W        W21469  17.163  17.281   4.747  0.0968 -0.0551  0.0372
 5336W        W21470  15.491  17.474   5.828  0.0666  0.3196 -0.0879
 5337W        W21471   8.412  10.012  11.808  0.1992  0.3459  0.1488
 5338W        W21472  12.158   8.178  13.717  0.1307 -0.4140 -0.0440
 5339W        W21473  14.592  13.129  13.117  0.1052  0.0057  0.1710
 5340W        W21474   1.050  13.227   1.498  0.0987 -0.0128 -0.1630
 5341W        W21475   2.425  13.362  11.687  0.2948  0.1417 -0.1367
 5342W        W21476  18.265   8.842  13.230  0.1520  0.2470  0.2656
 5343W        W21477   9.765  18.051  11.253 -0.1872  0.2967 -0.0444
 5344W        W21478  17.922  12.098  13.933 -0.2240  0.1747  0.3173
 5345W        W21479  15.590   4.585   1.564 -0.1470 -0.0368  0.1031
 5346W        W21480  17.888   5.176  10.296  0.0259  0.0281 -0.3286
 5347W        W21481  17.562  10.224   1.945  0.1073  0.2101 -0.0565
 5348W        W21482  12.233  14.064  10.385  0.0726  0.0988  0.1764
 5349W        W21483   5.248   3.200   2.046  0.1162 -0.0108 -0.1959
 5350W        W21484  16.885  11.692   5.128  0.1775  0.6362  0.3120
 5351W        W21485  14.992  14.302   2.260  0.2047 -0.0250  0.1020
 5352W        W21486  15.515  13.245  13.649  0.0598  0.2446 -0.0559
 5353W        W21487   7.825  16.783  14.201 -0.1744 -0.0556  0.0145
 5354W        W21488  13.950   4.416  14.885  0.0330  0.0751  0.0662
 5355W        W21489  15.249  14.996  14.963  0.3344 -0.0937  0.1647
 5356W        W21490   4.097   1.653  12.553  0.1216  0.2222  0.2384
 5357W        W21491   5.299  18.839  14.054 -0.1710  0.3415 -0.2773
 5358W        W21492  11.355  11.578   3.577 -0.1832  0.3830 -0.0661
 5359W        W21493   8.450  10.024  13.103 -0.1000  0.0938 -0.0496
 5360W        W21494   6.764   8.624   1.603  0.3739 -0.0983 -0.0334
 5361W        W21495   9.970  12.107  11.146 -0.1038 -0.0492  0.2635
 5362W        W21496   9.986   7.742   0.788  0.1531 -0.2283 -0.0341
 5363W        W21497  10.160   7.532   3.293  0.0422 -0.0370  0.1496
 5364W        W21498  13.778   8.913   1.518  0.2541  0.0155 -0.0905
 5365W        W21499   8.700   7.821  12.597  0.0646 -0.0433  0.2411
 5366W        W21500  18.714   6.619  11.893  0.2220 -0.1780 -0.0367
 5367W        W21501  18.527   5.800   5.273  0.2366 -0.4159 -0.2501
 5368W        W21502  14.437   1.301   1.919  0.0939 -0.1392 -0.2006
 5369W        W21503   5.169   5.173   9.671 -0.0959  0.1144  0.2551
 5370W        W21504  18.643  11.825  13.635  0.4069 -0.0942 -0.0535
 5371W        W21505   1.988   1.168  11.095 -0.0934 -0.0602 -0.3339
 5372W        W21506  15.330  10.679  12.639 -0.3110 -0.1584 -0.1258
 5373W        W21507  15.782  18.104  12.267  0.1231  0.1021 -0.0082
 5374W        W21508   9.877   5.955  14.724  0.3643  0.0226 -0.1114
 5375W        W21509   8.522  10.085  11.299 -0.0401  0.1996 -0.0782
 5376W        W21510  12.573   2.664  11.350  0.0966 -0.0090 -0.3379
 5377W        W21511   7.536   4.908   1.227 -0.1344 -0.1174  0.0197
 5378W        W21512   3.105   8.249   0.760 -0.0905  0.0058 -0.0665
 5379W        W21513   7.876  11.853  15.092  0.0789  0.2485  0.0180
 5380W        W21514  18.101  13.758  13.802 -0.1951  0.2690  0.0576
 5381W        W21515  14.600   4.679   2.171  0.0756  0.1035  0.2781
 5382W        W21516  10.821  17.702   0.513 -0.0348 -0.1813 -0.1218
 5383W        W21517   0.606   1.623   1.905 -0.1491 -0.2895  0.0362
 5384W        W21518   0.410  10.271   1.091  0.0598 -0.2491 -0.1302
 5385W        W21519  11.901   2.235   3.988 -0.3089 -0.0049  0.0989
 5386W        W21520   1.455   7.131   1.692  0.0891  0.0474  0.1148
 5387W        W21521  11.543   9.421  14.703  0.0181 -0.4619  0.2421
 5388W        W21522   2.320   6.306  10.414  0.1347  0.1983 -0.1463
 5389W        W21523   4.192  12.431  14.588  0.0943 -0.2045  0.1458
 5390W        W21524  13.194   0.102   4.283  0.1166  0.2100  0.0100
 5391W        W21525  11.636  13.426   4.411 -0.0088  0.0018  0.2455
 5392W        W21526  11.094   4.587  15.099 -0.0644  0.4494  0.2226
 5393W        W21527   3.414  10.240  12.322 -0.1145 -0.0992  0.1781
 5394W        W21528   3.303  10.819  14.803 -0.2559 -0.0123  0.3436
 5395W        W21529   6.803   6.646  11.390 -0.0163  0.0026  0.4101
 5396W        W21530  15.187  15.085  14.279  0.0179  0.1594 -0.0213
 5397W        W21531   2.731   2.277   2.754  0.0237 -0.3716 -0.0585
 5398W        W21532   5.150  13.185  11.837 -0.0246 -0.3795  0.0312
 5399W        W21533  16.944  13.787   3.258 -0.2578 -0.0390 -0.0856
 5400W        W21534   2.069   5.205   0.422  0.0329 -0.0264 -0.1226
 5401W        W21535   3.184  15.076  13.555 -0.1120 -0.1839 -0.2570
 5402W        W21536   7.472  18.431   4.895  0.2679  0.0455 -0.0387
 5403W        W21537   1.165   7.306  12.465 -0.3629  0.0169 -0.1010
 5404W        W21538  14.364  13.210  10.878 -0.1845 -0.0972 -0.1548
 5405W        W21539   3.685   5.715  11.050 -0.2002  0.0224  0.0439
 5406W        W21540   1.597   2.945  14.078 -0.3230  0.2470  0.2190
 5407W        W21541  10.268   1.305   3.924  0.1489  0.1777 -0.2973
 5408W        W21542   0.875   8.390   1.369  0.0951  0.3388  0.1583
 5409W        W21543  16.165   0.006   4.240 -0.1591 -0.3142 -0.3717
 5410W        W21544   9.932   6.163   9.343  0.0740  0.0829  0.0859
 5411W        W21545  10.837   5.597   3.876 -0.3018  0.1173 -0.5669
 5412W        W21546  13.069   1.311  15.173  0.1057  0.0223 -0.1860
 5413W        W21547   5.613  13.144  15.154 -0.0390 -0.0093 -0.0742
 5414W        W21548   8.894  13.509   3.806 -0.4456 -0.1975  0.3125
 5415W        W21549  18.679  17.700  15.068  0.0570  0.1861  0.1743
 5416W        W21550   9.407   1.130  14.101 -0.1224 -0.0596  0.4114
 5417W        W21551  17.487  15.340  10.828  0.2513 -0.2716 -0.3183
 5418W        W21552   7.359   1.448   0.610  0.4565 -0.2027  0.3699
 5419W        W21553   5.541   7.317   2.674  0.1368 -0.0591  0.1141
 5420W        W21554  17.131   6.011  12.831  0.0737  0.0883 -0.0678
 5421W        W21555  18.819  10.188  14.301 -0.0373 -0.0717  0.1122
 5422W        W21556   6.223  13.526   2.590 -0.1914 -0.0526 -0.3568
 5423W        W21557   7.859  18.058   1.926 -0.2792  0.2868 -0.3975
 5424W        W21558   6.296   4.064  11.379  0.0882  0.1367 -0.0219
 5425W        W21559  12.175  18.490   4.527  0.0646  0.2583 -0.0952
 5426W        W21560   4.021  18.164  12.298  0.0955 -0.0422 -0.2437
 5427W        W21561   7.218  10.272   2.796 -0.0033 -0.1924  0.0006
 5428W        W21562  16.486   5.054   3.092  0.0041 -0.2945  0.3046
 5429W        W21563   3.320   0.183   0.162 -0.2234  0.3962 -0.1834
 5430W        W21564   2.749  11.736  15.006 -0.1769 -0.0332  0.0096
 5431W        W21565  13.137   0.797  14.085  0.2584 -0.0979 -0.0291
 5432W        W21566   6.880   8.687   4.293  0.1594  0.0925  0.0624
 5433W        W21567  16.879   5.165   5.225 -0.1097  0.0320 -0.0824
 5434W        W21568   4.393  11.809   0.974 -0.2473 -0.2614 -0.0100
 5435W        W21569   5.968   5.073   4.037 -0.0904 -0.0820 -0.0666
 5436W        W21570   6.339   1.601   2.715 -0.0049  0.1675 -0.0628
 5437W        W21571   2.340  10.430  11.391  0.1402 -0.4797  0.2758
 5438W        W21572  18.474   8.741  14.476  0.3165 -0.0490  0.0080
 5439W        W21573  10.669   9.337  11.812  0.0358 -0.0583  0.1570
 5440W        W21574   8.231  11.696   0.764  0.0087  0.0246 -0.2165
 5441W        W21575  17.387   3.856   2.986 -0.3697 -0.0322 -0.2450
 5442W        W21576   9.787  11.681   2.225  0.1233 -0.1107  0.0658
 5443W        W21577  11.512   8.207   2.680 -0.0794 -0.0654 -0.1929
 5444W        W21578   9.507  15.609  11.221 -0.0949  0.0136 -0.3040
 5445W        W21579  13.874  10.656  14.456  0.2219 -0.1250  0.0857
 5446W        W21580   1.886  11.251  11.375 -0.0303 -0.1218  0.0414
 5447W        W21581  14.796   4.561   3.071 -0.2180  0.0400 -0.0962
 5448W        W21582   4.642  15.131  15.040  0.2352 -0.0171 -0.0396
 5449W        W21583   3.153   4.426  11.242 -0.2850 -0.3412 -0.0638
 5450W        W21584  13.476   5.597   2.695  0.1278  0.2761  0.0134
 5451W        W21585   4.297  17.091   3.492 -0.1145 -0.0302 -0.1653
 5452W        W21586   9.480   3.757  11.560  0.0074 -0.1026  0.0379
 5453W        W21587   6.883   3.359  14.910  0.2104 -0.2437 -0.2105
 5454W        W21588   9.126   7.846  15.090  0.2287 -0.1425  0.0844
 5455W        W21589   1.202   5.519  13.188 -0.0825 -0.1059 -0.1233
 5456W        W21590  14.028   4.266   4.529  0.2462 -0.1113 -0.1199
 5457W        W21591   2.427   4.038  15.139  0.0810  0.1595 -0.0511
 5458W        W21592   6.224  16.001  13.273  0.4153 -0.1119  0.3106
 5459W        W21593  11.080   0.123   2.695  0.1948  0.2314 -0.3547
 5460W        W21594   9.941  15.142   1.403 -0.0827 -0.2390 -0.0516
 5461W        W21595   5.062  15.934   4.054  0.1457 -0.2358 -0.2387
 5462W        W21596  10.663   0.554   0.186 -0.0923 -0.1257  0.2140
 5463W        W21597  15.302   2.628  12.918  0.0030 -0.0979  0.0126
 5464W        W21598  17.789  14.037   5.233 -0.1653 -0.1362 -0.5338
 5465W        W21599   1.754   9.492   0.550 -0.2415  0.2532 -0.2129
 5466W        W21600  10.537   5.476   0.817  0.1192 -0.1108 -0.1294
 5467W        W21601  14.787   8.840  12.415  0.0037  0.1770 -0.3199
 5468W        W21602  10.145  17.121   4.728  0.2174 -0.0607  0.4532
 5469W        W21603   2.520   3.756   4.221 -0.0300 -0.1254 -0.0796
 5470W        W21604   6.979  14.308   5.089  0.4467  0.1036  0.0842
 5471W        W21605   6.479  13.953  12.443  0.1047  0.2091 -0.1595
 5472W        W21606  10.525   1.942   2.204 -0.2959  0.2200 -0.2689
 5473W        W21607   5.191  11.114   3.587 -0.2814  0.3516 -0.1785
 5474W        W21608  15.934   4.349   2.826 -0.1271  0.3372 -0.0087
 5475W        W21609   6.769   9.782   2.326  0.0088  0.0996 -0.1342
 5476W        W21610   7.985   1.587   2.432 -0.1989 -0.2127 -0.2802
 5477W        W21611   4.953  18.859  11.367 -0.0520 -0.1419 -0.2820
 5478W        W21612  16.093   6.097   0.936  0.0019  0.0599 -0.1582
 5479W        W21613  12.873  15.169   1.212  0.3203  0.2944 -0.0814
 5480W        W21614  11.743  16.335   2.723 -0.0526 -0.1236 -0.0390
 5481W        W21615   6.124   5.078   0.629  0.1414  0.0536 -0.2579
 5482W        W21616   5.766  15.742  14.667  0.2475 -0.1534 -0.1283
 5483W        W21617  17.370  16.874  11.533 -0.1529 -0.1019  0.1831
 5484W        W21618   3.469   9.624   3.863  0.1000  0.0009 -0.1580
 5485W        W21619   6.118  17.803   2.354  0.0683 -0.1590  0.2758
 5486W        W21620   6.448   4.731  10.875 -0.0460 -0.1466 -0.6636
 5487W        W21621   2.261   3.975  12.317  0.3131  0.4200 -0.1494
 5488W        W21622  11.452  12.076   0.695  0.1822  0.2506 -0.0647
 5489W        W21623  12.322   5.187   1.380  0.2776 -0.1135  0.0584
 5490W        W21624  11.299  17.816  13.294  0.0119 -0.1116 -0.0263
 5491W        W21625   6.539  15.047   3.483  0.3456  0.0961  0.3121
 5492W        W21626   3.854   0.521  14.127 -0.2698  0.0004 -0.0419
 5493W        W21627  18.491  14.274  10.983  0.2194 -0.0090 -0.0857
 5494W        W21628   2.406  13.243   0.817  0.1170 -0.0743 -0.1882
 5495W        W21629   3.255   7.210  13.664 -0.0132 -0.0699  0.2172
 5496W        W21630   5.209   2.474   4.345  0.0323  0.1087  0.1971
 5497W        W21631   7.494   9.666  10.932  0.0230  0.1253 -0.2094
 5498W        W21632  10.837  15.486   5.794  0.3139  0.2982 -0.0541
 5499W        W21633  16.469   1.768  14.742  0.1067  0.0214 -0.1413
 5500W        W21634  15.739   1.496   2.066 -0.1760  0.3374 -0.1296
 5501W        W21635  16.959  12.723   0.342 -0.1040  0.1126  0.3706
 5502W        W21636  14.985   1.213  11.638  0.0318 -0.1483 -0.2179
 5503W        W21637  14.163   9.546   4.106  0.1063  0.0862  0.2112
 5504W        W21638   2.130   8.090  14.793  0.4950  0.3164 -0.1111
 5505W        W21639  15.369   5.034   4.920  0.1970 -0.0093 -0.0566
 5506W        W21640  13.249   8.207   4.880  0.0128 -0.1735  0.1486
 5507W        W21641   9.663   8.583   1.690  0.1266  0.0683  0.0121
 5508W        W21642  17.792  14.267  14.897 -0.0865  0.0203 -0.0187
 5509W        W21643   1.126  10.659   9.895 -0.1100  0.2690  0.0337
 5510W        W21644   3.050  12.328  13.870 -0.0247 -0.0831  0.0551
 5511W        W21645   0.932  10.386   0.943  0.3784 -0.1093  0.1073
 5512W        W21646   9.365   1.025   0.715 -0.1646  0.1743 -0.0343
 5513W        W21647  10.535   7.193  12.711 -0.0415  0.2405 -0.0968
 5514W        W21648   8.921  13.256  14.535 -0.0496  0.0355  0.0350
 5515W        W21649  17.271   4.110  12.319  0.0108 -0.2097  0.0401
 5516W        W21650   4.940   1.802   3.257 -0.1235  0.2053 -0.0460
 5517W        W21651   4.792   8.116   0.507 -0.1794  0.0203  0.1963
 5518W        W21652   8.219  14.513  11.428 -0.1632  0.2210  0.0382
 5519W        W21653   4.450   7.732  10.758 -0.0871 -0.1538 -0.2580
 5520W        W21654   2.152   0.523   4.436  0.2142  0.0349 -0.0513
 5521W        W21655  11.644  17.289   4.474 -0.2710  0.1262  0.0494
 5522W        W21656  12.407   3.245  13.722 -0.0226 -0.1995 -0.1802
 5523W        W21657   3.928   7.278   4.791  0.1272  0.2238 -0.0305
 5524W        W21658  14.831   7.602   1.428  0.0280  0.0612  0.1166
 5525W        W21659   8.293   7.167   2.917 -0.1802  0.2053 -0.1786
 5526W        W21660  15.929   6.767   5.012  0.0362  0.2456  0.2829
 5527W        W21661  13.731   8.548  12.126  0.0999 -0.2777  0.0754
 5528W        W21662   0.170  10.250   0.172  0.0006 -0.1926  0.1370
 5529W        W21663  10.759   8.355  14.613  0.1460 -0.0432  0.0052
 5530W        W21664   7.250   2.728  12.479 -0.2307  0.0278  0.0224
 5531W        W21665   4.980  15.810   0.042  0.1697  0.0348 -0.0835
 5532W        W21666   4.817  12.247  10.697  0.2302 -0.0775 -0.0462
 5533W        W21667   4.964  13.697   1.965 -0.0103  0.1044 -0.2698
 5534W        W21668   2.718  13.920  14.081 -0.0201 -0.1753  0.1689
 5535W        W21669  14.306  18.983  11.890 -0.2631 -0.2330  0.0231
 5536W        W21670  13.798  16.394  14.469  0.0119 -0.2770 -0.1422
 5537W        W21671  11.583  11.572   0.451  0.0351  0.0382 -0.1016
 5538W        W21672   6.755  14.413   0.203  0.1745 -0.0285 -0.1445
 5539W        W21673   0.662  17.822  14.182  0.0953 -0.0125 -0.0564
 5540W        W21674   1.858   5.814  15.047  0.2383 -0.1471  0.0405
 5541W        W21675  12.376  13.210  12.588 -0.1692 -0.0956  0.1735
 5542W        W21676   4.461  15.394   4.306 -0.1253  0.4910 -0.3526
 5543W        W21677   8.097  11.603   3.304 -0.2292 -0.0145 -0.3199
 5544W        W21678   2.244   0.416  10.483  0.1982  0.0573 -0.0839
 5545W        W21679   6.784   0.141  11.198  0.2416 -0.0800 -0.1428
 5546W        W21680   6.620   3.545  10.228  0.2806  0.3243 -0.0264
 5547W        W21681  15.140  13.840   2.527  0.0435 -0.0437  0.0720
 5548W        W21682  15.704  14.598   3.468 -0.1200 -0.0220 -0.3217
 5549W        W21683  13.318  15.106   2.557 -0.0209  0.2992  0.0910
 5550W        W21684   4.399   8.855  11.218  0.2813  0.2221 -0.1856
 5551W        W21685   1.057  11.001  12.730  0.0073  0.2330  0.1038
 5552W        W21686  12.582  14.416  15.144 -0.0705  0.0293 -0.0426
 5553W        W21687   6.573  17.791   9.386  0.0028  0.0145 -0.0726
 5554W        W21688  15.313  14.596  13.745  0.1585 -0.2525 -0.0466
 5555W        W21689   5.618   0.806  12.108 -0.1267  0.2761  0.1416
 5556W        W21690   8.374  10.610  14.599  0.0739 -0.1013  0.0524
 5557W        W21691  10.642  13.084  14.968  0.1207  0.4036  0.1372
 5558W        W21692   4.094   4.418  10.953  0.1384  0.1848  0.2615
 5559W        W21693  15.349   4.634  15.166  0.0299 -0.0369  0.1052
 5560W        W21694  10.124  14.609   2.932  0.1509 -0.0731 -0.1363
 5561W        W21695  13.693  17.324  10.763 -0.0640  0.1160 -0.1957
 5562W        W21696  11.299  18.635   4.610 -0.2648 -0.2619 -0.0917
 5563W        W21697   0.399  12.794   2.605 -0.1732 -0.0590  0.0436
 5564W        W21698  17.280  17.286  15.052  0.1566 -0.2302  0.0559
 5565W        W21699   1.416  14.102  10.432  0.1667 -0.0619 -0.0237
 5566W        W21700   8.834   6.150  14.945 -0.0340  0.1178 -0.3669
 5567W        W21701   6.986  10.887  12.466  0.0539 -0.0222 -0.0702
 5568W        W21702  18.222   3.149  14.817  0.0935  0.0895 -0.1565
 5569W        W21703   1.776  14.305  13.792 -0.0289 -0.1590 -0.1959
 5570W        W21704  11.990   4.364   4.410  0.1194  0.1425  0.0231
 5571W        W21705   3.286   7.707   3.456 -0.1369  0.0485  0.1027
 5572W        W21706  15.472  10.089  13.584 -0.0703  0.1663 -0.1282
 5573W        W21707  14.647  17.708   0.275 -0.0140 -0.1646  0.0062
 5574W        W21708   6.629   4.212   4.919  0.2181 -0.1666  0.4168
 5575W        W21709   6.241   9.798  15.209  0.1779  0.0176 -0.1182
 5576W        W21710  18.645  11.531   4.674  0.1100  0.0901  0.0305
 5577W        W21711   9.378  17.087   2.654  0.1729  0.0167  0.0771
 5578W        W21712  15.003   2.784  14.464 -0.2035 -0.0570  0.3106
 5579W        W21713   6.155  15.929   1.365 -0.1297 -0.2270 -0.2612
 5580W        W21714  13.662   3.626  12.917  0.2141 -0.0181 -0.1684
 5581W        W21715   5.626  15.089  14.351  0.1015 -0.0917 -0.1203
 5582W        W21716  10.892   6.768  13.519  0.2205 -0.1594 -0.0046
 5583W        W21717   9.571   6.122   1.493  0.3214  0.0053  0.2732
 5584W        W21718   7.308   2.816   3.498  0.0891 -0.0463  0.1756
 5585W        W21719  12.075  12.498   3.493  0.1022 -0.0615 -0.1866
 5586W        W21720  17.841   5.857  12.354 -0.1318 -0.0243  0.0434
 5587W        W21721  10.112  18.269   5.039  0.1863  0.1257  0.5092
 5588W        W21722   5.951   2.136   1.170  0.0137  0.2455 -0.3973
 5589W        W21723  17.495   1.855  13.511 -0.0374  0.2785 -0.3506
 5590W        W21724  15.943  11.603   0.096  0.1297  0.0476 -0.0754
 5591W        W21725   5.488   7.441  14.395 -0.2086  0.4852 -0.3987
 5592W        W21726  13.741   6.998   1.532  0.2021 -0.0526  0.0422
 5593W        W21727  17.221   7.753  12.073  0.1418  0.0126 -0.0978
 5594W        W21728  18.557   6.532   2.480  0.1073 -0.1931 -0.2934
 5595W        W21729   2.543  13.317  10.798  0.0667  0.3554  0.0618
 5596W        W21730   5.622  15.336  11.454  0.1368  0.2656  0.0648
 5597W        W21731   0.405  13.180   2.949  0.1193  0.2323  0.1651
 5598W        W21732   3.037   3.783   2.477  0.1330  0.0410  0.1127
 5599W        W21733  18.722   0.618  15.219  0.0006 -0.1067 -0.0043
 5600W        W21734  14.897  15.747  11.368  0.0258 -0.3466 -0.0873
 5601W        W21735   0.930   2.847  10.499  0.1051 -0.1906  0.2485
 5602W        W21736   7.626  17.057   4.266 -0.1945  0.0088  0.0629
 5603W        W21737  10.500  16.538  11.193  0.1251  0.2828  0.0979
 5604W        W21738   7.983  18.788  11.296  0.0511 -0.0342 -0.2544
 5605W        W21739  13.830  16.430  12.579  0.0611  0.0267 -0.0296
 5606W        W21740  12.950   5.494  13.584 -0.3599  0.3126  0.1082
 5607W        W21741   3.975   6.085  10.153  0.2183 -0.4269 -0.0590
 5608W        W21742   0.869   2.907   1.648  0.3240 -0.0027  0.2579
 5609W        W21743   3.412   4.589  12.587  0.0812  0.0757  0.1287
 5610W        W21744   6.910   2.673   1.746 -0.2118  0.0404 -0.1107
 5611W        W21745   1.828  11.606   3.905 -0.0726 -0.0417  0.0308
 5612W        W21746   9.332  15.719  12.910  0.0256  0.0226  0.1298
 5613W        W21747   5.151  10.342   1.859 -0.1987  0.5489  0.1326
 5614W        W21748   2.613   0.718   4.631  0.1207  0.3443  0.2388
 5615W        W21749  12.768   5.408  15.002 -0.2431 -0.2560 -0.1687
 5616W        W21750   8.429  17.771  12.641  0.0007 -0.1279 -0.1355
 5617W        W21751  12.517   6.988   4.067  0.2547  0.0910 -0.1537
 5618W        W21752   2.788  16.499  12.601  0.1657 -0.0005 -0.0216
 5619W        W21753   6.524  18.831   2.569 -0.2249 -0.4564 -0.2291
 5620W        W21754   4.352   5.416  12.272 -0.1028 -0.0096  0.4646
 5621W        W21755   5.203  15.940  13.914  0.1478  0.1426 -0.0442
 5622W        W21756   1.591  10.381  12.988  0.4519 -0.0153 -0.0033
 5623W        W21757  14.006   0.131   4.064 -0.3565  0.3206  0.3063
 5624W        W21758   9.162  15.777   0.081  0.2682 -0.0683 -0.2370
 5625W        W21759   8.468   5.546  15.174 -0.0871  0.0827 -0.2934
 5626W        W21760   0.696  10.530   1.463  0.1013  0.2674 -0.1097
 5627W        W21761  11.463  10.727   4.569  0.0754 -0.1148  0.0292
 5628W        W21762   6.108  18.853  10.629  0.0392 -0.1589 -0.1624
 5629W        W21763  10.232   6.013  13.254 -0.0149 -0.1375 -0.0370
 5630W        W21764   9.212  11.361  13.725 -0.1657  0.1919  0.2886
 5631W        W21765   1.316  17.575   1.512  0.3260  0.3414  0.1276
 5632W        W21766  12.612   0.667  15.149 -0.2045  0.1598 -0.2786
 5633W        W21767  17.018   7.645   3.967 -0.3464 -0.0025  0.1543
 5634W        W21768   3.861  15.774  10.767  0.0268 -0.1945  0.0838
 5635W        W21769   5.815  16.270  11.843 -0.0441 -0.0095 -0.0114
 5636W        W21770  18.716   1.288  11.444  0.3485 -0.2595 -0.1697
 5637W        W21771  17.874  16.982  12.233 -0.4541 -0.0952  0.0292
 5638W        W21772  15.234   3.274  15.126 -0.0453 -0.3065 -0.2248
 5639W        W21773   2.187   3.579   5.055 -0.3647  0.4277  0.0478
 5640W        W21774   6.179   1.922   0.408 -0.0442 -0.1432 -0.0012
 5641W        W21775  17.898   7.970  14.442 -0.3237  0.0691  0.1544
 5642W        W21776   2.319   3.249  13.758 -0.1894 -0.0646 -0.1924
 5643W        W21777   4.751  11.460   4.197 -0.0119 -0.1571  0.1132
 5644W        W21778  15.079  10.224  13.986  0.1949  0.0118 -0.0651
 5645W        W21779   4.620   1.610  12.666  0.0815  0.1081  0.0541
 5646W        W21780   1.923  16.798   4.584 -0.1355 -0.0791  0.2333
 5647W        W21781   3.819  11.201   3.776 -0.0491 -0.0279  0.1487
 5648W        W21782   4.465   0.195   4.428 -0.0806  0.2327  0.1893
 5649W        W21783  14.017  16.611  15.231 -0.3164 -0.1469  0.1923
 5650W        W21784   5.140   0.744   3.953  0.0560 -0.0160  0.4150
 5651W        W21785   3.134  11.608   4.291  0.1386  0.0177 -0.2583
 5652W        W21786  11.332   3.615   3.726 -0.0328  0.1920  0.0973
 5653W        W21787   9.584  17.660  12.150  0.3001  0.5375 -0.1782
 5654W        W21788  17.462   8.703   4.373  0.0725  0.3239 -0.0973
 5655W        W21789  16.709  13.297   1.029  0.3765 -0.0381 -0.1309
 5656W        W21790  16.228  15.487   2.695  0.0820 -0.2334 -0.0010
 5657W        W21791  13.006   9.955   4.703 -0.0448 -0.4037  0.1158
 5658W        W21792   6.816   0.447  12.331 -0.1448  0.2674  0.2053
 5659W        W21793   9.945  17.934  12.534  0.2294 -0.2875 -0.2548
 5660W        W21794   6.710   7.809  12.240 -0.3654  0.1236 -0.1398
 5661W        W21795  15.056   0.495   1.514  0.0495 -0.0690  0.0961
 5662W        W21796  15.873  12.730   4.737  0.0551 -0.2065 -0.0115
 5663W        W21797   5.238  12.992   5.171 -0.1717  0.4026 -0.1771
 5664W        W21798   2.316   4.414   4.809  0.0687 -0.4534  0.0155
 5665W        W21799  14.594  14.297  11.873 -0.0081 -0.0809 -0.0064
 5666W        W21800   8.003   8.731  12.524 -0.3290  0.1373 -0.2772
 5667W        W21801   1.973   4.241   1.940 -0.4132  0.4560  0.0152
 5668W        W21802   2.282   1.618  12.023  0.1367  0.0786  0.1251
 5669W        W21803  15.161   4.196   3.559 -0.1061  0.1038  0.3920
 5670W        W21804  15.726  17.831  14.282  0.4547  0.1156  0.0407
 5671W        W21805  11.880   5.554   1.392 -0.1126  0.4382 -0.2035
 5672W        W21806  14.370   6.657  13.464  0.4199  0.0167  0.1199
 5673W        W21807   1.644   9.486  14.653  0.1215 -0.2928 -0.2230
 5674W        W21808  18.758  15.760   2.812  0.2108  0.3965  0.1038
 5675W        W21809  16.276  10.582   1.085 -0.3286 -0.3117  0.2956
 5676W        W21810   5.240   7.144   0.981 -0.2837 -0.0044  0.0323
 5677W        W21811   6.523   4.081  15.233 -0.0375  0.1932  0.0296
 5678W        W21812   1.423  17.934   3.822 -0.1400 -0.0473 -0.1771
 5679W        W21813   3.269  14.608  11.174 -0.0966 -0.1657 -0.0628
 5680W        W21814  12.724  11.001   1.414  0.1749  0.1725  0.0550
 5681W        W21815   4.159   2.633  12.607 -0.1230 -0.0017  0.1286
 5682W        W21816  10.801   4.235  11.524 -0.1403  0.0967 -0.0075
 5683W        W21817  18.308   1.730   3.740 -0.0238 -0.2425  0.3910
 5684W        W21818   2.985   3.938   2.000 -0.0404 -0.2294 -0.2366
 5685W        W21819  12.021   1.668  12.998 -0.3122  0.3320  0.1566
 5686W        W21820   8.989  11.343  12.520  0.1528  0.0125 -0.0860
 5687W        W21821  13.125   9.814   2.302 -0.4411 -0.2174  0.1100
 5688W        W21822  18.788  12.017  11.945  0.3181  0.2993  0.0009
 5689W        W21823   2.498  11.781  11.158  0.1305 -0.2999 -0.2975
 5690W        W21824  13.525   9.365   4.638  0.0939  0.0513 -0.1751
 5691W        W21825  18.549  18.231   0.281  0.0421  0.1217 -0.1282
 5692W        W21826  14.460  16.293   1.971 -0.0124 -0.0415 -0.0918
 5693W        W21827   6.953  14.915   0.075 -0.1301 -0.0067 -0.0180
 5694W        W21828  12.428   4.018   3.846 -0.2161  0.0587 -0.1778
 5695W        W21829   4.309   0.760  15.023  0.1181 -0.0971 -0.0178
 5696W        W21830   6.152   3.633   1.524  0.0373  0.3081 -0.2530
 5697W        W21831  16.582  16.658   3.547  0.2314 -0.0798  0.2212
 5698W        W21832   5.056   5.365  10.129 -0.1881  0.2577  0.1444
 5699W        W21833   4.415   8.702  11.712  0.0347  0.1060 -0.0732
 5700W        W21834   3.630  18.014  13.275 -0.0830  0.2275  0.1760
 5701W        W21835  17.683  13.691  11.423  0.3673  0.1027  0.0518
 5702W        W21836  14.033  15.126   1.871  0.1483 -0.0931  0.0594
 5703W        W21837  14.223   6.841   1.659  0.0326 -0.3591 -0.2159
 5704W        W21838   3.359  18.646  14.041  0.0474 -0.1686 -0.1350
 5705W        W21839  17.973  11.296   2.194  0.0741 -0.1450  0.0042
 5706W        W21840  16.660  18.611   0.602  0.2299 -0.1325 -0.1653
 5707W        W21841  11.682  16.014   3.639 -0.0238 -0.0604  0.1100
 5708W        W21842  11.468   5.865   2.112  0.0907 -0.2082  0.2011
 5709W        W21843   5.024   6.096  14.353 -0.4079  0.0176 -0.1640
 5710W        W21844  11.849  13.598   1.625 -0.0460  0.2384 -0.0042
 5711W        W21845   5.108  10.385   0.645  0.0216  0.3412 -0.2122
 5712W        W21846  11.335  12.451  15.195 -0.0335 -0.0079 -0.0984
 5713W        W21847  17.804  12.145  10.483  0.4780 -0.2555 -0.0921
 5714W        W21848   1.432  15.632   2.363  0.1799  0.1025 -0.5031
 5715W        W21849   0.489   0.304  12.850  0.0879  0.0071 -0.1894
 5716W        W21850  13.277   9.500  11.480  0.0230 -0.1847 -0.2367
 5717W        W21851   1.101   8.598   4.896 -0.1135  0.0931  0.1401
 5718W        W21852   1.032  11.567   3.083  0.1417  0.2221 -0.0707
 5719W        W21853   4.904  16.435   5.218 -0.0268  0.3895  0.2140
 5720W        W21854  10.844   4.200  12.133 -0.1606  0.2015 -0.3380
 5721W        W21855  15.609   5.245  13.298 -0.1535 -0.0135  0.1247
 5722W        W21856   3.755  10.886   0.530  0.0020  0.0643 -0.2995
 5723W        W21857   9.574   6.833   4.215 -0.1042  0.1640  0.1638
 5724W        W21858  14.737  15.595   2.534  0.1648  0.0722  0.1629
 5725W        W21859   2.129   5.981  11.210  0.0256 -0.5643  0.1614
 5726W        W21860  12.006   5.371   9.502 -0.6120  0.2480  0.0462
 5727W        W21861   3.209   3.037   4.194 -0.1280  0.0511  0.2127
 5728W        W21862  11.569  17.853   4.425 -0.0822  0.1619  0.0391
 5729W        W21863   5.397   1.641   3.507  0.3546  0.2926  0.2095
 5730W        W21864   3.834  13.403   0.419 -0.2711  0.2065  0.0323
 5731W        W21865   2.932  11.651   5.099  0.1686  0.0807 -0.1228
 5732W        W21866   8.597  16.811   3.602  0.0481 -0.2098  0.0976
 5733W        W21867   0.461   3.507   3.846 -0.2165  0.1355  0.0784
 5734W        W21868   6.737  13.977   0.943  0.1414  0.0435  0.0671
 5735W        W21869  16.000   5.041  11.591 -0.0773  0.0398 -0.1535
 5736W        W21870  17.785   9.291   0.083  0.2844  0.0137  0.2666
 5737W        W21871   7.507   5.428  11.995 -0.3326 -0.0664  0.1301
 5738W        W21872  11.748   3.389   2.024 -0.2289 -0.2009  0.0754
 5739W        W21873  11.320   6.659   2.074 -0.1458  0.0348  0.1437
 5740W        W21874  13.829   3.403  13.849  0.0253  0.0841  0.1999
 5741W        W21875   2.208  15.155   5.858  0.0844 -0.0596 -0.0370
 5742W        W21876  18.689  10.219   4.519 -0.0996 -0.0427  0.0548
 5743W        W21877  13.270   3.746   0.447  0.0262  0.1883  0.1083
 5744W        W21878  10.345   4.204  11.599  0.0436 -0.0155 -0.0206
 5745W        W21879   5.919  10.667  12.341  0.0758 -0.1130 -0.2031
 5746W        W21880  17.801   6.716  11.860  0.0870 -0.3031 -0.2966
 5747W        W21881  18.045  17.577   4.339  0.3536 -0.1683  0.2369
 5748W        W21882  16.000   9.718   5.088  0.1205 -0.0514 -0.0112
 5749W        W21883   2.962  17.486   9.660 -0.0307  0.2364  0.0948
 5750W        W21884   3.500   8.130  15.214 -0.3422 -0.1575 -0.0143
 5751W        W21885   4.696  13.542   2.429  0.2411  0.1553  0.1860
 5752W        W21886   6.680  16.885   1.385  0.1341  0.1844  0.1617
 5753W        W21887   1.050   5.476  14.172  0.2854 -0.0710  0.0589
 5754W        W21888   7.833  16.548   1.934  0.4569  0.2090 -0.2061
 5755W        W21889  10.473   5.746   0.257 -0.2393  0.1026 -0.0695
 5756W        W21890  11.330   2.618  14.046  0.2201 -0.0951 -0.3801
 5757W        W21891   0.836   3.390   1.965 -0.0547  0.1610 -0.2331
 5758W        W21892   5.863  17.181  11.820  0.0896  0.3314  0.3202
 5759W        W21893  10.271  11.487   1.072  0.0900  0.2317 -0.3785
 5760W        W21894  16.534   5.473   5.506 -0.0173  0.1552 -0.0809
 5761W        W21895  16.970   8.214  11.982 -0.1360 -0.0684  0.1342
 5762W        W21896  13.577  12.126   0.702  0.3254 -0.0116 -0.2587
 5763W        W21897   5.062   1.563  14.542  0.2188  0.2673  0.1867
 5764W        W21898   3.625  13.572  13.655  0.0798  0.2268  0.1326
 5765W        W21899  15.337   9.007  11.635 -0.0941 -0.0219 -0.0374
 5766W        W21900   5.434  13.087   4.666 -0.0952 -0.2200  0.1354
 5767W        W21901   8.133  17.899  13.017 -0.0592 -0.1016 -0.0404
 5768W        W21902   8.364  18.066   4.779  0.1235 -0.2314  0.0234
 5769W        W21903  10.680   5.080   4.691 -0.2019 -0.0173  0.0955
 5770W        W21904   1.370  18.739  13.314  0.0828  0.0153  0.2696
 5771W        W21905   2.011  13.749   5.573 -0.2464  0.2569  0.2623
 5772W        W21906   9.365   8.662   2.788  0.0688 -0.1835 -0.1555
 5773W        W21907  15.785   6.037  14.029 -0.2063 -0.2076 -0.0533
 5774W        W21908   4.232   2.186   0.248  0.1230  0.0422 -0.0801
 5775W        W21909  12.472  12.667  14.361 -0.1538 -0.0294 -0.3986
 5776W        W21910   7.975  11.252  10.298  0.1005 -0.0214 -0.0499
 5777W        W21911  16.873  17.061   2.777  0.2065 -0.1280 -0.0715
 5778W        W21912   2.748  11.655  11.799 -0.0019  0.0806 -0.2179
 5779W        W21913   6.129   0.070  13.957 -0.0588  0.0253 -0.2169
 5780W        W21914  17.924   3.819   1.679  0.1918  0.0861 -0.2302
 5781W        W21915  10.795   4.552   0.861 -0.3833  0.0106 -0.2970
 5782W        W21916  15.388   4.072  12.442  0.3903 -0.3427 -0.1706
 5783W        W21917  18.662  12.154  11.422  0.0609  0.0614 -0.1557
 5784W        W21918   7.798  11.854   1.863 -0.0087 -0.0321  0.0948
 5785W        W21919  12.333  16.601   2.012  0.3733 -0.0473  0.1393
 5786W        W21920  16.976  18.669   3.723  0.1795  0.0052  0.0420
 5787W        W21921   5.747   9.060  10.358  0.4100  0.0787  0.2215
 5788W        W21922  16.449  13.323   2.228  0.1012 -0.1295  0.0834
 5789W        W21923  10.955  10.150   1.043 -0.3051 -0.0034  0.2489
 5790W        W21924  18.099   7.304   3.002 -0.0738 -0.4179  0.0178
 5791W        W21925  16.692   6.795   2.489  0.1022 -0.2032 -0.2839
 5792W        W21926   6.656   8.160  11.836  0.0134  0.2653 -0.0014
 5793W        W21927   5.037   0.150  12.577  0.0653 -0.2197  0.2145
 5794W        W21928  11.139   1.365  14.321  0.1226  0.0763  0.1341
 5795W        W21929  16.331  13.263   9.481  0.1413  0.3556  0.1640
 5796W        W21930  14.274   6.011  14.184  0.1444  0.0596 -0.2991
 5797W        W21931   0.371   5.589   0.697 -0.0858 -0.3281  0.5485
 5798W        W21932  13.449  13.612   2.352 -0.2300  0.2063  0.1139
 5799W        W21933   0.401   9.473  13.676 -0.0463  0.4644  0.0082
 5800W        W21934  16.926  10.559  13.866  0.0653  0.1755  0.2166
 5801W        W21935   8.650   3.938  13.152  0.2073 -0.1194 -0.0444
 5802W        W21936   5.541  10.520  12.025 -0.0409 -0.0184 -0.1632
 5803W        W21937   3.589   5.319  12.883 -0.0321 -0.1221  0.2268
 5804W        W21938   1.222   4.230   5.005  0.3179 -0.0594 -0.0554
 5805W        W21939  13.952  13.780   2.698  0.6246  0.0592  0.0629
 5806W        W21940  12.537  17.270   4.799  0.0005 -0.2125 -0.2258
 5807W        W21941   3.256  11.452  12.012  0.0569  0.0054 -0.0966
 5808W        W21942  12.745  18.208  12.824 -0.0006  0.0503 -0.1088
 5809W        W21943  17.388   0.595  13.272  0.0802 -0.0308 -0.2879
 5810W        W21944   2.357   7.563   3.136 -0.2296 -0.2010 -0.2518
 5811W        W21945  17.550  12.384  10.868 -0.1170 -0.2765 -0.4420
 5812W        W21946  17.234   4.620   3.320 -0.2488 -0.1371  0.0678
 5813W        W21947  11.906   4.804   4.221 -0.1238  0.3524 -0.0075
 5814W        W21948  10.874   1.068   2.265  0.0869 -0.3312  0.1538
 5815W        W21949   4.814   1.257  11.686 -0.1135 -0.1773 -0.3039
 5816W        W21950   9.677   6.085  11.093 -0.0425  0.0400 -0.0109
 5817W        W21951  15.554  11.711   5.214 -0.1755 -0.0931  0.1753
 5818W        W21952  12.421  16.295  13.880  0.0914  0.0316  0.2037
 5819W        W21953  17.587   4.274   4.281  0.0414  0.0088  0.0178
 5820W        W21954   9.031  17.001   3.697 -0.0111 -0.0534 -0.4564
 5821W        W21955  16.283   3.237   1.257  0.0893  0.0317 -0.5878
 5822W        W21956  16.415   1.097  11.145  0.0236 -0.0843  0.0051
 5823W        W21957  10.632  18.243   0.092 -0.1759 -0.0299 -0.2094
 5824W        W21958  17.116   2.293   3.943 -0.2353 -0.0916 -0.1122
 5825W        W21959  17.280   1.335  11.117 -0.1166 -0.0867 -0.0769
 5826W        W21960   8.271   2.917   0.552 -0.1293  0.0005  0.2085
 5827W        W21961   1.877   1.241  10.595  0.3478 -0.1174  0.1430
 5828W        W21962   1.755  12.484   1.424 -0.2733 -0.0203  0.1706
 5829W        W21963   2.559   0.147  12.070  0.1816  0.1618 -0.2698
 5830W        W21964  18.236  18.867  14.230 -0.1036  0.1493 -0.0147
 5831W        W21965   4.696  13.924  14.237  0.0757 -0.1559 -0.1022
 5832W        W21966  15.332  17.930  13.864  0.2158  0.2212 -0.3573
 5833W        W21967   9.915   6.685   2.307  0.1082  0.2130  0.0407
 5834W        W21968   4.652  16.109  12.594 -0.0520  0.3792 -0.0264
 5835W        W21969  15.691  15.081  11.637  0.0060 -0.1255 -0.1068
 5836W        W21970   2.059  16.861  13.662 -0.1284  0.2398  0.0835
 5837W        W21971  13.011   5.545   3.821 -0.0503 -0.1990  0.0063
 5838W        W21972  17.186  18.533   3.296  0.2919  0.0240  0.1751
 5839W        W21973  12.183   5.315   4.454  0.0045  0.2506  0.0947
 5840W        W21974   0.238   3.308  12.382  0.3845 -0.2435 -0.0154
 5841W        W21975  16.123   1.950   5.206 -0.3947 -0.2891 -0.0210
 5842W        W21976   9.743  16.100   4.936 -0.0431 -0.1041  0.2732
 5843W        W21977  17.088  18.291   0.497  0.0298 -0.1117  0.2916
 5844W        W21978  10.915   9.711   2.649 -0.0016 -0.0699 -0.1055
 5845W        W21979  12.185  14.861  12.327  0.0724  0.1011 -0.3374
 5846W        W21980   0.382  16.897   0.364  0.1195  0.0638  0.0441
 5847W        W21981  13.359  16.603  14.601 -0.0814 -0.0962  0.1629
 5848W        W21982   0.387   4.219   5.026  0.2430  0.2704  0.3683
 5849W        W21983   6.408  17.492  14.544 -0.1690  0.0942  0.3751
 5850W        W21984   1.117   2.792  13.184  0.1163  0.1326  0.2383
 5851W        W21985  10.632   2.854   3.002 -0.0095  0.0120 -0.2020
 5852W        W21986  18.685   6.477   3.737 -0.0723 -0.2934  0.1330
 5853W        W21987   1.092  12.238   1.688 -0.3443 -0.1549  0.0449
 5854W        W21988   5.465  10.510   3.634  0.0793  0.1198 -0.1015
 5855W        W21989   6.210  17.016   4.733 -0.1915  0.2763 -0.1721
 5856W        W21990  18.004   1.622   4.371 -0.2030 -0.4325  0.1107
 5857W        W21991   5.800   1.023  14.067 -0.2585  0.1299 -0.2117
 5858W        W21992   6.505   5.338  12.008  0.0277 -0.1482 -0.1999
 5859W        W21993  12.723   1.700   2.338 -0.0664  0.0074  0.0157
 5860W        W21994  17.801   1.535   3.774 -0.0587  0.2499  0.0422
 5861W        W21995  15.503   2.687  11.964 -0.3132  0.2162  0.0144
 5862W        W21996   5.919  14.740  14.695  0.0945 -0.2301  0.3290
 5863W        W21997  14.391   7.273  14.878  0.0889 -0.0083  0.1658
 5864W        W21998  15.901   5.597  14.188 -0.0940  0.1353  0.0423
 5865W        W21999  14.159   0.782   9.624  0.0384  0.1481 -0.0119
 5866W        W22000  16.959  14.568  11.380  0.0119 -0.0597  0.0198
 5867W        W22001   0.346  15.852  13.861  0.0374 -0.1653 -0.1426
 5868W        W22002   8.147   3.162   4.624  0.1140  0.1277  0.2636
 5869W        W22003   2.122  16.447   4.310  0.1906 -0.1567 -0.3342
 5870W        W22004  11.088   6.304  12.282  0.2839  0.1294 -0.1566
 5871W        W22005  13.858   3.184  11.846  0.2506  0.3318  0.0946
 5872W        W22006  13.128  10.092  12.225  0.0357  0.2409 -0.0327
 5873W        W22007   2.546   5.877  12.634 -0.1963  0.1657  0.1955
 5874W        W22008   0.296   4.586  14.565 -0.2147 -0.0090  0.0024
 5875W        W22009  10.015  16.875  10.429  0.1325 -0.2339  0.1486
 5876W        W22010   1.077   6.828  13.974 -0.0479 -0.0946 -0.1431
 5877W        W22011  18.182  14.832   1.594  0.0539 -0.2267 -0.2458
 5878W        W22012   0.192  18.512  13.255  0.3388 -0.0307 -0.1507
 5879W        W22013  12.283  15.516   1.447  0.0641  0.3187 -0.0998
 5880W        W22014   1.300   8.026  13.217  0.1446 -0.1173 -0.0400
 5881W        W22015  12.500   0.760   3.075 -0.0653 -0.1666 -0.0886
 5882W        W22016  12.430   1.224  12.205 -0.0383  0.0059  0.0793
 5883W        W22017  16.897   7.637  14.247  0.1796 -0.2119 -0.3741
 5884W        W22018  10.451   3.971  14.450  0.3792 -0.0556 -0.2032
 5885W        W22019   8.394  12.038  12.427 -0.2569  0.1031 -0.1187
 5886W        W22020   5.536   8.378   3.686 -0.0987  0.2499  0.2032
 5887W        W22021   7.924   9.361  10.729 -0.1846 -0.2139  0.2119
 5888W        W22022  15.160  15.166  10.629 -0.0307  0.2718 -0.1749
 5889W        W22023  17.181  17.271   3.177 -0.2310  0.0461 -0.1229
 5890W        W22024   5.436  13.208  12.964 -0.2072  0.1193 -0.2365
 5891W        W22025   8.559   5.785   3.202  0.1265  0.1053  0.2759
 5892W        W22026  14.521  18.450  14.312 -0.1759  0.2352 -0.3369
 5893W        W22027  15.138  17.318  15.109 -0.1506  0.0791 -0.2869
 5894W        W22028  14.172  18.919   2.903  0.1959  0.0570 -0.3825
 5895W        W22029  12.476  14.131  14.752 -0.0879 -0.1224  0.0961
 5896W        W22030   6.479  13.552   4.443 -0.3315  0.0851 -0.0993
 5897W        W22031   8.149   7.153   2.467 -0.0436  0.3384  0.0699
 5898W        W22032   2.756   3.590  10.914  0.1205 -0.0093 -0.0697
 5899W        W22033   6.127  15.836   3.759 -0.2354  0.0021 -0.1062
 5900W        W22034   5.711  18.227   3.548  0.0522 -0.0390 -0.0951
 5901W        W22035   2.425   1.012  12.899  0.1178 -0.1150  0.2943
 5902W        W22036  10.904   6.858   4.056 -0.0156  0.1809 -0.0104
 5903W        W22037   3.191   1.453   9.437  0.3585  0.3030  0.0908
 5904W        W22038   0.839   2.673  14.365 -0.1839  0.2539  0.1511
 5905W        W22039  12.121  17.116   3.112 -0.0583  0.0169  0.0958
 5906W        W22040   3.342   6.635   3.090 -0.1098  0.0000 -0.1811
 5907W        W22041  14.129   0.488  10.582  0.1339  0.0875  0.0700
 5908W        W22042   1.752  15.032   1.803 -0.0989 -0.0805 -0.1803
 5909W        W22043  11.307   9.435   2.394 -0.2312  0.3309  0.2515
 5910W        W22044  10.240   5.639  14.651 -0.0143  0.1817  0.2619
 5911W        W22045   5.610   5.103   0.485 -0.1074 -0.1800 -0.1375
 5912W        W22046  15.075   3.529   2.089  0.0293  0.2396 -0.0205
 5913W        W22047  12.656  11.186  13.812 -0.0614  0.3102  0.0380
 5914W        W22048   5.891   3.012   0.844  0.2075 -0.3826 -0.0026
 5915W        W22049   7.065   4.396  10.705  0.0359  0.0549 -0.2730
 5916W        W22050   3.721  17.764   4.748 -0.1172  0.0236  0.0481
 5917W        W22051   4.639   7.126  12.817 -0.0467 -0.1184 -0.3315
 5918W        W22052   1.391  14.225  12.899 -0.0197  0.2704 -0.1357
 5919W        W22053  16.685  12.231   1.896 -0.2091 -0.1592  0.1221
 5920W        W22054  12.636   0.866  13.552  0.0782 -0.1466  0.0805
 5921W        W22055  15.581  13.045  12.622 -0.0967 -0.1767  0.0488
 5922W        W22056   1.847  15.545  11.920 -0.1712  0.2563 -0.0272
 5923W        W22057   8.573  18.226   5.223 -0.1813 -0.3138 -0.0740
 5924W        W22058  12.106  15.316   2.583  0.3125 -0.0742 -0.2343
 5925W        W22059  14.725   7.762  13.529 -0.0367  0.3267 -0.1789
 5926W        W22060  17.231  17.721   4.552  0.2729  0.1542 -0.0950
 5927W        W22061  11.437  13.631  12.416  0.5222  0.0165 -0.1375
 5928W        W22062  10.620   4.761   0.012  0.0952 -0.3243  0.1308
 5929W        W22063   2.983  11.304  12.994  0.1737  0.0840  0.0664
 5930W        W22064  15.941   3.028   4.951  0.0559 -0.0340  0.2635
 5931W        W22065   3.648  17.392   1.336 -0.2429 -0.0009 -0.0273
 5932W        W22066   7.970  18.818   1.366 -0.2274  0.3502 -0.0173
 5933W        W22067   3.896   6.905  12.503 -0.3678  0.0739  0.1299
 5934W        W22068   0.092  18.142  14.368  0.2523 -0.2237  0.0357
 5935W        W22069  11.232   0.191  12.772  0.0805  0.0481 -0.0019
 5936W        W22070   7.173  15.680   2.142 -0.1214  0.2394 -0.0977
 5937W        W22071   3.342   0.831   0.181  0.1655 -0.1221  0.0532
 5938W        W22072   9.477   9.394  13.769 -0.3833 -0.0123 -0.2817
 5939W        W22073   1.630   2.281  11.920  0.2192 -0.1940  0.0808
 5940W        W22074  10.285   3.323  11.879 -0.0187 -0.1523  0.0133
 5941W        W22075   6.202   8.929  15.253  0.2597 -0.1731 -0.0989
 5942W        W22076   1.215   7.448  11.177 -0.2297 -0.0279  0.1956
 5943W        W22077   0.438   6.434  10.954 -0.0457  0.0084 -0.1652
 5944W        W22078  14.111  14.769   0.538 -0.0631 -0.1290 -0.2991
 5945W        W22079  11.793   9.758   2.242 -0.3238  0.1604  0.1763
 5946W        W22080   6.957   2.640   0.731  0.1074  0.3007 -0.0096
 5947W        W22081   1.323   7.945   5.717  0.2292 -0.1123 -0.3792
 5948W        W22082  10.801   2.145  15.026 -0.3453  0.1201  0.0138
 5949W        W22083  18.331   1.596  13.653 -0.3228 -0.1670 -0.0638
 5950W        W22084  10.285   7.026  13.475  0.2813 -0.2386  0.4264
 5951W        W22085  14.077   6.608  12.576  0.2623  0.0443  0.1691
 5952W        W22086   5.867  10.782   5.387  0.1045 -0.0670  0.0869
 5953W        W22087   4.440  13.580  11.240 -0.2691 -0.2616 -0.1760
 5954W        W22088  17.501   6.370   2.971 -0.1401 -0.1123 -0.0328
 5955W        W22089   1.665  17.000   4.191  0.1019  0.3277  0.1927
 5956W        W22090  18.367   8.244  12.114 -0.0460 -0.1015  0.4829
 5957W        W22091   7.884  18.117   5.016  0.0625  0.0803  0.0602
 5958W        W22092  10.904   4.026  12.853  0.3898  0.1339  0.0290
 5959W        W22093   3.150   4.240  14.504  0.1102 -0.2479  0.3831
 5960W        W22094   6.451   0.872  11.581  0.0437 -0.0426 -0.0961
 5961W        W22095  12.068   3.654  11.339 -0.1045 -0.0039 -0.2648
 5962W        W22096  10.481   3.869   0.131 -0.2461  0.1066 -0.0639
 5963W        W22097   9.990  14.310  10.912  0.1741  0.0848 -0.1771
 5964W        W22098  13.540  12.784  14.817 -0.0026 -0.2455 -0.0056
 5965W        W22099   2.687   5.112  14.042  0.1497  0.2169 -0.1597
 5966W        W22100  14.157   1.474  13.174  0.1434 -0.0074 -0.2315
 5967W        W22101   7.157  18.799  11.355  0.0931 -0.1560 -0.2058
 5968W        W22102  10.079  10.742   9.523  0.0038  0.2105  0.0409
 5969W        W22103  17.981  13.962  14.441  0.1111 -0.2144  0.4872
 5970W        W22104   3.942   4.474   4.671 -0.0107  0.2814 -0.0076
 5971W        W22105  10.437  12.667   3.362 -0.3751  0.0609 -0.1764
 5972W        W22106   3.669   6.451   4.039 -0.4490  0.3108  0.1604
 5973W        W22107   1.127  11.670  14.328  0.1147  0.2666 -0.1080
 5974W        W22108  11.942  10.807   4.728  0.2693 -0.0072  0.0271
 5975W        W22109   0.722   7.206  13.262 -0.0519  0.0058  0.0676
 5976W        W22110  11.406  13.352   0.182  0.3878 -0.0610 -0.0421
 5977W        W22111  17.603  11.647   0.823 -0.1027 -0.0638 -0.0652
 5978W        W22112  15.034   0.057  14.740  0.1641 -0.0984  0.0377
 5979W        W22113   7.654   4.824   0.673  0.0831  0.3299  0.4338
 5980W        W22114  18.126   8.438   0.400 -0.0649  0.2283 -0.0210
 5981W        W22115   4.350  17.417  10.919 -0.1529  0.0875  0.0399
 5982W        W22116   0.997  10.327  15.064 -0.0916  0.2670  0.2470
 5983W        W22117  12.000  15.501   0.939 -0.2441 -0.0806 -0.1142
 5984W        W22118  12.684   0.320   4.127  0.1732 -0.0733 -0.1344
 5985W        W22119  16.726  15.389   4.582 -0.0226  0.1274 -0.1742
 5986W        W22120  12.658   0.244  12.266 -0.2615 -0.0396  0.3821
 5987W        W22121  10.884  14.845  15.148  0.2895  0.0701 -0.2534
 5988W        W22122  13.757   2.983   3.850  0.0738  0.3396 -0.3004
 5989W        W22123  16.665  13.181  11.428  0.1793  0.1714 -0.1390
 5990W        W22124   5.979  11.817   2.678 -0.0516  0.3794 -0.0690
 5991W        W22125  11.561  14.489  14.223 -0.0411  0.3308  0.0629
 5992W        W22126   8.415  17.790   0.567  0.1757  0.0887 -0.2333
 5993W        W22127  18.938   2.765   0.159 -0.6655 -0.2098  0.3029
 5994W        W22128  16.123  17.057   5.616  0.1478  0.1620  0.0822
 5995W        W22129  14.997   3.941  10.943  0.0097  0.1457 -0.0135
 5996W        W22130  17.609   1.740   4.749  0.1200 -0.2595 -0.3107
 5997W        W22131   2.079  10.919   3.471 -0.0758  0.0065 -0.2815
 5998W        W22132  15.441  13.726  13.424 -0.0130 -0.1347 -0.0642
 5999W        W22133  15.693   6.487  10.972  0.1141  0.2178  0.0851
 6000W        W22134  15.349   8.434  11.890 -0.1402  0.0081  0.0465
 6001W        W22135   0.487   3.466  10.997  0.0023 -0.1661 -0.2002
 6002W        W22136   9.410   7.944  14.173  0.2836  0.3390  0.0912
 6003W        W22137   7.153  18.366  11.085  0.2395  0.0928 -0.0335
 6004W        W22138  10.009   5.990   4.604  0.2732  0.0623  0.1875
 6005W        W22139  11.258   6.964  14.754  0.0781 -0.0886 -0.0228
 6006W        W22140  11.170   0.692   4.664  0.3244 -0.0787 -0.2278
 6007W        W22141   6.517  13.318   0.217 -0.0713  0.3910 -0.0597
 6008W        W22142  13.779   5.900  13.243 -0.0108  0.0202  0.0035
 6009W        W22143  14.136  13.686   5.355 -0.0341 -0.0008  0.1379
 6010W        W22144   1.666  11.640   2.107  0.1226 -0.0047 -0.0023
 6011W        W22145   2.623   4.547   1.490 -0.0224  0.1488  0.0727
 6012W        W22146   7.474   0.737   4.530 -0.0711 -0.0068  0.0057
 6013W        W22147   2.468   6.361  14.344  0.1863  0.0317 -0.1164
 6014W        W22148  14.638  14.324   4.363  0.1946  0.0996 -0.0314
 6015W        W22149  14.033   7.455  13.116  0.2158  0.1450 -0.0099
 6016W        W22150   3.070  10.762   4.080  0.3114  0.1673  0.1887
 6017W        W22151  17.039  10.382  10.484 -0.0772  0.1962  0.2500
 6018W        W22152  17.477  13.759   3.575 -0.1758 -0.0486 -0.2892
 6019W        W22153   4.737   2.504   4.201  0.0383  0.0735 -0.2170
 6020W        W22154  10.336   4.060   5.115  0.2022 -0.2565  0.0383
 6021W        W22155   7.293  15.046   4.378  0.1404  0.1461 -0.5027
 6022W        W22156  10.251   4.735   3.834  0.0807  0.0311 -0.2140
 6023W        W22157  11.561  16.929  11.638 -0.2385 -0.0736 -0.0352
 6024W        W22158  12.371   0.950  11.457  0.1391 -0.0961  0.2642
 6025W        W22159   1.766  11.129   0.817  0.2376 -0.1519  0.0396
 6026W        W22160   9.978   3.517   4.397  0.1145 -0.0371 -0.0922
 6027W        W22161   8.173   4.163   4.552  0.2491 -0.3509  0.1116
 6028W        W22162   8.134  13.993  12.583 -0.2328 -0.2870  0.1102
 6029W        W22163  14.725   7.662  11.778 -0.0698  0.1419  0.1563
 6030W        W22164  12.063   3.899   2.623  0.1822  0.1802  0.2840
 6031W        W22165   0.592  14.797  11.473  0.0756  0.1299 -0.1133
 6032W        W22166   0.703   4.899   5.076  0.0318 -0.4669  0.0282
 6033W        W22167  17.743   9.041  10.960  0.0358  0.1143  0.2593
 6034W        W22168   2.042   9.324  12.100 -0.1511 -0.0810  0.1509
 6035W        W22169   4.606  15.982   0.976  0.0337  0.1879 -0.0371
 6036W        W22170  12.542  11.616  13.709  0.1524 -0.1214 -0.1318
 6037W        W22171  15.740   5.262  11.972  0.1828 -0.2387  0.4037
 6038W        W22172  12.364  17.603  14.635 -0.3446 -0.4722  0.0421
 6039W        W22173  11.865   6.164   2.254  0.1829  0.1035  0.3263
 6040W        W22174  12.436  11.489  11.112  0.1260  0.4287 -0.2854
 6041W        W22175  18.011  13.545   1.744  0.1475 -0.0409 -0.4031
 6042W        W22176  15.004   5.822   4.015  0.1490  0.3431  0.0461
 6043W        W22177  14.578   6.158   2.182 -0.5573  0.0555  0.0269
 6044W        W22178   7.419   4.009  14.032 -0.0775  0.1959  0.0505
 6045W        W22179   5.045  18.783   3.381  0.1415  0.1048 -0.0245
 6046W        W22180  16.781   8.518  10.538  0.2717 -0.2168 -0.0793
 6047W        W22181  11.803   2.893   2.149 -0.4121 -0.0453 -0.0638
 6048W        W22182  16.818   5.922   0.408  0.1409  0.1852 -0.0712
 6049W        W22183  12.069  17.926  13.576 -0.0533  0.5005  0.0812
 6050W        W22184   5.289   0.159   1.301 -0.0223  0.1259  0.2613
 6051W        W22185   7.685   2.366  11.064  0.2117  0.1959  0.1261
 6052W        W22186   1.810   0.314   4.855  0.1047 -0.0084 -0.1128
 6053W        W22187  18.979   2.297  11.231 -0.0613  0.0734  0.0036
 6054W        W22188   3.087  14.082  11.145 -0.1540 -0.0657  0.1014
 6055W        W22189  13.800   8.048  12.056 -0.1991  0.2805 -0.1271
 6056W        W22190   0.451  15.714  12.181  0.2539 -0.0487 -0.1226
 6057W        W22191  16.784  17.490  11.230  0.1136  0.1205  0.0910
 6058W        W22192  14.426   6.390  14.907 -0.1408 -0.1556 -0.1382
 6059W        W22193   8.746  15.553   3.016 -0.1663  0.2386  0.0158
 6060W        W22194  13.722   1.631  13.056 -0.0724 -0.3916  0.0463
 6061W        W22195  11.565   1.362  13.026  0.1134 -0.0086  0.1854
 6062W        W22196  13.547   8.105   0.819  0.0171 -0.1733 -0.0975
 6063W        W22197   8.467   3.563   5.156  0.1384  0.0534  0.0192
 6064W        W22198   4.662   6.311   3.625 -0.0554  0.1382 -0.0760
 6065W        W22199   2.711   1.392   0.139 -0.2752 -0.0712  0.1356
 6066W        W22200  16.560   3.813   1.246 -0.1581 -0.2093  0.1696
 6067W        W22201  11.109  14.596  11.731  0.1060  0.1484  0.2382
 6068W        W22202  17.331  12.021   0.958  0.3489 -0.3720 -0.4363
 6069W        W22203   1.098   2.331  12.290  0.0155 -0.0509 -0.1573
 6070W        W22204   4.864  12.949   2.938 -0.0499 -0.2240  0.0446
 6071W        W22205   4.435   8.837  13.333  0.0239 -0.1055 -0.1115
 6072W        W22206   1.709  18.111  10.705  0.0579  0.0492  0.0561
 6073W        W22207   7.151   7.418   9.265 -0.0421 -0.1574  0.2389
 6074W        W22208   1.326   3.926   3.426 -0.1131 -0.2539 -0.1043
 6075W        W22209  17.224  11.282   0.553 -0.2605  0.1180 -0.1600
 6076W        W22210  10.521   6.762   2.705  0.2037 -0.1478  0.0360
 6077W        W22211   8.321   8.932  14.121  0.0287  0.0058 -0.1075
 6078W        W22212  13.889  18.066   0.260  0.0563 -0.1771 -0.2230
 6079W        W22213  13.179  13.055  10.676 -0.0585  0.2601 -0.1891
 6080W        W22214   4.149   9.925  12.739  0.4634 -0.2117 -0.0864
 6081W        W22215  11.635   9.094   1.102  0.1465  0.0074  0.1237
 6082W        W22216  18.600   4.503   2.945  0.4300  0.2243 -0.2702
 6083W        W22217  10.526   8.652   1.653  0.0508 -0.1071  0.0981
 6084W        W22218   0.894  15.326   2.261 -0.1573 -0.3946 -0.3086
 6085W        W22219   1.016  10.937  11.364 -0.1567 -0.0766 -0.4064
 6086W        W22220  12.039  15.983  14.151 -0.1063  0.0705  0.1267
 6087W        W22221  14.836  13.488   0.907 -0.2818  0.3596 -0.0479
 6088W        W22222  10.031  16.656   0.837  0.1281 -0.0469 -0.2109
 6089W        W22223   1.559  14.382   0.591  0.1509 -0.2976 -0.0659
 6090W        W22224  13.969  10.237  12.645 -0.0842  0.1354  0.1358
 6091W        W22225  14.736  17.291  11.058 -0.2949  0.2820 -0.0387
 6092W        W22226  11.469  18.466  10.925  0.0834 -0.0818 -0.2169
 6093W        W22227  10.487  16.534   0.986 -0.0338  0.1067 -0.1958
 6094W        W22228   2.714  18.631   4.412  0.0461 -0.0935  0.2355
 6095W        W22229   7.854   2.038   2.151 -0.1321  0.3375 -0.0278
 6096W        W22230  12.820  10.244   9.982 -0.0021 -0.1065 -0.1048
 6097W        W22231   3.381  10.074  11.321 -0.2273 -0.0738  0.0180
 6098W        W22232   7.327   5.561   1.126  0.2141 -0.0514  0.5848
 6099W        W22233  16.547   3.629   4.255  0.1844 -0.2587 -0.1169
 6100W        W22234   8.392  15.568   1.252 -0.1375 -0.1199 -0.1098
 6101W        W22235  17.279   4.088   3.424 -0.3819  0.2094  0.0430
 6102W        W22236   4.234   0.579   5.102 -0.0896  0.2810  0.1886
 6103W        W22237   0.685   3.913   3.129  0.0127  0.0034 -0.2136
 6104W        W22238   2.916   4.589  13.326  0.4311 -0.1238 -0.0612
 6105W        W22239  16.146   3.389   4.456 -0.1110 -0.2701  0.0821
 6106W        W22240   6.885  15.109   1.919 -0.0722  0.0232  0.1796
 6107W        W22241  16.767  15.296  13.852  0.3322  0.2899  0.2752
 6108W        W22242   4.340  13.435   0.354 -0.3261 -0.1859  0.2532
 6109W        W22243  14.683  13.728   1.489  0.0841 -0.0471 -0.1236
 6110W        W22244  16.260   5.428  14.911  0.0606  0.6338  0.1343
 6111W        W22245   3.790   2.062   0.148  0.1478 -0.1090  0.2456
 6112W        W22246   1.572  15.923   2.010  0.2266 -0.1750  0.0453
 6113W        W22247  11.411   0.254   4.460 -0.2433  0.1859  0.0102
 6114W        W22248   9.028   0.047   2.947  0.2924 -0.1241  0.0960
 6115W        W22249  18.303   5.391  10.028  0.0792  0.1210  0.0789
 6116W        W22250  14.419   6.414   3.414  0.1348 -0.1015 -0.2524
 6117W        W22251   8.800   7.357   1.017  0.3201 -0.1098 -0.2966
 6118W        W22252   3.979   8.635   0.724  0.0269 -0.0344  0.1452
 6119W        W22253   7.789  12.130  14.302 -0.3716 -0.0209 -0.1390
 6120W        W22254  15.280   3.187   3.084  0.1637 -0.0637 -0.0453
 6121W        W22255  14.547   0.542   1.594  0.1692  0.2230 -0.0981
 6122W        W22256   0.753  16.506  10.503 -0.0669  0.0199 -0.0393
 6123W        W22257   7.731   7.028  13.060 -0.1898  0.1050 -0.1003
 6124W        W22258   4.202  12.305   0.843 -0.2110  0.0724 -0.0551
 6125W        W22259  13.137  10.462  11.399  0.0791  0.2382  0.1601
 6126W        W22260   4.696   9.963  13.324 -0.4021  0.1798 -0.2118
 6127W        W22261   5.554   7.576   0.945 -0.0969 -0.0670  0.1888
 6128W        W22262  10.032   9.388  11.215 -0.0135  0.2662 -0.3180
 6129W        W22263   3.866  11.360  13.716 -0.2134  0.1418 -0.4040
 6130W        W22264   6.049   2.679   4.147 -0.0045  0.1771  0.2249
 6131W        W22265   2.418   9.877   4.921  0.0947  0.1886  0.0225
 6132W        W22266  11.108   5.518   2.512 -0.5048  0.0813  0.0766
 6133W        W22267   2.848   1.147  12.642  0.0821 -0.0367 -0.2077
 6134W        W22268  12.629   3.108   3.194 -0.0450 -0.2620  0.2147
 6135W        W22269   3.267   0.147  14.245 -0.1414  0.1233 -0.2815
 6136W        W22270   6.245  18.995  13.448  0.2509 -0.1015 -0.0008
 6137W        W22271   8.575   8.112  11.794 -0.0981  0.0237 -0.3108
 6138W        W22272   2.225   5.864   2.536  0.0791 -0.1685 -0.0704
 6139W        W22273   7.697   0.645  12.227 -0.1097  0.4087 -0.2103
 6140W        W22274  10.006   1.668  14.531  0.0226 -0.1961 -0.0605
 6141W        W22275   4.618  12.590  13.524  0.2046  0.0495  0.2259
 6142W        W22276   3.327  11.278   3.365 -0.2874 -0.0695 -0.0248
 6143W        W22277  14.816   8.112   3.448 -0.0400  0.3445 -0.0898
 6144W        W22278   7.971   1.961  10.980 -0.0089 -0.0229 -0.1995
 6145W        W22279   3.748   9.262   3.660  0.0900  0.0933 -0.0539
 6146W        W22280   3.837   0.609   5.355  0.1040  0.1305  0.2171
 6147W        W22281   3.474  17.571  12.000 -0.0444  0.3894 -0.0110
 6148W        W22282  13.507  11.681  12.434 -0.1644  0.2021  0.1236
 6149W        W22283  10.201   7.732   1.704 -0.1346  0.2732  0.0859
 6150W        W22284  12.476   0.437  14.285  0.0381 -0.0391  0.2544
 6151W        W22285  15.436   3.705  13.574 -0.0073 -0.0907 -0.2188
 6152W        W22286  16.994  15.865   3.301 -0.1992 -0.0784  0.0574
 6153W        W22287   5.101   0.308  13.936 -0.0505  0.2273  0.0650
 6154W        W22288   0.089   2.753   4.835  0.0683 -0.4404  0.0927
 6155W        W22289  10.635  17.749  11.808  0.2899 -0.0249 -0.0965
 6156W        W22290  18.206   2.623  14.852  0.1022  0.2532 -0.0924
 6157W        W22291  15.667  16.572   4.633  0.3440 -0.2634  0.1830
 6158W        W22292   0.445   3.539   2.896  0.1063  0.1906 -0.2422
 6159W        W22293  10.055  16.677  12.217  0.1691 -0.0990 -0.0356
 6160W        W22294   8.041  10.066   0.163 -0.2544  0.2118  0.0056
 6161W        W22295  16.577  13.809   3.730  0.0285 -0.1496 -0.1661
 6162W        W22296   8.713   9.116  13.256 -0.2436 -0.0858 -0.1847
 6163W        W22297  13.218   1.856  12.660  0.0857  0.2843 -0.4835
 6164W        W22298  17.633   0.563   1.041  0.0085 -0.1208 -0.1926
 6165W        W22299  15.302  15.869   1.803 -0.1344  0.0093 -0.1207
 6166W        W22300  10.555   0.639   2.836  0.0100 -0.1237  0.1560
 6167W        W22301  11.070  15.081  11.557  0.1323  0.3445 -0.0349
 6168W        W22302  18.986  17.395  14.798  0.0455  0.0319  0.3013
 6169W        W22303  17.682   6.705   4.060  0.0504  0.2127  0.0664
 6170W        W22304  18.266  13.439  10.477  0.1140  0.0987  0.0931
 6171W        W22305  15.893   8.242   1.574 -0.2140  0.5158  0.3843
 6172W        W22306  10.317   6.493   4.750  0.0430  0.0738  0.1557
 6173W        W22307   8.884  10.214   0.661 -0.0920 -0.1094  0.0118
 6174W        W22308  18.602   1.321   1.249  0.2572 -0.1267  0.3183
 6175W        W22309   0.840  12.463   0.271 -0.0041 -0.1937  0.1594
 6176W        W22310  17.563  16.251   2.757  0.2298 -0.0971 -0.2447
 6177W        W22311   0.151   0.275  10.853 -0.0062  0.0533  0.1067
 6178W        W22312  15.670   4.500   9.842  0.1595 -0.1473  0.2574
 6179W        W22313  12.567   3.279  11.456  0.2684  0.1506  0.0316
 6180W        W22314  12.169  18.138  13.077 -0.2709  0.0161 -0.1521
 6181W        W22315   7.982   5.042   3.319 -0.1040 -0.1368 -0.3688
 6182W        W22316   5.324   9.390  10.381 -0.0103 -0.3645  0.2269
 6183W        W22317  18.920  17.733  11.919  0.1677  0.0263  0.1923
 6184W        W22318   8.701   1.256  14.710 -0.1230  0.2694  0.1696
 6185W        W22319  13.432  18.485   2.870 -0.0675  0.0858 -0.2497
 6186W        W22320  16.334   8.713  10.752  0.1669 -0.0033 -0.0935
 6187W        W22321   7.746   9.387   2.048  0.0849 -0.3391 -0.1664
 6188W        W22322   1.931   8.372   4.506 -0.2226  0.0623 -0.1188
 6189W        W22323  16.925   9.711   0.076  0.2535  0.1119  0.0065
 6190W        W22324   5.352   7.683   1.738 -0.2690  0.1452 -0.1253
 6191W        W22325  17.593  17.883  12.794 -0.0455 -0.2898 -0.1831
 6192W        W22326  15.236   2.081  11.219  0.1018 -0.1203 -0.3432
 6193W        W22327   5.322   6.339  13.479 -0.0864  0.1567  0.2669
 6194W        W22328   3.710  16.671  10.852 -0.1341  0.1545 -0.0168
 6195W        W22329   6.493  17.695   4.117 -0.0250 -0.2877 -0.0940
 6196W        W22330  11.500  17.424   1.026 -0.1150 -0.0697 -0.1923
 6197W        W22331   3.667  17.246  10.503  0.0433 -0.0002  0.2499
 6198W        W22332   0.078   7.195   4.665  0.0463  0.2557  0.3735
 6199W        W22333   1.564   0.899  11.426 -0.1886 -0.2624  0.2555
 6200W        W22334  14.118  14.397   4.091  0.2100  0.1672  0.2329
 6201W        W22335  15.721   2.714   1.211 -0.4089 -0.1067  0.0904
 6202W        W22336   3.475   4.019   4.343 -0.0663 -0.0128 -0.0020
 6203W        W22337  10.420   9.998   3.251 -0.0805  0.1977 -0.1706
 6204W        W22338   7.290   6.752   0.548  0.1321 -0.1206 -0.3157
 6205W        W22339   4.400   2.221   4.432 -0.0940  0.2044  0.0192
 6206W        W22340   4.071  18.883  15.132 -0.0653 -0.0978  0.1778
 6207W        W22341  17.837  16.843   1.903 -0.0327 -0.0469 -0.0832
 6208W        W22342   9.241   5.715   0.017 -0.4318 -0.1178 -0.0551
 6209W        W22343  10.784  10.877  11.264  0.0099  0.1373  0.3085
 6210W        W22344  12.739  10.146   0.287 -0.1368 -0.0708  0.1362
 6211W        W22345   3.816  17.010   0.440 -0.2797 -0.2160  0.0894
 6212W        W22346   8.328   5.834  12.246 -0.1404  0.4497  0.0994
 6213W        W22347  14.181   3.804   2.040 -0.1044  0.1482 -0.0788
 6214W        W22348  15.988  18.997   2.709  0.3194 -0.2328 -0.2651
 6215W        W22349   7.826  14.922  11.224  0.1256  0.0382  0.1016
 6216W        W22350  13.693  18.653   0.469 -0.0892  0.0322 -0.1022
 6217W        W22351  13.817   4.716   5.322 -0.1205  0.0794  0.2280
 6218W        W22352  16.650   2.732   0.190  0.4168  0.0407 -0.3208
 6219W        W22353   1.150  14.811  10.603  0.0105  0.2477 -0.2342
 6220W        W22354   1.436  18.757   2.490 -0.0274  0.2645  0.1635
 6221W        W22355   1.251  10.103  11.395 -0.0319 -0.1759 -0.2183
 6222W        W22356  11.860   7.124  13.689  0.0731  0.2477 -0.0119
 6223W        W22357   3.266  12.553   2.713  0.1472 -0.2200 -0.0520
 6224W        W22358  18.153   2.589   0.089  0.3336  0.0839  0.0822
 6225W        W22359   1.865  12.549  14.456 -0.0307 -0.2987 -0.0844
 6226W        W22360   0.061   6.257  11.272  0.0683 -0.0114  0.2090
 6227W        W22361  18.384  14.776   3.277  0.2062  0.2324  0.1362
 6228W        W22362  16.925  13.170  10.321  0.0691  0.1424 -0.2621
 6229W        W22363   9.937   9.341   3.242 -0.2276  0.4038 -0.1975
 6230W        W22364  18.966  16.519  13.749  0.0903  0.0856 -0.2161
 6231W        W22365   2.978  14.763  12.046 -0.2303 -0.0555 -0.3629
 6232W        W22366  10.325   6.621  15.061 -0.1469 -0.0293  0.2065
 6233W        W22367  14.389  10.122  10.799  0.0590  0.4079 -0.1281
 6234W        W22368  14.999  17.866   0.634 -0.4387  0.1239  0.1523
 6235W        W22369   8.296  13.406   2.443 -0.2810 -0.0182  0.1755
 6236W        W22370  13.426  12.414  13.592 -0.2251 -0.2985 -0.0188
 6237W        W22371   0.086   7.854   3.881  0.0856  0.1306  0.3015
 6238W        W22372  14.321   0.595   1.111  0.4009  0.2492  0.0266
 6239W        W22373  15.200  13.821   3.022  0.1751  0.0088  0.0197
 6240W        W22374  17.620   0.872  10.275 -0.0120  0.0837 -0.0835
 6241W        W22375   4.142  14.899   1.170 -0.0851  0.1647  0.0353
 6242W        W22376   1.590  13.347   2.452  0.0288  0.1448 -0.2720
 6243W        W22377   4.231   7.257  14.309  0.2450 -0.3342 -0.0887
 6244W        W22378   7.429  16.000  14.200  0.0937 -0.1440 -0.1451
 6245W        W22379  12.098   1.641   4.943 -0.1049 -0.0497  0.3950
 6246W        W22380  11.762  10.239   2.150  0.1452 -0.0178  0.0108
 6247W        W22381  10.848   9.210   1.897  0.0605 -0.1337  0.1255
 6248W        W22382   1.008   1.436   4.818 -0.2330  0.0223 -0.1500
 6249W        W22383  14.112  17.423   2.313  0.2440  0.0960  0.1134
 6250W        W22384   5.327  17.527   0.902  0.2594  0.1393 -0.1704
 6251W        W22385   7.123   7.727   4.412 -0.0259  0.0460 -0.1201
 6252W        W22386   8.500   4.970  10.821 -0.0692 -0.0050  0.0972
 6253W        W22387  17.354   8.451  11.550  0.2284 -0.1192 -0.0503
 6254W        W22388   5.597   8.300  11.133 -0.2509 -0.0666 -0.2744
 6255W        W22389   5.008   8.679   9.365  0.0090 -0.0301 -0.0580
 6256W        W22390   2.719  15.992   3.146  0.0808  0.1075  0.0516
 6257W        W22391  10.168   5.267  13.852  0.2087  0.0547  0.0767
 6258W        W22392   0.490   5.034  10.355 -0.0687 -0.0130 -0.0635
 6259W        W22393   4.046  10.430  11.896  0.0657 -0.2054 -0.1043
 6260W        W22394  17.708  13.468   3.199 -0.0126 -0.0402  0.2603
 6261W        W22395   0.574   1.748   0.224 -0.1337 -0.1150  0.2513
 6262W        W22396   8.567  11.587   3.157  0.0253 -0.1319  0.3131
 6263W        W22397  10.624  15.867  13.586 -0.2652  0.0476  0.0472
 6264W        W22398   7.693  14.042   0.774  0.0653 -0.1706  0.0128
 6265W        W22399   3.464   8.618  15.192 -0.0538 -0.2833 -0.0012
 6266W        W22400   6.031  14.005  11.251 -0.0687 -0.2303 -0.1491
 6267W        W22401   3.199  15.887  14.745 -0.0345  0.1000 -0.4209
 6268W        W22402   9.108   5.148  14.020  0.1351 -0.2875  0.2354
 6269W        W22403   0.179   9.312   1.962 -0.0187 -0.1227 -0.0516
 6270W        W22404  17.638   1.602  10.845 -0.0604  0.2899 -0.2176
 6271W        W22405   9.709   5.679  15.171  0.2198 -0.2055  0.1778
 6272W        W22406   7.678  18.601   1.884 -0.1456 -0.2486 -0.0243
 6273W        W22407  15.705  17.317  13.240 -0.1016 -0.1664 -0.0781
 6274W        W22408   9.537  17.447   2.377  0.1126 -0.0945  0.0341
 6275W        W22409   4.265   7.196   5.174  0.0469 -0.3259 -0.0378
 6276W        W22410   3.166  16.447   4.312  0.0146 -0.2880 -0.1280
 6277W        W22411   6.124  16.140   4.720 -0.0584 -0.2669  0.0322
 6278W        W22412   8.214  11.369   2.815  0.0993 -0.1279  0.2544
 6279W        W22413   9.965   3.929  14.572  0.1746 -0.1297  0.1453
 6280W        W22414   0.563  18.241   1.344 -0.0577 -0.3524  0.1076
 6281W        W22415   0.649   5.353   4.081  0.1819 -0.1506  0.3723
 6282W        W22416   0.650   9.710  11.580 -0.0068 -0.2767 -0.2024
 6283W        W22417  11.907  18.258  10.960  0.1790 -0.2086  0.1930
 6284W        W22418  17.992   0.794  12.590 -0.2691 -0.1756  0.0045
 6285W        W22419  11.996  17.241   1.033  0.0357  0.0353  0.1501
 6286W        W22420   2.771   0.648  12.782  0.2348 -0.2308  0.5833
 6287W        W22421  13.962   3.824   0.363 -0.0288  0.1057 -0.2732
 6288W        W22422   6.080  15.284   0.689  0.1383 -0.2133 -0.0520
 6289W        W22423  13.884   0.743   2.498  0.1845  0.0692 -0.0608
 6290W        W22424   4.218  14.288   0.508  0.0013 -0.0095 -0.2180
 6291W        W22425   2.498  18.613   2.526  0.0148 -0.0163 -0.0368
 6292W        W22426  14.715   2.810   5.018  0.0122  0.0133  0.1266
 6293W        W22427   0.249  10.516  10.837  0.1704 -0.1411 -0.1634
 6294W        W22428  18.797  17.695  10.277  0.0492  0.0270 -0.1113
 6295W        W22429  12.116   6.811  13.420 -0.2386 -0.6850 -0.4122
 6296W        W22430  14.695  16.253   5.265  0.1175  0.0247 -0.2364
 6297W        W22431  17.338   9.799  11.919  0.1545  0.0594 -0.1981
 6298W        W22432  15.735  10.352  11.284  0.1873  0.1477 -0.2501
 6299W        W22433  15.439  14.135   2.207 -0.0086 -0.1281 -0.4503
 6300W        W22434   2.359  15.059  11.223 -0.0003  0.2121  0.0208
 6301W        W22435   1.674   7.141   2.621 -0.2778  0.0538  0.4634
 6302W        W22436  10.972   4.921  13.174  0.0078  0.1907 -0.0424
 6303W        W22437  13.487   1.726   1.438 -0.1355 -0.0236 -0.4353
 6304W        W22438   3.426   3.207   4.606 -0.1355  0.2142  0.1483
 6305W        W22439   8.935  14.621  12.727  0.1740 -0.0480  0.1456
 6306W        W22440  11.691   9.569   2.680 -0.1628 -0.0358  0.1569
 6307W        W22441  12.916   4.504  10.233  0.1358 -0.0035  0.2338
 6308W        W22442  16.268   1.717   3.523 -0.4265  0.1994  0.1874
 6309W        W22443   3.639   9.972   1.969  0.0302 -0.2880 -0.2660
 6310W        W22444   3.020  17.007   4.091 -0.1411  0.0569  0.0450
 6311W        W22445   7.145  11.220  14.349 -0.0567 -0.2649 -0.0255
 6312W        W22446  17.468  18.873   0.059 -0.2359  0.1623  0.2408
 6313W        W22447   7.286  16.328  11.175  0.0325  0.2633 -0.0975
 6314W        W22448   4.138   1.106   5.187  0.2673 -0.0054 -0.1524
 6315W        W22449  10.293   4.788   4.590 -0.1983  0.0907 -0.0820
 6316W        W22450   5.152  12.318   4.172 -0.3731  0.0101  0.2433
 6317W        W22451   8.688  12.663  11.359  0.0064 -0.6095  0.0313
 6318W        W22452  17.794   4.348   0.943 -0.2332 -0.1474  0.0925
 6319W        W22453   0.887   3.442   5.239  0.0642  0.0282 -0.2635
 6320W        W22454  13.478   7.186   2.368 -0.3692  0.1765 -0.1754
 6321W        W22455  14.682   5.413   3.944  0.0724 -0.1398  0.0155
 6322W        W22456   4.643  17.430   4.459  0.2056 -0.0483  0.1876
 6323W        W22457   6.322   8.608   3.539 -0.1978 -0.3098  0.2398
 6324W        W22458   9.641  11.290   5.144 -0.0486 -0.2177 -0.2601
 6325W        W22459   5.199  17.711   2.703  0.2900  0.1906  0.0086
 6326W        W22460  16.975   2.009   2.894 -0.3772  0.0687 -0.0180
 6327W        W22461   9.055  13.113   4.055 -0.1309 -0.1876  0.1543
 6328W        W22462   3.330  16.893   3.116 -0.2751 -0.2211 -0.0292
 6329W        W22463   3.776  11.096   2.493  0.0198  0.2491  0.0704
 6330W        W22464   2.223  14.589   2.332  0.0782  0.1854 -0.0539
 6331W        W22465  13.780  18.596   2.441 -0.1535 -0.0392 -0.1609
 6332W        W22466  16.894  12.531  15.172 -0.0667  0.0800 -0.3863
 6333W        W22467  12.505  17.441  15.060 -0.2224 -0.1555  0.0769
 6334W        W22468  15.047   2.543  11.818 -0.0195 -0.0493 -0.1671
 6335W        W22469   4.615  11.737  12.907 -0.1529 -0.0006 -0.0631
 6336W        W22470   1.537  12.637  15.085 -0.0019 -0.1555 -0.2628
 6337W        W22471   0.255   4.662  10.657  0.1172 -0.2304  0.0863
 6338W        W22472  12.413   2.280   0.696  0.1323 -0.1156 -0.2163
 6339W        W22473   1.479  18.355   0.101 -0.4045 -0.2708 -0.0702
 6340W        W22474  11.979   6.868  12.864 -0.0126  0.0603 -0.2350
 6341W        W22475   7.257  18.479   3.812  0.0447 -0.1727  0.1477
 6342W        W22476   7.558   5.496   4.322  0.2877  0.3579 -0.2182
 6343W        W22477  10.589  13.247   3.305 -0.0563  0.0231  0.2085
 6344W        W22478   6.670   4.379  14.842  0.0902 -0.0466 -0.0549
 6345W        W22479   1.969  10.857  13.508 -0.0618 -0.0145 -0.2009
 6346W        W22480  12.567  14.686  11.035  0.0571  0.3050  0.0199
 6347W        W22481   2.794  18.218   0.658 -0.1272 -0.0360  0.4418
 6348W        W22482   1.852   9.230  12.526 -0.0656  0.1179  0.2337
 6349W        W22483   5.257   1.705  10.265  0.3212  0.1145 -0.2544
 6350W        W22484  16.624  12.802   1.902  0.0991 -0.2261 -0.1742
 6351W        W22485   6.649  17.804   4.965 -0.2524 -0.0380 -0.1377
 6352W        W22486   1.303   7.793  12.341  0.2438 -0.1220  0.1904
 6353W        W22487  18.851   3.874  14.911  0.1081 -0.3280  0.2362
 6354W        W22488  16.994   7.449  12.863  0.2478  0.2270  0.1895
 6355W        W22489   1.173   8.691   9.611  0.0663  0.1958 -0.1482
 6356W        W22490  10.393   2.969  12.240 -0.0543  0.1173 -0.5021
 6357W        W22491  18.912   0.093  12.161 -0.1917 -0.2434  0.0896
 6358W        W22492  17.032  16.855   1.668 -0.3601  0.0135  0.0137
 6359W        W22493  16.192  13.179  12.167  0.1301  0.1239  0.0098
 6360W        W22494   6.494  15.126  11.494  0.1008 -0.3347 -0.0774
 6361W        W22495  11.823  15.339  14.288  0.0568  0.1320  0.1348
 6362W        W22496  17.972   2.303   1.927 -0.1362 -0.1695 -0.1908
 6363W        W22497   6.712   7.431  14.019 -0.2094  0.0336  0.1649
 6364W        W22498  16.082   9.062   4.216 -0.1831 -0.4035  0.0040
 6365W        W22499   5.760   6.992   9.014 -0.0329  0.1367  0.3461
 6366W        W22500  17.113  13.000   4.964 -0.4715  0.2064 -0.0413
 6367W        W22501   1.571  10.764  12.688 -0.1449 -0.2549  0.0405
 6368W        W22502  15.496   9.779  14.001 -0.2996 -0.1908 -0.1208
 6369W        W22503   9.467  14.720   0.999  0.0686  0.3566 -0.0152
 6370W        W22504  17.410  10.352  13.528 -0.0119 -0.0504  0.1846
 6371W        W22505  10.336   5.829   3.162 -0.1336 -0.0761  0.0910
 6372W        W22506  17.034   6.839   0.727  0.2376  0.1255 -0.2869
 6373W        W22507  16.580  17.235  11.780  0.0116 -0.5892  0.1476
 6374W        W22508  12.712   5.862  10.655 -0.5897  0.2385  0.1232
 6375W        W22509  12.829   2.504   2.921  0.2467  0.1455 -0.1700
 6376W        W22510   8.699   1.855   1.690 -0.2322 -0.3145  0.1790
 6377W        W22511   4.634   5.482   1.596  0.2062 -0.2435  0.0321
 6378W        W22512   8.159  10.128   2.972 -0.4763  0.0352  0.4207
 6379W        W22513  11.735   3.974  13.897 -0.2960  0.1973 -0.0639
 6380W        W22514  13.046   4.114  15.226 -0.1464  0.1569  0.0373
 6381W        W22515   5.560  13.110  11.576  0.1433 -0.0111 -0.0214
 6382W        W22516   5.258  16.231  11.579 -0.0680  0.1184  0.0159
 6383W        W22517  13.002   7.312   1.083  0.1062 -0.1030 -0.0396
 6384W        W22518   4.602   4.495  11.017  0.1558  0.1442  0.0761
 6385W        W22519  13.278   4.253   1.968 -0.0758  0.1049  0.2616
 6386W        W22520  12.476  12.858  13.438 -0.2676 -0.0786 -0.1123
 6387W        W22521  11.573   9.233  15.170  0.2165 -0.0288 -0.0557
 6388W        W22522   8.853  18.630  14.825 -0.0482  0.2526  0.2399
 6389W        W22523  12.702  10.628   9.693  0.3494 -0.0848  0.1378
 6390W        W22524  16.490  10.196  13.984  0.2300 -0.0800  0.1294
 6391W        W22525  16.493   1.260  10.556 -0.1222  0.0269 -0.4764
 6392W        W22526   5.608   6.420  11.984 -0.5240  0.0531 -0.0268
 6393W        W22527   8.052   5.194   3.828  0.2224  0.0119  0.3119
 6394W        W22528   4.186  11.001   0.072  0.0351  0.1183 -0.1280
 6395W        W22529  17.644  16.486  14.103  0.2069  0.0396 -0.0162
 6396W        W22530  17.465   0.320   2.857  0.0226  0.1553  0.3091
 6397W        W22531  14.962  13.633   3.863  0.0506  0.1354 -0.1501
 6398W        W22532   1.810   7.533   2.986  0.1265 -0.2627  0.1569
 6399W        W22533  14.438   7.905   9.885 -0.1889 -0.0691  0.0634
 6400W        W22534   7.886   9.728  12.949 -0.2035  0.0438  0.2496
 6401W        W22535  10.105   1.363   2.748 -0.0573  0.0450 -0.0019
 6402W        W22536  11.739  17.464   3.962  0.0540  0.0642  0.1216
 6403W        W22537   1.606  15.133   4.944  0.1763 -0.0057  0.2388
 6404W        W22538  15.945   6.430   0.516  0.1136  0.2214 -0.0504
 6405W        W22539  13.946  17.568   1.739 -0.0530 -0.1852  0.0870
 6406W        W22540   4.779   8.134  10.919  0.2063  0.3156 -0.2003
 6407W        W22541  18.149  14.244  12.890 -0.0236 -0.0308  0.1448
 6408W        W22542   6.768   3.193  13.373 -0.0820  0.2370 -0.0589
 6409W        W22543  13.475  12.114   3.378  0.0092  0.1536 -0.3166
 6410W        W22544   1.132   0.081   2.744 -0.4632 -0.0659 -0.1215
 6411W        W22545   0.596   4.084  12.029  0.0238 -0.0690 -0.2487
 6412W        W22546  16.841   8.780   0.194  0.2062 -0.1979 -0.1098
 6413W        W22547  18.439  14.349  12.452  0.2823 -0.0434 -0.2475
 6414W        W22548   3.629  15.956  12.432 -0.2970  0.1436 -0.1153
 6415W        W22549  14.918  14.662  12.114 -0.2076 -0.1501 -0.2749
 6416W        W22550  18.707   6.358   2.037 -0.0397 -0.2735  0.1250
 6417W        W22551  14.555   4.263   4.692  0.0382  0.1209  0.2760
 6418W        W22552   3.811   2.946  11.753  0.0424  0.3578 -0.2904
 6419W        W22553   9.814  17.874   2.084 -0.2788  0.2486  0.0140
 6420W        W22554  16.912  13.976   9.841 -0.2215  0.1723 -0.1281
 6421W        W22555   5.479  11.965  14.148 -0.2326 -0.0338  0.2305
 6422W        W22556   9.175  15.469   4.504  0.3697  0.0373 -0.2427
 6423W        W22557  15.840   1.097   4.688  0.1295 -0.0005 -0.3850
 6424W        W22558  13.906   4.449   1.562 -0.0867 -0.2611  0.2218
 6425W        W22559  11.040  16.690  12.730 -0.4844 -0.0490 -0.2171
 6426W        W22560  12.432   4.275  10.235  0.1482 -0.1685 -0.0590
 6427W        W22561   1.156   9.548   4.753 -0.0245 -0.0761  0.0823
 6428W        W22562   1.200   3.034  11.048  0.0675  0.1093  0.0357
 6429W        W22563  11.383   7.120   2.375 -0.1471  0.0482 -0.4604
 6430W        W22564  12.788   8.518   1.097 -0.0238 -0.2508  0.2218
 6431W        W22565   0.366  14.896   2.368  0.0156  0.1961  0.0922
 6432W        W22566  11.060  11.067   1.934  0.0979 -0.2325  0.0008
 6433W        W22567  16.451   0.532  14.543 -0.2555 -0.0320  0.1973
 6434W        W22568   2.387   7.985   1.165 -0.3309  0.2569  0.0787
 6435W        W22569  18.089   5.096  14.326 -0.1440  0.2169  0.3143
 6436W        W22570   6.120  13.700  12.652 -0.3952  0.0523 -0.0809
 6437W        W22571  11.965   3.878  10.441  0.3138 -0.0534  0.1256
 6438W        W22572   3.044   2.834  12.910  0.0744  0.2610  0.1728
 6439W        W22573   3.258  12.188  12.784  0.2422  0.1016 -0.0161
 6440W        W22574   3.367  14.397  12.934 -0.1132  0.0943 -0.0630
 6441W        W22575   1.921   2.369  13.813 -0.0709  0.2886 -0.1092
 6442W        W22576   0.656  15.415   3.787 -0.3930  0.0532 -0.0331
 6443W        W22577  16.943   0.644   3.045 -0.1225  0.0948  0.0547
 6444W        W22578  15.751   9.471   9.825 -0.0522  0.1874 -0.0429
 6445W        W22579  17.008   2.683   0.488  0.1139 -0.2705 -0.2443
 6446W        W22580  10.282  12.741  13.898  0.2483  0.2972 -0.2380
 6447W        W22581  15.615  12.106  11.751 -0.0496 -0.0517  0.0066
 6448W        W22582   2.005  12.257   2.430 -0.2864 -0.0237 -0.0205
 6449W        W22583   2.533   4.003  11.774  0.2630  0.2307  0.1348
 6450W        W22584  13.281   3.751  11.624 -0.1945  0.1536 -0.0115
 6451W        W22585  14.672   7.980  10.974 -0.0118 -0.0448  0.3218
 6452W        W22586  14.862  15.621   0.533 -0.1997  0.0286  0.1636
 6453W        W22587  12.509   1.143  14.357  0.2640 -0.3562  0.0641
 6454W        W22588  14.806  13.518   2.359 -0.0197  0.1486  0.0469
 6455W        W22589  10.444   6.852  11.749  0.1958  0.0891 -0.0222
 6456W        W22590   9.586  18.941   3.795  0.0412 -0.0080  0.0679
 6457W        W22591  13.357   3.672   4.401 -0.0126  0.1386 -0.0238
 6458W        W22592   0.500   6.714  14.590 -0.0772  0.1380 -0.2869
 6459W        W22593  10.975   9.753   5.255 -0.1105  0.1933  0.0964
 6460W        W22594  15.778  17.287  12.631 -0.0249 -0.2366  0.0347
 6461W        W22595  10.392  10.959  10.489  0.1866 -0.1854  0.0055
 6462W        W22596   8.585  14.138  14.862  0.1211 -0.4054  0.3337
 6463W        W22597  15.001   4.562   2.461 -0.1111  0.0735  0.2008
 6464W        W22598  12.745   8.090   5.639 -0.0148  0.1457  0.0047
 6465W        W22599  14.791   8.096  13.091 -0.1735  0.0046  0.2260
 6466W        W22600   2.558  10.289   2.767  0.2910 -0.0399  0.0926
 6467W        W22601   9.984   1.342  10.343 -0.3175 -0.2020  0.1235
 6468W        W22602   1.218  14.977  13.620 -0.1150 -0.2726  0.0713
 6469W        W22603   3.142   2.680   1.495  0.0905 -0.3419 -0.0178
 6470W        W22604  18.918   6.645  12.562  0.0316 -0.1293  0.2105
 6471W        W22605   4.959  10.820  11.439 -0.1166 -0.2458 -0.0059
 6472W        W22606   6.647  12.184   4.089 -0.0751  0.0142 -0.2276
 6473W        W22607  18.669  16.410   1.532 -0.0761  0.0335  0.1289
 6474W        W22608   8.367   9.392  13.629 -0.2899 -0.1878  0.0364
 6475W        W22609  13.433   2.781  13.077  0.1841 -0.3371 -0.2168
 6476W        W22610   3.812  16.770   3.917  0.1063  0.0659  0.0651
 6477W        W22611   3.396  15.196   4.815 -0.3440 -0.1285 -0.2896
 6478W        W22612   6.766   6.645  14.530  0.0826  0.2339  0.2556
 6479W        W22613  11.464   6.908  11.526  0.0168  0.0975  0.0225
 6480W        W22614   5.024   5.062  13.229 -0.2261  0.1902  0.0510
 6481W        W22615  11.782  10.930   5.423  0.2649  0.1771  0.2470
 6482W        W22616  15.887  13.263   3.826 -0.3122 -0.1280  0.0199
 6483W        W22617   7.621  14.973   5.571  0.0791 -0.1703  0.1983
 6484W        W22618  14.062  18.558   0.025  0.3077  0.1407 -0.0850
 6485W        W22619   6.741  17.896   0.864 -0.2243  0.0821  0.3401
 6486W        W22620  10.869  16.685   3.624  0.0836 -0.0299 -0.1101
 6487W        W22621   6.537  12.891   9.697  0.4580 -0.0414 -0.0388
 6488W        W22622   1.865   5.704   4.018 -0.1033 -0.1128  0.3369
 6489W        W22623  11.069  12.744  10.673  0.2226 -0.1722  0.0589
 6490W        W22624   9.052  14.748   2.622 -0.1998 -0.2023  0.1755
 6491W        W22625   2.577   1.123   2.068 -0.0506  0.0476  0.1333
 6492W        W22626  12.982  17.845   5.530 -0.2505  0.0009 -0.0243
 6493W        W22627  17.631  15.484  13.363 -0.0315  0.3694  0.0421
 6494W        W22628   6.497  17.953  11.621 -0.1199  0.1103 -0.0431
 6495W        W22629   6.573   2.257   0.451 -0.0014  0.1312 -0.2012
 6496W        W22630  16.665  15.633  10.740  0.0274 -0.1712 -0.4919
 6497W        W22631  14.631  12.041  13.980 -0.2316 -0.0152  0.0022
 6498W        W22632  18.477  17.460   5.036  0.1846  0.0185  0.2840
 6499W        W22633   0.792   9.870   3.444 -0.3806 -0.1334 -0.3570
 6500W        W22634  11.553  12.357   2.481 -0.1289 -0.1102  0.1593
 6501W        W22635  17.943  14.223  14.050 -0.2566 -0.1835 -0.0227
 6502W        W22636  17.795  16.624   0.381  0.0285 -0.5164  0.4046
 6503W        W22637  12.564  15.689   3.692 -0.1515 -0.2413  0.1782
 6504W        W22638   5.262  10.162  13.984  0.1112 -0.0678  0.2309
 6505W        W22639  15.512   3.200   0.291 -0.0847  0.3051  0.2197
 6506W        W22640   0.656  16.778  12.413 -0.0001 -0.1409 -0.1280
 6507W        W22641   3.518   3.182  12.103  0.1697  0.1314 -0.3469
 6508W        W22642   4.584   4.023  10.628  0.2058 -0.1017  0.1907
 6509W        W22643  17.700  13.645  14.606  0.2553 -0.2040  0.0445
 6510W        W22644  12.789  18.245  11.922  0.3021 -0.0689 -0.0908
 6511W        W22645  15.747   7.056   2.314  0.0765  0.1539 -0.5443
 6512W        W22646   6.916  18.695   1.443  0.0618 -0.0691  0.0377
 6513W        W22647   7.532  10.489  10.196 -0.2194  0.2913 -0.0603
 6514W        W22648  14.016  17.097  13.925  0.3119 -0.2907 -0.1136
 6515W        W22649  15.876  10.440  12.200 -0.0193  0.0056 -0.2886
 6516W        W22650  17.549  16.074   0.048  0.5221  0.2054 -0.1091
 6517W        W22651   2.570   4.611   2.606  0.0038 -0.1371  0.0338
 6518W        W22652  12.625   3.570   2.031  0.0564 -0.4003  0.0327
 6519W        W22653  16.560   2.030   4.913  0.3165  0.0987  0.0059
 6520W        W22654  16.334   3.799   4.739  0.2271  0.2191  0.1745
 6521W        W22655   5.000  10.734  11.942 -0.0517 -0.0464  0.1325
 6522W        W22656   4.831  17.155   0.166  0.0798 -0.5023  0.0402
 6523W        W22657  12.475  17.938   0.404  0.0501 -0.1750 -0.2448
 6524W        W22658  15.277   6.263  14.090 -0.0078 -0.1808 -0.0628
 6525W        W22659   5.461   0.630   1.756 -0.1637 -0.1754  0.1829
 6526W        W22660   6.021   0.939  10.905 -0.2179  0.2066 -0.0170
 6527W        W22661  14.348   3.287   5.405  0.2653 -0.0781  0.2775
 6528W        W22662   2.588  13.724   1.082  0.1660  0.3388  0.1569
 6529W        W22663  16.504   8.505   4.278 -0.0191  0.4205  0.2162
 6530W        W22664   3.596   9.645  10.621  0.1137  0.1605 -0.1260
 6531W        W22665   6.054   0.219   9.554 -0.2763 -0.0866  0.3546
 6532W        W22666  10.178  14.299   4.335  0.0398 -0.1591 -0.0497
 6533W        W22667  17.252  10.984  13.937 -0.0632  0.1611  0.0995
 6534W        W22668   0.244  15.333   3.444  0.0396  0.1684  0.0953
 6535W        W22669   9.409   0.171  14.503 -0.0195  0.0653  0.1307
 6536W        W22670  10.309   1.452  11.231  0.2771  0.1298  0.3452
 6537W        W22671  13.720   3.941  13.966  0.2330  0.0218 -0.3570
 6538W        W22672  10.424  13.630  10.858 -0.0729 -0.1321  0.2779
 6539W        W22673   6.624   2.067  13.197  0.2989  0.1359 -0.2030
 6540W        W22674   1.438   5.269   1.637 -0.1182 -0.0458 -0.1333
 6541W        W22675  15.043  14.020  11.367  0.1263  0.0828 -0.0982
 6542W        W22676   0.800   8.176  13.164  0.1008  0.5293 -0.2317
 6543W        W22677  12.323  13.524   2.693 -0.4786  0.1883  0.2319
 6544W        W22678   1.482   7.683   1.548 -0.0177 -0.0739  0.0396
 6545W        W22679   2.590   8.192   0.701 -0.0833 -0.0024 -0.1387
 6546W        W22680   8.502  14.589   1.721 -0.0677  0.2738  0.1039
 6547W        W22681   5.652  14.427   1.727 -0.1659 -0.1385  0.0202
 6548W        W22682   6.848   0.295   0.748  0.1089  0.1452  0.0388
 6549W        W22683   5.363   0.713  11.326  0.2012  0.1153 -0.0523
 6550W        W22684   3.202  16.506  12.964  0.0761 -0.0807  0.0254
 6551W        W22685  17.689   5.921   3.056  0.2323 -0.2929 -0.2339
 6552W        W22686   5.936  18.967  11.817  0.5771 -0.1029  0.1545
 6553W        W22687   5.740   7.730   3.255  0.1918 -0.2942  0.2069
 6554W        W22688   0.606  12.324  11.529  0.2006 -0.0600 -0.1216
 6555W        W22689  13.170   0.501   3.891  0.1697 -0.0820  0.0121
 6556W        W22690   6.784   9.086   0.153  0.1497  0.2139  0.0249
 6557W        W22691  14.188  13.904  13.351 -0.1053 -0.4641  0.0025
 6558W        W22692   0.792  12.022  11.921 -0.0802  0.1339  0.1635
 6559W        W22693   3.699  16.145  14.847  0.0385 -0.1701 -0.0619
 6560W        W22694   5.732   8.323   1.454 -0.1187  0.1534 -0.0413
 6561W        W22695   4.939  18.870   1.970  0.0113  0.1838  0.0237
 6562W        W22696   9.874  12.808   0.024  0.2688  0.3729 -0.0569
 6563W        W22697   1.346  11.491  13.547  0.0892 -0.0549 -0.0250
 6564W        W22698  11.351   9.504  13.265  0.0304  0.2400 -0.1191
 6565W        W22699  16.597  11.219   5.136  0.0197 -0.1657  0.0598
 6566W        W22700  13.691   5.802  12.348  0.1514 -0.0969  0.0697
 6567W        W22701  17.169   8.229   4.899  0.1772 -0.3086 -0.0626
 6568W        W22702  16.237   2.228   3.561  0.1533 -0.2615  0.0036
 6569W        W22703   1.324  16.865  14.759  0.1633 -0.3261 -0.0422
 6570W        W22704  13.459  13.373  14.970 -0.0151  0.3007 -0.1803
 6571W        W22705   0.238   8.184  11.633 -0.1894  0.2933  0.0370
 6572W        W22706  16.392  13.261   0.267  0.3490  0.2433  0.3517
 6573W        W22707  16.933  14.613   2.039  0.0638 -0.2659 -0.1410
 6574W        W22708  18.217  15.116  10.804 -0.2004  0.1291  0.1853
 6575W        W22709   1.329  13.744  14.140 -0.1688  0.0483  0.2118
 6576W        W22710   5.178   1.247  11.024 -0.3397 -0.0082  0.2143
 6577W        W22711  11.834  13.178  10.874  0.0260  0.0697 -0.1222
 6578W        W22712   5.768   5.938   1.578  0.0967 -0.0226 -0.1774
 6579W        W22713  18.817  13.665   1.262 -0.3839 -0.0911 -0.0592
 6580W        W22714  15.272  11.102   0.145  0.1674  0.1344  0.2067
 6581W        W22715   3.218  12.210   0.362 -0.1905  0.4457  0.0341
 6582W        W22716  14.229   7.879   0.875 -0.0195  0.0805  0.3217
 6583W        W22717  13.691  10.062   1.172  0.0016  0.1796 -0.1756
 6584W        W22718   4.413   9.680  14.981  0.0676 -0.1362  0.3560
 6585W        W22719   7.515   4.426  12.845  0.3071 -0.0245 -0.1276
 6586W        W22720  14.517  17.662  10.725  0.0101 -0.1224  0.1152
 6587W        W22721  16.610   4.955  14.913 -0.0455  0.1370 -0.1385
 6588W        W22722  10.733  18.960  13.912  0.0582 -0.0458 -0.0062
 6589W        W22723   9.550   1.188  11.185  0.1245 -0.0286  0.0194
 6590W        W22724   2.888   3.964  11.172  0.0957 -0.4845  0.1184
 6591W        W22725   4.195   5.704   0.412 -0.0091  0.3191 -0.0975
 6592W        W22726   4.754   7.024   4.399  0.0487 -0.0914  0.3302
 6593W        W22727  16.702   5.309   4.548  0.1178 -0.4551 -0.0788
 6594W        W22728   0.873  14.532   3.204 -0.1730  0.2509  0.0459
 6595W        W22729   3.412   3.252   0.383 -0.0569  0.4438 -0.1808
 6596W        W22730  17.427   1.828  12.628 -0.0040  0.4274 -0.1200
 6597W        W22731  12.495  18.334   2.630 -0.1850 -0.2018  0.0904
 6598W        W22732   7.482  16.467  14.016 -0.3354 -0.0868  0.1326
 6599W        W22733   9.591   4.955  14.368  0.0697 -0.1560 -0.1351
 6600W        W22734   2.345   6.854   3.610  0.3871 -0.3189 -0.1751
 6601W        W22735   9.216   8.414   4.326  0.2061 -0.4474  0.0768
 6602W        W22736   2.193   1.405   4.325  0.1663 -0.2264  0.1988
 6603W        W22737   7.997  18.235   1.496  0.1740 -0.3559  0.0462
 6604W        W22738   5.804   0.080  13.237  0.0467  0.0992  0.4850
 6605W        W22739   5.380   0.555   0.016  0.0590  0.3380 -0.1323
 6606W        W22740  13.094  13.811   1.211 -0.0219  0.0514  0.3097
 6607W        W22741   0.755  15.267  11.403  0.0253 -0.0726 -0.0220
 6608W        W22742  17.865  11.801   5.164 -0.1475  0.0644  0.0588
 6609W        W22743  18.006   0.177  11.645  0.0812  0.0636  0.0372
 6610W        W22744   8.655  14.641  13.187  0.0850  0.2143 -0.3006
 6611W        W22745   6.494  14.333  13.294  0.1689  0.5182  0.1965
 6612W        W22746   3.452  17.879  11.112 -0.2097 -0.1106 -0.3580
 6613W        W22747  17.853   7.201  11.972 -0.1155 -0.0927 -0.0075
 6614W        W22748   1.625   9.046  11.871  0.0210  0.3190 -0.3360
 6615W        W22749   1.128  12.684  10.412  0.2100  0.0889 -0.0793
 6616W        W22750   7.221  13.566   2.561  0.0724 -0.1592 -0.4005
 6617W        W22751  13.670   8.279  12.556 -0.1965 -0.1599 -0.0076
 6618W        W22752   8.467   0.751  14.064  0.0666 -0.1049  0.1380
 6619W        W22753   5.232   8.068  11.990 -0.1902 -0.2404  0.1773
 6620W        W22754   9.851  17.039   2.971  0.1450  0.1506  0.2134
 6621W        W22755  18.603  10.890  13.786 -0.1800 -0.2234  0.2054
 6622W        W22756  10.228  16.334  11.852  0.2351  0.2492 -0.1356
 6623W        W22757   6.167  10.882  10.750 -0.1225 -0.2466  0.3176
 6624W        W22758   0.257   8.198  12.493  0.1232  0.1941 -0.0032
 6625W        W22759   2.943  12.515  13.416 -0.2553 -0.1195 -0.3188
 6626W        W22760  17.911  17.534   1.412 -0.2682 -0.0740  0.0563
 6627W        W22761  13.391   9.212  12.766  0.1108  0.1355 -0.0058
 6628W        W22762  13.310  16.174  13.678  0.0041  0.0465  0.1780
 6629W        W22763  14.670   0.436  12.832 -0.1561 -0.2415 -0.1677
 6630W        W22764   8.926  17.155   2.796  0.1596  0.2084 -0.2715
 6631W        W22765   9.645   2.932  11.108 -0.0898  0.0604  0.0355
 6632W        W22766  17.536  18.369  14.064  0.1645  0.0931 -0.1364
 6633W        W22767  17.151  13.308  12.823  0.0124 -0.1326  0.0725
 6634W        W22768  13.666  16.278  12.147  0.3529  0.2993  0.1495
 6635W        W22769   4.261  11.158  13.311  0.0055 -0.1483 -0.0951
 6636W        W22770  15.906   6.555   1.487  0.1257 -0.0606  0.2427
 6637W        W22771  13.150   2.630   9.732 -0.0198 -0.3830  0.5516
 6638W        W22772  10.522   7.577   3.617  0.2645  0.2563 -0.0219
 6639W        W22773   8.125   9.080   2.667 -0.1713 -0.0734 -0.2782
 6640W        W22774   5.177  16.330  15.187  0.5319  0.0962  0.1274
 6641W        W22775   1.133  10.212  10.781 -0.1721  0.0066  0.0585
 6642W        W22776   1.529  18.811  15.165 -0.0999 -0.1398 -0.2222
 6643W        W22777   0.222  17.859   2.229 -0.3592  0.0257  0.0780
 6644W        W22778  17.310  16.824  14.236  0.3755  0.0485  0.0145
 6645W        W22779   0.850   7.308   5.266 -0.0905 -0.0836 -0.1207
 6646W        W22780   1.833  13.717  11.380 -0.0884  0.2047  0.0987
 6647W        W22781  14.944   0.771   4.062  0.2600 -0.0679  0.2307
 6648W        W22782  14.266   5.501   2.873  0.1106  0.0744  0.1270
 6649W        W22783  16.651  18.350   3.912 -0.4244 -0.0032  0.0439
 6650W        W22784  11.084  18.403  13.108  0.1404 -0.0189  0.0174
 6651W        W22785  14.187  13.015   4.491  0.1349  0.0158 -0.0739
 6652W        W22786  18.453   8.456   4.494  0.2236  0.0288  0.0732
 6653W        W22787  13.024   0.605   2.477  0.0674  0.0168 -0.2076
 6654W        W22788  15.143   1.134   4.340 -0.0841 -0.1286 -0.1005
 6655W        W22789   3.628   8.453   5.440  0.1029  0.5152  0.1071
 6656W        W22790   3.415   8.632  12.582 -0.1784 -0.0457 -0.1468
 6657W        W22791   7.791   3.736   3.550 -0.1801  0.1246 -0.0435
 6658W        W22792   0.048  10.962   1.282  0.0268  0.0829 -0.2318
 6659W        W22793  11.373   3.717  12.799 -0.1910  0.3070  0.2487
 6660W        W22794   7.333  17.755   2.023  0.0588  0.0758 -0.0334
 6661W        W22795   3.289  17.708   0.181 -0.1713  0.1256 -0.3943
 6662W        W22796   4.956  16.342  13.731 -0.0227  0.2258  0.0522
 6663W        W22797   9.022  15.836   1.293 -0.0332 -0.0513  0.3457
 6664W        W22798  11.544   7.566  10.846 -0.1484 -0.0679  0.0101
 6665W        W22799   8.337  10.663  12.755  0.0332 -0.0687 -0.0638
 6666W        W22800   9.572  15.917   0.386 -0.1749 -0.1878 -0.2690
 6667W        W22801   3.149   6.863   1.305 -0.2778 -0.2269  0.0019
 6668W        W22802  17.459   0.811   4.691  0.0582 -0.2250 -0.2921
 6669W        W22803  17.409  18.022   3.249 -0.3679  0.0134  0.1029
 6670W        W22804   4.875  14.890   5.590  0.1801  0.0076  0.1394
 6671W        W22805   1.732  13.514   5.216  0.1797 -0.1721 -0.2358
 6672W        W22806  18.470  11.330   2.414 -0.0901 -0.2262 -0.0166
 6673W        W22807  13.342  17.257   9.549  0.1870  0.0320 -0.1130
 6674W        W22808   3.577   1.680   3.300  0.1374  0.3237 -0.1274
 6675W        W22809   9.870  13.493   0.753 -0.0456 -0.0968  0.0216
 6676W        W22810  10.363  15.398   2.551 -0.5314 -0.2419  0.0258
 6677W        W22811  18.079   5.753   0.311 -0.0771 -0.4050  0.2614
 6678W        W22812   7.116  15.255   5.498 -0.0677  0.2581 -0.0492
 6679W        W22813   5.943  10.240  15.236 -0.3117  0.0058 -0.0003
 6680W        W22814   9.004  18.387   2.343 -0.0674  0.0406  0.0054
 6681W        W22815  16.627   0.311   2.060  0.4089  0.3419  0.4125
 6682W        W22816  12.044   3.958  15.070  0.1087 -0.0903  0.3972
 6683W        W22817  11.302  15.131  15.255 -0.0217  0.0711  0.1609
 6684W        W22818   8.421  18.762   1.036  0.0860  0.0534  0.0327
 6685W        W22819   3.511  11.538  10.804 -0.2847  0.0913  0.0019
 6686W        W22820  11.115  11.132   0.926 -0.1390 -0.2425 -0.0311
 6687W        W22821  12.295   8.095   3.537  0.1796 -0.0765 -0.1804
 6688W        W22822   9.218  12.064  14.325  0.3534 -0.0043 -0.0646
 6689W        W22823   0.345  12.989  12.010  0.1347 -0.0226 -0.2518
 6690W        W22824  11.400   6.937   2.832  0.0302  0.0122 -0.0194
 6691W        W22825   4.842   3.056  11.452  0.0055 -0.4998 -0.0822
 6692W        W22826  16.124  17.935  11.274 -0.0742 -0.3653  0.1427
 6693W        W22827   6.791   4.170   2.127 -0.1131 -0.0657  0.0882
 6694W        W22828  10.237  13.901   4.050 -0.1920  0.2541 -0.0171
 6695W        W22829   8.991   3.965  11.649 -0.3455 -0.2556  0.0029
 6696W        W22830   1.919  13.289   4.769  0.1263 -0.1860  0.1686
 6697W        W22831   5.726  17.826  13.076 -0.0756  0.0492  0.0431
 6698W        W22832   9.650  18.967  10.843  0.3085 -0.3301 -0.3646
 6699W        W22833  15.821   2.305   2.274  0.2644  0.2831 -0.0938
 6700W        W22834   6.349   0.063   5.254 -0.2670  0.2209  0.1676
 6701W        W22835  17.346  16.116  14.862  0.0012  0.0447 -0.3285
 6702W        W22836   4.805   4.147   4.591  0.1102  0.1124  0.0563
 6703W        W22837  18.158   3.817  11.274  0.0144 -0.0758 -0.1016
 6704W        W22838   2.301  13.781  14.453  0.3869  0.2128 -0.0262
 6705W        W22839  12.170   7.223  14.649  0.0419 -0.0349 -0.0750
 6706W        W22840   3.880   0.711  12.025  0.0602 -0.1583 -0.1501
 6707W        W22841  15.856   8.685   2.982 -0.0151  0.1762  0.1446
 6708W        W22842  16.958   9.220   0.324  0.4707  0.0487 -0.1915
 6709W        W22843   3.123   3.131  10.772 -0.0115  0.0322 -0.1505
 6710W        W22844   2.050  12.797  12.349  0.2517 -0.1705 -0.0268
 6711W        W22845   3.123   5.083  12.046  0.1414  0.0232 -0.1730
 6712W        W22846  14.042  10.941   4.857 -0.0428 -0.3355 -0.1125
 6713W        W22847  14.442  10.750  11.998  0.0406 -0.1142 -0.3495
 6714W        W22848  16.744  14.863  10.412  0.1196  0.2120 -0.0514
 6715W        W22849  12.357  11.798   9.772 -0.1984 -0.0677  0.2627
 6716W        W22850  18.555  14.406   0.000 -0.0462 -0.1041  0.1946
 6717W        W22851   0.463   1.123  13.426  0.1478  0.0892  0.0456
 6718W        W22852  11.508   6.891   0.204  0.1598  0.1607 -0.0991
 6719W        W22853   1.699   3.095  12.505  0.2152 -0.2561  0.2714
 6720W        W22854   7.260  14.339  12.770 -0.0539  0.2842 -0.1308
 6721W        W22855  15.864   2.627   2.598  0.0367  0.0106 -0.0007
 6722W        W22856   8.434   8.349  13.945 -0.0141  0.0934  0.1708
 6723W        W22857  18.469   1.281   5.115 -0.2228 -0.1776 -0.2996
 6724W        W22858   1.190   2.510  12.751 -0.3993  0.0772  0.1769
 6725W        W22859  12.306   2.917   3.544 -0.1993 -0.1656  0.0866
 6726W        W22860  17.029   7.221   0.387 -0.2791  0.0774 -0.1176
 6727W        W22861   6.092   3.581  11.439  0.1423  0.1408 -0.0591
 6728W        W22862   1.450   6.864   4.822 -0.2568  0.0646  0.0347
 6729W        W22863  11.213  14.187   2.871 -0.0863 -0.0909  0.3359
 6730W        W22864   4.849   1.945   1.840  0.0121  0.1021 -0.0723
 6731W        W22865   4.800   5.712   4.226  0.0625  0.1279 -0.2370
 6732W        W22866   3.052  16.387   0.869 -0.3319  0.0138 -0.2574
 6733W        W22867   1.069   2.442  14.859  0.1135 -0.0013  0.1749
 6734W        W22868  13.365   7.870  11.354  0.0490 -0.1386 -0.1521
 6735W        W22869  14.781  17.227  10.564 -0.0328  0.1459 -0.0082
 6736W        W22870  14.907   3.965  11.407 -0.1932 -0.0284  0.2446
 6737W        W22871   1.145   4.524  10.462  0.3046 -0.2682 -0.2920
 6738W        W22872   5.620   6.239  12.589  0.2819  0.0502 -0.0219
 6739W        W22873   9.927  15.399   2.224 -0.3913 -0.1944 -0.0747
 6740W        W22874  13.970   9.572   4.559  0.0074  0.0024  0.1342
 6741W        W22875   2.321   2.100   0.138  0.1330  0.3074  0.1381
 6742W        W22876   7.235  11.912   2.047  0.1909 -0.1441  0.1430
 6743W        W22877  15.984  15.855  12.034 -0.0458 -0.1999  0.2677
 6744W        W22878   3.431   6.757  15.208 -0.0275  0.0634  0.1515
 6745W        W22879   5.959  10.881  12.793 -0.0441 -0.1620 -0.1986
 6746W        W22880   0.279  16.840   4.867  0.1186 -0.0704 -0.0459
 6747W        W22881  18.508   6.996  12.600  0.0109 -0.1605 -0.3441
 6748W        W22882   3.245   0.849  12.614 -0.0223  0.0936  0.1493
 6749W        W22883   1.671  18.730   2.958  0.0262  0.1698 -0.0935
 6750W        W22884   3.448   2.678  11.952  0.1210  0.3612  0.0690
 6751W        W22885   8.490   1.754   4.398  0.0284  0.0372 -0.0800
 6752W        W22886   7.214  17.815   0.995 -0.2840  0.1979  0.0314
 6753W        W22887  11.114   8.812   1.703 -0.1898  0.0880 -0.0742
 6754W        W22888  15.850   2.988  11.591  0.0141  0.0233  0.2391
 6755W        W22889   9.078  11.203   4.381 -0.3154  0.2051  0.0321
 6756W        W22890  15.049   9.294  11.334  0.0442  0.0276 -0.2504
 6757W        W22891   4.170  18.693   4.674  0.2214 -0.2172  0.1278
 6758W        W22892  18.031  17.534  13.332 -0.0429 -0.2010 -0.1820
 6759W        W22893  18.971  18.647  15.239 -0.0315  0.0597  0.0639
 6760W        W22894   6.665   3.733   0.619  0.1342 -0.2215 -0.2050
 6761W        W22895   5.612   1.430  15.182 -0.0430 -0.0492 -0.0038
 6762W        W22896   3.664   4.099  12.630  0.0287 -0.2441 -0.3432
 6763W        W22897  10.549   4.835  13.854 -0.0038 -0.1305  0.1280
 6764W        W22898  16.416  15.714   5.582  0.1166 -0.2460 -0.1419
 6765W        W22899   7.917   1.095  15.034 -0.1046 -0.1481 -0.1414
 6766W        W22900   4.647   9.802  10.870 -0.1320  0.3411  0.1790
 6767W        W22901   3.611   2.975   3.435  0.1894  0.3133  0.1066
 6768W        W22902   5.176  16.182  12.840  0.1787 -0.0959  0.0457
 6769W        W22903  15.223  18.413   2.029 -0.1587 -0.1640 -0.0658
 6770W        W22904  13.061   9.921  11.497 -0.3396 -0.1212 -0.1169
 6771W        W22905   0.018   6.075  13.854  0.1275 -0.2122 -0.0242
 6772W        W22906  11.328   4.912  10.999 -0.1021 -0.0479  0.3438
 6773W        W22907  13.745  13.210  12.038  0.0568 -0.0267  0.1510
 6774W        W22908  14.043   9.881   1.883  0.0195 -0.1574  0.3995
 6775W        W22909   9.586   0.239  13.142 -0.2046  0.0709 -0.0841
 6776W        W22910   5.022  16.352   3.225  0.3111 -0.2905 -0.3590
 6777W        W22911   5.832   8.121   0.154 -0.2465 -0.0490  0.2153
 6778W        W22912   4.769   6.765   1.039 -0.2563  0.2569  0.0735
 6779W        W22913  17.890   3.502  11.686  0.0958 -0.0676 -0.0327
 6780W        W22914   0.481   7.386  13.769  0.1009 -0.0375  0.2463
 6781W        W22915   1.936   2.167  15.105 -0.1826  0.5771  0.3077
 6782W        W22916  14.600   3.251  12.919  0.0860  0.0384  0.0664
 6783W        W22917   7.486   2.112  11.464 -0.2593 -0.0246 -0.2815
 6784W        W22918  13.115  13.581   5.329  0.0438 -0.4487  0.0189
 6785W        W22919   1.209  10.598   4.591 -0.0976 -0.1099 -0.0454
 6786W        W22920  11.718  16.684  14.697  0.1366 -0.3321 -0.0332
 6787W        W22921  17.417  18.341   1.846 -0.3869 -0.0318 -0.1187
 6788W        W22922  17.052  13.180  11.098  0.0290  0.1660 -0.1502
 6789W        W22923  14.688  10.028   0.913 -0.2815  0.0413 -0.1008
 6790W        W22924  10.780   3.779  11.805 -0.1426 -0.1598  0.0367
 6791W        W22925   9.839   0.033  11.301 -0.1870 -0.0506 -0.1969
 6792W        W22926   7.214  13.643   9.280  0.0885  0.0820 -0.1633
 6793W        W22927   2.297   5.203  13.693 -0.2531  0.0011  0.1349
 6794W        W22928  12.111   3.939   4.893  0.0023  0.0584  0.0935
 6795W        W22929   3.148  11.210  11.050 -0.2043 -0.1419 -0.0171
 6796W        W22930  10.806   3.662   1.839 -0.2652  0.0159  0.0582
 6797W        W22931  11.073  17.807   4.163 -0.3850  0.1501 -0.2201
 6798W        W22932  10.629   3.122  14.382 -0.4286 -0.1573  0.0603
 6799W        W22933   0.352  15.592  14.795  0.1118 -0.0442  0.2984
 6800W        W22934   1.579  17.175  12.445  0.0046 -0.0098  0.0422
 6801W        W22935   2.903  18.195  13.104 -0.1911 -0.1756  0.2552
 6802W        W22936  13.652   6.026  12.781  0.0512 -0.1768 -0.0174
 6803W        W22937   3.033   6.381   1.313 -0.2941  0.3414  0.2721
 6804W        W22938  16.721  17.595   4.660 -0.0053 -0.0806  0.1656
 6805W        W22939  16.885   2.508  15.101 -0.3771 -0.0599  0.1897
 6806W        W22940  14.199  10.318  13.644  0.0710  0.4294  0.1157
 6807W        W22941   7.186   6.354  14.485 -0.2523  0.2501 -0.1856
 6808W        W22942   7.782  15.791  14.771 -0.0701 -0.0296  0.0124
 6809W        W22943   5.505   3.190   0.584 -0.1693  0.0005 -0.0843
 6810W        W22944  13.914   8.882  13.424 -0.5090  0.1368 -0.1805
 6811W        W22945   7.043   0.553  14.058  0.1883  0.1485 -0.0014
 6812W        W22946   3.751  14.161  14.408 -0.0393 -0.0759  0.0093
 6813W        W22947  13.954   8.334   0.756 -0.0882  0.3426  0.1069
 6814W        W22948   3.737  14.532   0.957 -0.0902  0.2242  0.0245
 6815W        W22949  15.500   9.162  11.142 -0.0136 -0.0508  0.1766
 6816W        W22950  15.510   4.571  14.197  0.0738  0.0372 -0.0421
 6817W        W22951   9.989   0.178   1.590 -0.2237  0.2372 -0.3068
 6818W        W22952  17.838   5.414   2.258  0.2206 -0.1271  0.1006
 6819W        W22953  10.689  10.436   3.255 -0.0343  0.1045 -0.0678
 6820W        W22954  18.613   5.020   5.634 -0.2276  0.0856  0.1085
 6821W        W22955   0.632   8.412   4.928  0.2203 -0.0478  0.1003
 6822W        W22956  17.636  18.828   2.021  0.0401 -0.0540  0.0754
 6823W        W22957   3.202  16.678  12.024 -0.1484 -0.0160 -0.2020
 6824W        W22958   5.892  12.773   0.274  0.3393 -0.1190  0.0859
 6825W        W22959   7.602  18.341   3.442  0.1064 -0.1985  0.0673
 6826W        W22960  11.428  10.177  13.927 -0.1130  0.2970 -0.1415
 6827W        W22961   5.933  15.129   1.400 -0.0778 -0.0314  0.0667
 6828W        W22962   4.084  18.502  12.655 -0.0276 -0.4410  0.3467
 6829W        W22963   7.329  14.333  10.638 -0.1010  0.2978  0.2788
 6830W        W22964   5.469   2.568  13.489 -0.1168  0.0699  0.0512
 6831W        W22965  12.874   0.225  15.260  0.1546  0.0971 -0.3986
 6832W        W22966   3.579   0.731   1.339 -0.0689 -0.0302 -0.0299
 6833W        W22967   1.475   8.842   4.672 -0.1430  0.2005  0.1119
 6834W        W22968  11.134  13.703  12.007 -0.0574  0.0597  0.0293
 6835W        W22969   2.461   2.562   4.251 -0.0611 -0.0489  0.0824
 6836W        W22970   9.523  18.406   3.803 -0.0049 -0.1257  0.5103
 6837W        W22971   3.341   6.505  14.385  0.0434  0.2260 -0.0510
 6838W        W22972  14.942  16.974   0.702 -0.1932 -0.2257 -0.3919
 6839W        W22973   8.146   4.996   1.554  0.2029 -0.2762  0.0984
 6840W        W22974   1.054   2.346  13.428  0.0678 -0.2599  0.4020
 6841W        W22975  18.211   4.006   0.920  0.0751  0.1106  0.2938
 6842W        W22976  11.261  13.642   0.988  0.1047  0.0803  0.0704
 6843W        W22977   8.669  10.534  11.022  0.0113  0.1514 -0.1265
 6844W        W22978   2.643   2.004  12.095 -0.1230  0.0865  0.0131
 6845W        W22979   7.356   4.869  14.540 -0.1784 -0.0494  0.1847
 6846W        W22980   5.303   1.894  12.110 -0.1895 -0.1772  0.0429
 6847W        W22981   5.405  12.631  14.612  0.0811  0.0963  0.2458
 6848W        W22982  13.005  16.970  11.113 -0.1363 -0.1742  0.1126
 6849W        W22983  11.099   5.459   1.575 -0.1130  0.0256  0.0149
 6850W        W22984  13.033   4.120   4.570  0.1318 -0.1593 -0.0338
 6851W        W22985  16.960   9.826  11.468 -0.0599  0.0099 -0.0176
 6852W        W22986   3.684   8.994   0.577  0.1847 -0.0459  0.1291
 6853W        W22987  12.441  12.833   2.830  0.0739 -0.2630  0.3086
 6854W        W22988  16.768  13.061  15.259  0.2915  0.0087  0.0257
 6855W        W22989   5.820  14.585   1.302 -0.0095  0.2100  0.0425
 6856W        W22990   7.751   3.794   2.469  0.1824 -0.4837 -0.2104
 6857W        W22991   1.390   4.700   3.818 -0.3068  0.0874  0.2705
 6858W        W22992   9.007   8.203   2.496  0.4470  0.2008  0.3907
 6859W        W22993   2.177  18.526   2.919  0.1358  0.3861 -0.2987
 6860W        W22994   5.061  15.006  13.140  0.0801  0.2966 -0.0374
 6861W        W22995  11.633  17.717   3.159 -0.1085  0.2356 -0.1475
 6862W        W22996  10.406   7.984   4.281 -0.2204  0.3018 -0.1602
 6863W        W22997  12.032  11.709   0.895 -0.2232  0.0892  0.0375
 6864W        W22998  17.116  10.679  10.846  0.3350  0.1724 -0.2010
 6865W        W22999   9.505  16.957   2.176 -0.0686 -0.1428  0.1037
 6866W        W23000  17.001   8.825  12.747 -0.0619  0.0287  0.0312
 6867W        W23001   1.481  18.074   1.718 -0.0063  0.0163 -0.1963
 6868W        W23002   6.947   1.195  15.029  0.0239  0.0624  0.1978
 6869W        W23003  14.517   2.671  14.564 -0.2133  0.0341 -0.0990
 6870W        W23004   9.812  15.265   2.950 -0.1057  0.3953  0.3650
 6871W        W23005   3.788  11.973   3.956  0.2773 -0.0420 -0.0813
 6872W        W23006   1.304   3.662   3.875  0.1578  0.3602 -0.0629
 6873W        W23007   9.306  18.627   2.901 -0.5386  0.2100  0.4221
 6874W        W23008  16.402  17.759  12.059 -0.2106 -0.1849 -0.2370
 6875W        W23009  14.057   3.362   4.516  0.1487 -0.1238 -0.0829
 6876W        W23010   8.966   0.705   0.339 -0.2452  0.1562  0.3094
 6877W        W23011  11.512  10.706   3.919  0.3066 -0.2370  0.1630
 6878W        W23012  10.473  17.255  11.722  0.0013 -0.0695 -0.2884
 6879W        W23013  12.112  15.504  13.349  0.0828 -0.0621 -0.2003
 6880W        W23014  11.624   3.323  12.648 -0.0452 -0.7300 -0.1459
 6881W        W23015  12.847   7.955   0.211 -0.0138  0.0403  0.1756
 6882W        W23016  10.497   9.643  11.390  0.1296  0.3230 -0.0878
 6883W        W23017   3.619  16.032   9.733 -0.0374  0.2045  0.0868
 6884W        W23018   9.261  14.784  13.224  0.2755  0.0693  0.0497
 6885W        W23019  13.052  16.222  15.161  0.1619  0.0313  0.2261
 6886W        W23020  10.971   0.471  13.062 -0.0211 -0.0862  0.2183
 6887W        W23021   7.264  14.818   1.857  0.2324  0.0851 -0.4239
 6888W        W23022  14.845  10.841  15.175  0.0296  0.2261  0.3411
 6889W        W23023  13.406  16.653   9.762 -0.2008 -0.2782  0.0522
 6890W        W23024   9.881  11.150   2.365  0.1542  0.2807  0.3552
 6891W        W23025   8.341   2.677   1.500 -0.2660  0.3790  0.2519
 6892W        W23026  12.289   2.632   1.095  0.1047  0.0148 -0.1242
 6893W        W23027   4.045  11.499   3.351 -0.1127 -0.0739 -0.0964
 6894W        W23028  16.459   7.099  14.823  0.0368 -0.0248 -0.0927
 6895W        W23029   6.214  13.092  14.271  0.0108  0.2159 -0.0350
 6896W        W23030  10.039  17.990   1.278 -0.0079  0.2018 -0.1922
 6897W        W23031   0.149  13.063  13.461 -0.2006 -0.1206 -0.0111
 6898W        W23032   7.028   6.397  13.575  0.2184  0.1047  0.1994
 6899W        W23033  17.163   8.686   1.679  0.0595  0.1600  0.1011
 6900W        W23034   2.381  11.571   0.004  0.1409  0.2416 -0.1647
 6901W        W23035  10.777  12.460  11.663  0.1902 -0.1465  0.0724
 6902W        W23036  18.548  11.715   2.843  0.0228 -0.1909  0.4562
 6903W        W23037  13.305   3.648  13.800 -0.1243  0.0034 -0.1638
 6904W        W23038   9.996   8.520  13.129 -0.2059  0.1543  0.1323
 6905W        W23039   1.742  12.063   5.150  0.0437 -0.0291 -0.0173
 6906W        W23040  14.995   3.013   0.677 -0.1127  0.0632 -0.2209
 6907W        W23041   2.894   9.464  12.245  0.1294 -0.2185 -0.1869
 6908W        W23042   7.007   4.282  12.748 -0.1147  0.1145 -0.2123
 6909W        W23043   4.040  10.087   1.698  0.0482 -0.1718 -0.2936
 6910W        W23044  12.926   3.592  10.215 -0.1673  0.1799 -0.0689
 6911W        W23045   7.165   1.011  10.836  0.1625  0.2955  0.0555
 6912W        W23046  16.461   3.510   2.597  0.1009  0.1618 -0.1067
 6913W        W23047   4.217   3.462   1.798  0.1142 -0.0121 -0.2441
 6914W        W23048  18.136  16.668  14.269  0.1878 -0.2988  0.3789
 6915W        W23049  10.894  17.682   2.282  0.0861  0.0566  0.1525
 6916W        W23050   7.850   9.791   1.008 -0.0026 -0.1085 -0.1883
 6917W        W23051   7.272   0.299   4.900 -0.0453  0.2593  0.1249
 6918W        W23052  12.414  10.612   1.396  0.2026  0.0768 -0.0726
 6919W        W23053   1.904  13.379   2.090 -0.2008  0.0727 -0.2277
 6920W        W23054  13.557  18.171   1.280 -0.1942  0.1606  0.4941
 6921W        W23055   6.332  10.500  11.615  0.0783 -0.3553  0.3060
 6922W        W23056  10.349  12.348  13.518 -0.0265 -0.0513 -0.0549
 6923W        W23057   3.793   8.301   3.390 -0.2034  0.1280  0.0054
 6924W        W23058  18.222  11.639   1.510 -0.2305 -0.1825 -0.0436
 6925W        W23059  17.946   2.016  11.618  0.1246 -0.0105  0.1235
 6926W        W23060   4.353   0.393   2.298  0.0572  0.2580  0.2770
 6927W        W23061  14.619   0.044   1.588 -0.0522 -0.1979 -0.1430
 6928W        W23062   5.353  15.065  13.934  0.2010 -0.0563  0.1938
 6929W        W23063   3.591   0.185   1.993 -0.1100 -0.0747  0.0128
 6930W        W23064  15.434  17.448   3.385  0.0889 -0.0723  0.0987
 6931W        W23065  14.523   5.573  11.461  0.0506  0.2078  0.0897
 6932W        W23066   1.489  11.932   0.403 -0.0674 -0.1894  0.0426
 6933W        W23067   9.789  12.620   3.936  0.1149  0.2683 -0.2256
 6934W        W23068  14.935  14.115  10.045 -0.0268  0.1578 -0.0755
 6935W        W23069   1.290   1.685  13.310  0.1993 -0.0583  0.0181
 6936W        W23070   9.048  15.409   3.970  0.0085 -0.0141  0.2271
 6937W        W23071   0.384  15.143   4.249  0.0346  0.3384 -0.1921
 6938W        W23072  11.852  13.634   9.612 -0.0790 -0.0712 -0.1451
 6939W        W23073   1.562   0.642   4.491  0.1095  0.1699  0.3306
 6940W        W23074  15.412  18.038   5.041 -0.1598  0.1874 -0.3218
 6941W        W23075  13.354  18.858   1.492 -0.0357 -0.1414  0.0764
 6942W        W23076  17.656  16.431  11.361  0.0591 -0.2958 -0.0763
 6943W        W23077  18.471  12.586   3.704 -0.0636  0.0435 -0.1751
 6944W        W23078  17.351   5.966   0.912  0.2242  0.1893  0.1227
 6945W        W23079   5.020   7.393  11.152 -0.0332  0.0034  0.0887
 6946W        W23080   6.926   5.459   0.775 -0.2501 -0.1930  0.4468
 6947W        W23081  16.859  14.572   4.928  0.1571 -0.0741 -0.0203
 6948W        W23082  10.620  14.198  13.830 -0.0142  0.0301 -0.3630
 6949W        W23083  16.434  14.581   5.702 -0.1526 -0.0733 -0.3517
 6950W        W23084  13.903  10.009  15.031 -0.3056 -0.2962  0.2031
 6951W        W23085   8.340   7.390   9.724  0.0846  0.1890 -0.0324
 6952W        W23086   9.406  15.910   3.132  0.0338 -0.2248 -0.2498
 6953W        W23087   6.179  12.373  10.833 -0.1298  0.1474  0.0475
 6954W        W23088   6.413  16.252   1.607 -0.0013 -0.0261  0.0104
 6955W        W23089   4.184  15.161   1.640 -0.0386 -0.1513 -0.0211
 6956W        W23090   7.863   3.255  10.997  0.1496  0.0694  0.0528
 6957W        W23091  18.950  13.653  13.747  0.2500  0.1150  0.0507
 6958W        W23092  11.789   2.206  11.401  0.0398  0.1904 -0.1320
 6959W        W23093   2.212   0.178  15.108  0.4291  0.0929 -0.2896
 6960W        W23094   7.375  15.198   5.926 -0.1447  0.0272 -0.1101
 6961W        W23095  18.004   8.536  13.558  0.0071 -0.2597 -0.2763
 6962W        W23096  12.138  17.663   2.135 -0.2512  0.2370  0.2636
 6963W        W23097   3.381  17.354   2.310  0.1696  0.0575 -0.1217
 6964W        W23098   0.593   4.856   4.142 -0.3195 -0.2382  0.0886
 6965W        W23099  11.186  13.840   5.319 -0.0851  0.3602  0.0793
 6966W        W23100  15.977  15.953  12.601 -0.0342 -0.2349  0.2914
 6967W        W23101   3.709   1.866   1.161  0.3183 -0.2082  0.2508
 6968W        W23102   1.466  13.959  13.599  0.0870  0.2048  0.0805
 6969W        W23103  16.013   4.902   3.245 -0.0871  0.1084  0.0264
 6970W        W23104   6.653  10.473   4.902 -0.1208  0.1656  0.0242
 6971W        W23105   0.963   1.386  11.915  0.2106 -0.2548  0.2655
 6972W        W23106  13.254   6.455   4.783 -0.3357  0.0481 -0.0324
 6973W        W23107  13.456   7.464  14.490 -0.1362 -0.2204 -0.1253
 6974W        W23108  16.827   6.057   0.884  0.0602  0.3232  0.2468
 6975W        W23109  16.886   0.519  11.723  0.0979 -0.3232 -0.0011
 6976W        W23110  17.906   0.377  13.991 -0.2512  0.1643 -0.1315
 6977W        W23111   2.195   1.440   3.037 -0.3204  0.0695 -0.0677
 6978W        W23112   5.687  14.357   0.379 -0.2692 -0.0650 -0.0759
 6979W        W23113  11.914   1.003   3.277 -0.0138 -0.1266  0.0272
 6980W        W23114   8.522  16.589   1.239  0.3562  0.0869  0.0131
 6981W        W23115  11.683   2.177  12.938  0.0698 -0.2621 -0.3367
 6982W        W23116   5.480  17.127   4.508 -0.0835  0.1641 -0.1001
 6983W        W23117   9.351   6.065   4.013  0.0767 -0.0602  0.1082
 6984W        W23118   0.083  12.237   0.102 -0.0647  0.2893  0.1410
 6985W        W23119  12.222   9.637  11.686 -0.2342 -0.2667 -0.1744
 6986W        W23120   5.891  10.962   4.081  0.1514  0.0165 -0.1183
 6987W        W23121  14.804  17.914  15.119 -0.1127  0.2624  0.1790
 6988W        W23122   1.638   6.711  10.674 -0.0641 -0.0123  0.1687
 6989W        W23123   5.874  15.784   5.012  0.4484 -0.2409  0.1628
 6990W        W23124   5.227   9.227  12.734  0.0157  0.1394 -0.2723
 6991W        W23125   4.853   1.533  12.201  0.0679 -0.0255  0.2204
 6992W        W23126   5.520   2.061  13.628 -0.1605  0.3095 -0.0881
 6993W        W23127   8.440  16.742  12.937 -0.0448  0.2145  0.2481
 6994W        W23128  18.656  10.456  12.892 -0.1355  0.3576 -0.2991
 6995W        W23129  10.380  10.308  14.409 -0.2127  0.2089 -0.0967
 6996W        W23130  13.747  18.200   5.101  0.0396  0.0592  0.0206
 6997W        W23131   2.154  14.470  12.260  0.0697  0.2592 -0.1980
 6998W        W23132   9.085  14.595  14.484  0.0369  0.0532 -0.1418
 6999W        W23133  12.940  18.881  14.837  0.2830 -0.0920  0.1398
 7000W        W23134   5.832   8.328  11.993 -0.1462  0.1452 -0.1645
 7001W        W23135  11.710   4.904   3.768  0.1579 -0.0668 -0.0806
 7002W        W23136  17.243   5.130   0.389 -0.0172  0.0694  0.0660
 7003W        W23137   1.370   6.217   1.406 -0.0631 -0.1965 -0.1349
 7004W        W23138  10.687  10.844   1.565  0.0064 -0.1648 -0.3094
 7005W        W23139  12.188   0.325  14.987 -0.1017  0.3320  0.1813
 7006W        W23140  17.761   2.700  14.574  0.0616 -0.0270 -0.3235
 7007W        W23141   5.754   4.935   2.376 -0.0942 -0.4157 -0.0067
 7008W        W23142  16.896  18.574   4.236  0.0057 -0.1226  0.1062
 7009W        W23143   0.849  11.242   4.603 -0.0929 -0.1149 -0.1335
 7010W        W23144   0.043  18.182   0.264 -0.0107 -0.1203 -0.1600
 7011W        W23145   6.841   1.840   1.313  0.1024 -0.0596 -0.1552
 7012W        W23146   9.575  18.575  13.847 -0.2305 -0.1493 -0.1889
 7013W        W23147   2.380  17.391  12.818  0.1373  0.2113  0.0886
 7014W        W23148  13.406  17.475  11.788  0.0154  0.1925 -0.1433
 7015W        W23149   1.299  16.925   5.274 -0.2375  0.1044 -0.2860
 7016W        W23150   3.104  16.482   0.064 -0.0183  0.0276  0.4229
 7017W        W23151   8.903  10.075   2.436  0.0637 -0.0612  0.2764
 7018W        W23152   4.281  17.441   2.405 -0.0849  0.1322 -0.3246
 7019W        W23153  17.321  18.554  14.479 -0.0312  0.3222  0.4783
 7020W        W23154  10.089   4.381   4.785 -0.1334  0.0408  0.2151
 7021W        W23155   3.068   4.044   1.106  0.2766  0.0173 -0.1756
 7022W        W23156   6.017  15.354   1.995  0.0367 -0.2107 -0.0833
 7023W        W23157   3.260  11.295  13.384 -0.3890  0.1300 -0.2480
 7024W        W23158   5.259  16.694   3.605 -0.1284  0.2255 -0.0802
 7025W        W23159   8.506  14.542  15.247  0.0434  0.1188 -0.0918
 7026W        W23160  15.560  18.707   3.536 -0.1145 -0.0343  0.1953
 7027W        W23161  16.025  15.388  12.777 -0.0851  0.0094  0.0839
 7028W        W23162   6.729  18.756  11.579  0.1138  0.1290  0.0801
 7029W        W23163   1.411  13.298   1.100  0.2124  0.2864  0.1670
 7030W        W23164  13.017  11.420   1.212 -0.2798  0.1265 -0.1225
 7031W        W23165   5.848  11.388   3.437 -0.2423 -0.0978  0.1710
 7032W        W23166   5.344   6.593   3.177  0.1451 -0.2346 -0.0244
 7033W        W23167   5.398   4.733  12.178  0.2910  0.1623  0.1781
 7034W        W23168   9.021  17.488  13.283  0.2590 -0.3582 -0.0954
 7035W        W23169   7.016  14.499   2.834  0.0552 -0.0751  0.0595
 7036W        W23170   0.438   1.117   3.815  0.0854 -0.0606  0.1568
 7037W        W23171  18.658   6.291  14.363 -0.4798 -0.0441 -0.0059
 7038W        W23172   2.547  14.521  14.089 -0.0842  0.0440 -0.1265
 7039W        W23173   2.974   8.708  13.269 -0.1803  0.0608  0.2326
 7040W        W23174  15.200   6.790  12.656 -0.0571  0.2724 -0.1610
 7041W        W23175   7.473  11.475  10.394  0.2581 -0.2921 -0.0655
 7042W        W23176   7.316   1.564  15.174 -0.1427 -0.3501  0.1049
 7043W        W23177   9.137   3.317  12.582 -0.2266 -0.2099 -0.0581
 7044W        W23178  15.397   6.161   1.378  0.3346  0.0382 -0.0364
 7045W        W23179  11.162  12.316  12.005 -0.0437 -0.1882  0.1559
 7046W        W23180  13.456  10.162  11.817  0.4437 -0.0016  0.1682
 7047W        W23181   8.953  13.206  12.645 -0.0578 -0.0519  0.1425
 7048W        W23182   8.820  15.647  11.617  0.1843 -0.1743  0.1126
 7049W        W23183   3.106  17.264   4.604 -0.1906  0.2067  0.2514
 7050W        W23184  12.724  18.884   3.932  0.1475  0.1758  0.1822
 7051W        W23185   6.995   7.382   1.151 -0.2806  0.2019 -0.1705
 7052W        W23186  15.718  15.758  13.755  0.2059 -0.0234 -0.3066
 7053W        W23187  14.634   4.366  14.539 -0.0464  0.3297  0.0649
 7054W        W23188   7.058   2.416   4.651  0.3477  0.5148  0.1634
 7055W        W23189  18.303   2.168  11.243 -0.0749 -0.3548  0.0004
 7056W        W23190  14.665   8.325   4.443 -0.2864  0.0915 -0.4265
 7057W        W23191  11.794  10.746   1.583 -0.3043 -0.1715  0.1476
 7058W        W23192  15.350  16.372  14.879 -0.1531 -0.0875  0.0260
 7059W        W23193  10.621   5.723  13.467 -0.0711  0.1002  0.0211
 7060W        W23194   3.608   5.066  11.668  0.1983 -0.0820 -0.0703
 7061W        W23195   1.154   8.079   4.872  0.0158 -0.3310  0.0175
 7062W        W23196   5.730  15.173  11.959 -0.0679 -0.3421 -0.0485
 7063W        W23197   7.605   4.759   2.627  0.2624 -0.0047  0.0351
 7064W        W23198   4.470   8.386   1.252  0.1226  0.0224  0.1079
 7065W        W23199  18.284  13.760  11.633  0.0670  0.1932  0.1441
 7066W        W23200   8.185  13.959  11.691 -0.0010  0.3211  0.1295
 7067W        W23201   0.060   9.305  11.737  0.1393  0.0134  0.0340
 7068W        W23202   8.917  11.148   3.553 -0.0973  0.0770 -0.0142
 7069W        W23203   7.059  12.971   3.478 -0.2410 -0.2294 -0.0892
 7070W        W23204   6.846  10.164   4.384 -0.0780 -0.0785 -0.0647
 7071W        W23205  17.200   2.153  14.855 -0.1694  0.2401 -0.2569
 7072W        W23206  16.201   2.181  14.732 -0.0936 -0.3218  0.1640
 7073W        W23207  18.949   9.619   3.951 -0.1318 -0.0643  0.0297
 7074W        W23208   0.479  12.217  12.612  0.0426  0.1811  0.0502
 7075W        W23209  16.373  17.747   4.988 -0.2338  0.0430 -0.1442
 7076W        W23210  14.518   8.640   0.730  0.1550  0.3787 -0.0178
 7077W        W23211   8.244  16.661  11.724 -0.2445  0.4327  0.0789
 7078W        W23212  13.246   7.372   0.663 -0.1005  0.4301  0.2476
 7079W        W23213   2.372  11.617   1.510 -0.2485 -0.1491  0.2591
 7080W        W23214   2.400   6.697  10.066  0.0906  0.1941  0.1626
 7081W        W23215   6.229  18.725   2.204  0.0500 -0.0433  0.3096
 7082W        W23216  13.976  10.229  10.527 -0.1560 -0.4623 -0.0282
 7083W        W23217  13.749   7.378   0.430  0.1293 -0.2267 -0.2836
 7084W        W23218   6.876  15.764   9.739 -0.1493  0.3170 -0.0332
 7085W        W23219  11.072  16.127   4.217 -0.1511 -0.0928  0.0245
 7086W        W23220  15.621  18.787  13.070 -0.4190  0.0226  0.1941
 7087W        W23221   8.260  12.929  12.128 -0.0513  0.0289 -0.1013
 7088W        W23222  10.977   5.160  12.092  0.1745  0.1790  0.1086
 7089W        W23223  16.095   5.028   3.701  0.0124 -0.3079 -0.1117
 7090W        W23224  11.346  18.544   3.724 -0.0415  0.1796 -0.1226
 7091W        W23225   9.313  11.501  10.803 -0.0673 -0.4180 -0.1272
 7092W        W23226   7.621  17.840   3.788 -0.0117 -0.0075  0.4121
 7093W        W23227   3.401   5.209  13.777 -0.0351  0.1475  0.3261
 7094W        W23228   3.704  11.886  12.872  0.1091  0.0595  0.1642
 7095W        W23229  11.241   7.545  14.674 -0.1176  0.2110  0.3959
 7096W        W23230   8.537   3.006   3.880  0.0163  0.0112 -0.1997
 7097W        W23231  14.664  18.255   3.730  0.0747 -0.2428  0.3365
 7098W        W23232  11.984   6.311  14.300 -0.2035 -0.0219  0.1071
 7099W        W23233   7.588  18.161  11.024  0.3178  0.1361  0.0098
 7100W        W23234   5.942  18.580   1.834  0.0182 -0.3235  0.2911
 7101W        W23235  13.610  13.447  14.106  0.2539  0.0579  0.0278
 7102W        W23236  10.290  11.560   2.416  0.1704 -0.0180 -0.0598
 7103W        W23237   0.931   0.470   2.518 -0.0146 -0.1998  0.1859
 7104W        W23238   7.993   1.154   1.627  0.0616  0.2257 -0.2792
 7105W        W23239   1.249  11.628  10.894  0.2313  0.4323  0.2783
 7106W        W23240   2.301   3.391   1.874 -0.1855 -0.2033  0.1510
 7107W        W23241   8.363   4.654  15.228 -0.0354 -0.0079 -0.1412
 7108W        W23242   9.815  14.457  14.314  0.1824 -0.1459 -0.0606
 7109W        W23243   5.685  13.955   1.665 -0.0563  0.1428  0.1156
 7110W        W23244   7.394   1.135  13.612 -0.1566  0.0762  0.1453
 7111W        W23245   1.240   6.432  12.098  0.4267 -0.2065 -0.1593
 7112W        W23246  12.422  10.197  10.936  0.1174 -0.1059  0.2097
 7113W        W23247   1.526  16.792  12.060 -0.1179 -0.1294  0.1736
 7114W        W23248  14.728   8.113   4.003 -0.1556  0.2811  0.2482
 7115W        W23249  10.884   7.395  11.429  0.2768 -0.0267  0.1263
 7116W        W23250  16.483  11.423  14.269 -0.2520  0.0399 -0.3327
 7117W        W23251  17.283   1.630   3.760 -0.2696  0.2870  0.1699
 7118W        W23252  16.939   3.172   0.289  0.1124  0.3569 -0.0820
 7119W        W23253   4.679  14.496   3.941 -0.1254  0.0137 -0.0965
 7120W        W23254  18.611   7.376   9.630 -0.0400  0.1255  0.3646
 7121W        W23255   6.751  16.787  12.791 -0.2368  0.0490 -0.1570
 7122W        W23256  12.492  13.776   4.763 -0.1074  0.1341  0.2611
 7123W        W23257  17.827   7.692   2.868 -0.0569 -0.0832 -0.0485
 7124W        W23258  18.553   9.687   5.114 -0.0322  0.0398  0.3473
 7125W        W23259  16.546   9.762  13.045 -0.2986 -0.0825 -0.3521
 7126W        W23260   1.798   3.170   3.666 -0.0988  0.0054  0.1359
 7127W        W23261  15.754  18.668  10.525  0.2177  0.2034 -0.1087
 7128W        W23262   7.127  16.506   4.625 -0.0497  0.1120  0.2072
 7129W        W23263  16.401  10.774  14.518  0.0278  0.0755  0.0138
 7130W        W23264  16.752  18.737  12.818  0.0280 -0.1056  0.1825
 7131W        W23265   0.200  16.030   0.840  0.2544  0.0421  0.0546
 7132W        W23266   3.333   9.115  12.149 -0.0075  0.1261 -0.1164
 7133W        W23267   3.312   3.367  14.171  0.2259 -0.2753 -0.2091
 7134W        W23268   5.347   7.138  14.908  0.1927 -0.0541 -0.0534
 7135W        W23269   0.995  15.491  13.594 -0.2221  0.2494 -0.4087
 7136W        W23270   1.691  11.411   3.014  0.1368 -0.0760 -0.3722
 7137W        W23271   5.422  15.548  12.205  0.0522  0.0498 -0.0765
 7138W        W23272  17.526  11.581   1.966  0.4383  0.1347  0.0778
 7139W        W23273  14.327   0.408   3.199 -0.4237 -0.1724  0.1913
 7140W        W23274  11.194   5.162   4.717 -0.0039  0.0556  0.3310
 7141W        W23275  14.618   4.821  10.465 -0.2349 -0.1427  0.0561
 7142W        W23276  14.264  14.653  11.062 -0.1357 -0.1808  0.0481
 7143W        W23277   1.386   3.646   0.487 -0.2371 -0.4941  0.2318
 7144W        W23278  18.958  16.460   4.642  0.1293  0.2178 -0.1201
 7145W        W23279   8.695   9.594   2.528 -0.1051  0.2630 -0.2445
 7146W        W23280   9.645  18.974   2.822 -0.0555 -0.3283  0.2953
 7147W        W23281   5.500  14.131  10.327 -0.0888 -0.2624 -0.0484
 7148W        W23282  15.337   9.532   4.285  0.0665 -0.2062  0.1232
 7149W        W23283   1.587   9.957  13.752  0.0025 -0.1705 -0.0766
 7150W        W23284  12.197   0.518  13.029 -0.3148  0.1322  0.2555
 7151W        W23285   4.925  10.056   4.970  0.1049  0.1561  0.0798
 7152W        W23286  11.911  12.350  15.260 -0.1392 -0.2522 -0.2516
 7153W        W23287  13.136  18.680  13.471 -0.0010  0.1783 -0.0586
 7154W        W23288  18.552   7.429  15.117  0.3133  0.1294 -0.2349
 7155W        W23289   2.660   4.667   3.303 -0.1072 -0.0380 -0.0272
 7156W        W23290  15.172   6.549   2.806 -0.1683  0.1703  0.3597
 7157W        W23291  16.455   4.414   4.542  0.0090  0.0097  0.1008
 7158W        W23292   5.565   7.929   5.473  0.4503  0.1282 -0.1377
 7159W        W23293   9.564   5.590   4.041 -0.1606 -0.2962 -0.0660
 7160W        W23294  17.824   9.683  12.041 -0.0955  0.0732  0.1653
 7161W        W23295   5.125   9.457   2.906  0.3348 -0.3742  0.2999
 7162W        W23296  16.783   8.696   0.698  0.1107 -0.1567 -0.2346
 7163W        W23297   8.792  13.697  15.038  0.4216 -0.4119 -0.1866
 7164W        W23298  11.871  18.006  11.725 -0.0888  0.1431  0.1940
 7165W        W23299   5.869   6.381  14.959  0.0130 -0.2840  0.0614
 7166W        W23300   1.563  16.079   2.505  0.4203 -0.1689 -0.0073
 7167W        W23301   5.933   5.355   2.731  0.1221  0.2288 -0.1102
 7168W        W23302   8.780  15.489   3.574 -0.0073  0.0879  0.0091
 7169W        W23303   3.247  13.755   3.405  0.0132  0.2533  0.0774
 7170W        W23304  12.254  17.544   0.184  0.2182 -0.0351 -0.0232
 7171W        W23305  10.381   4.414   2.149 -0.0985  0.1615  0.1730
 7172W        W23306  14.998   2.590  12.407  0.1082 -0.2007  0.0290
 7173W        W23307  13.174  17.994  14.610  0.1283  0.0942  0.0418
 7174W        W23308  18.980  14.479  11.010  0.1373  0.4095  0.1070
 7175W        W23309   0.985   1.838   3.433 -0.4136  0.3781  0.0169
 7176W        W23310  16.203   9.835   3.144 -0.0281 -0.4180  0.0551
 7177W        W23311  11.866   4.440  13.135 -0.0329  0.0043 -0.2708
 7178W        W23312   8.285   6.982  14.376  0.2568 -0.1728 -0.3222
 7179W        W23313  10.805  17.025   3.956  0.1843 -0.0846 -0.0555
 7180W        W23314   2.365   6.193   3.976 -0.0556  0.3712 -0.3083
 7181W        W23315  18.816  12.903  12.545  0.3998  0.1580  0.3814
 7182W        W23316  16.827   8.449  11.564  0.1752  0.2868  0.2620
 7183W        W23317  10.755  13.738  10.404 -0.1752 -0.3441 -0.1831
 7184W        W23318   7.154   7.725   1.955  0.2281  0.0921  0.2971
 7185W        W23319  15.534   3.674   2.310  0.0393 -0.0618  0.1293
 7186W        W23320   0.217   9.106  13.967 -0.2961 -0.4372 -0.1011
 7187W        W23321  12.049  16.254  13.489 -0.2569  0.2700 -0.1629
 7188W        W23322   1.754   2.197  14.248 -0.1902 -0.0837  0.1672
 7189W        W23323   3.041   3.824   4.562  0.1323 -0.2127  0.3189
 7190W        W23324   1.770   4.739  11.082 -0.1436  0.0728 -0.0545
 7191W        W23325  14.448  14.260  10.117 -0.0373 -0.2300  0.0714
 7192W        W23326   4.072   1.548  13.413 -0.2797  0.1583 -0.1157
 7193W        W23327  17.932   1.613  14.660  0.1705 -0.0267 -0.1995
 7194W        W23328  14.405   8.858   2.026 -0.1341  0.0184 -0.2898
 7195W        W23329   7.159   7.524  10.403  0.5364 -0.1486  0.1135
 7196W        W23330   6.083   4.626   3.816 -0.0289 -0.0031 -0.0898
 7197W        W23331   7.957   7.499   4.071  0.0356  0.0591 -0.0053
 7198W        W23332   2.259   4.569   2.977 -0.1858  0.1390  0.0364
 7199W        W23333   0.646   5.321   1.478 -0.2670  0.1283  0.2840
 7200W        W23334   4.944   6.967  12.333 -0.0742 -0.1451 -0.1187
 7201W        W23335  15.339   1.293   4.830  0.0355  0.0206  0.0139
 7202W        W23336  12.566  11.957  12.530 -0.1742 -0.0704  0.1142
 7203W        W23337   5.308   9.232   4.050 -0.1673  0.1637 -0.0939
 7204W        W23338  15.801  12.226  14.116 -0.1617 -0.3496 -0.1043
 7205W        W23339  16.125   8.813   1.679  0.0039 -0.1625 -0.0351
 7206W        W23340  18.861  10.012   4.944  0.0698 -0.0593 -0.0330
 7207W        W23341  17.541   9.236   2.449  0.0350 -0.0791 -0.0340
 7208W        W23342   1.421   3.099  11.502 -0.0358 -0.0369  0.0123
 7209W        W23343   2.103   4.458   1.554 -0.1378  0.1499  0.0181
 7210W        W23344  15.464   3.780  12.878 -0.0030  0.3378 -0.0400
 7211W        W23345   6.406   9.960  14.740 -0.1647  0.4307 -0.2282
 7212W        W23346   1.360   7.747  10.731 -0.2139 -0.0336 -0.1869
 7213W        W23347   5.217   7.225   1.943  0.0470 -0.1624  0.2023
 7214W        W23348   6.799  10.231  13.975 -0.1137 -0.2732 -0.1777
 7215W        W23349  10.535  16.971   0.555  0.1594  0.0161 -0.6674
 7216W        W23350   5.698  13.654  12.944  0.2689  0.2072 -0.0960
 7217W        W23351   5.647   8.774  11.250 -0.0645 -0.0012  0.0809
 7218W        W23352  18.493   9.797   4.157  0.1046  0.2171 -0.0759
 7219W        W23353  18.760  17.367   4.092  0.1456  0.0033 -0.0039
 7220W        W23354  17.473  16.432  12.720 -0.0407 -0.2059 -0.2286
 7221W        W23355  10.741   0.924   3.263 -0.0194  0.1867 -0.1209
 7222W        W23356   6.283   1.189   1.487  0.0074 -0.0125 -0.1439
 7223W        W23357   6.257   4.014   3.000  0.1231  0.1468 -0.0560
 7224W        W23358   2.917   6.644  14.149  0.1068  0.0821  0.2466
 7225W        W23359  16.936  12.994  12.525 -0.0645  0.2619 -0.0482
 7226W        W23360   9.677  14.536  11.314  0.1952  0.5318 -0.0123
 7227W        W23361  17.215  12.519  14.818 -0.4395 -0.2799  0.2044
 7228W        W23362   9.063   1.329  13.821  0.2929 -0.1248 -0.0618
 7229W        W23363  15.498   2.047  13.030 -0.0222 -0.3135 -0.3760
 7230W        W23364   3.922  13.803   5.401  0.1095  0.0466 -0.1220
 7231W        W23365  13.245   5.585   0.802  0.0226  0.0001  0.0232
 7232W        W23366   7.917  17.047   0.675  0.1593  0.0864  0.0616
 7233W        W23367   8.134  11.470  15.033 -0.0926  0.1587 -0.0799
 7234W        W23368  10.293  14.949  15.136 -0.3373  0.2038 -0.1811
 7235W        W23369   4.396   1.270   1.455  0.0982  0.2255  0.0960
 7236W        W23370  14.835  16.951   0.085 -0.2929 -0.0598  0.1364
 7237W        W23371   4.996  18.970   5.234 -0.2159 -0.1679  0.0023
 7238W        W23372   8.566   7.220  14.021 -0.0682  0.0945  0.1819
 7239W        W23373   5.778  10.209   1.097  0.0503  0.0291 -0.2125
 7240W        W23374  16.200  17.254  12.129 -0.1442  0.0380  0.1333
 7241W        W23375  14.288   3.036  11.661 -0.1557  0.0584  0.2554
 7242W        W23376   4.098   6.345  11.395 -0.0493  0.1157 -0.0015
 7243W        W23377   8.474  15.833   5.364  0.1031  0.3264 -0.2452
 7244W        W23378   3.576   0.836   4.461  0.0371  0.1917 -0.1848
 7245W        W23379  16.058  17.553   5.821  0.1364  0.3197  0.0435
 7246W        W23380  15.511  14.911   5.264 -0.2178  0.0579 -0.0175
 7247W        W23381  13.147  12.774  15.194  0.0857 -0.0522  0.1704
 7248W        W23382   5.615   9.914  13.697  0.0059  0.0478  0.3001
 7249W        W23383  18.750   5.202  10.281  0.2058 -0.5255  0.4431
 7250W        W23384   2.046  12.351   3.938 -0.0391  0.3878 -0.3610
 7251W        W23385  15.143   8.325  14.653 -0.3828  0.3092  0.0627
 7252W        W23386  13.435  11.005  14.501 -0.1184 -0.2018  0.2810
 7253W        W23387   5.971  14.302  11.700  0.3219 -0.1460 -0.0157
 7254W        W23388  15.219  14.674  10.756  0.1219 -0.1880  0.1507
 7255W        W23389  13.142   7.254  13.326  0.2318 -0.2457 -0.1003
 7256W        W23390   0.914   3.603  12.216  0.3529 -0.1590  0.1082
 7257W        W23391  14.182   9.087   4.396 -0.1102 -0.0821  0.3559
 7258W        W23392  14.872   3.760  15.229  0.1124  0.1281  0.0630
 7259W        W23393   6.399   4.695  11.417 -0.1001  0.2524 -0.1525
 7260W        W23394  10.027   1.687   3.650  0.3570 -0.0305  0.2065
 7261W        W23395  13.565  13.726   1.886  0.4322 -0.0363 -0.3304
 7262W        W23396   7.082   7.572   3.826 -0.1366 -0.2327  0.3141
 7263W        W23397  18.011   7.684  13.623  0.1347  0.1594  0.2517
 7264W        W23398   0.999  11.308  13.220 -0.1326  0.3454 -0.1550
 7265W        W23399   6.397   5.590  12.487 -0.3607  0.0558  0.0477
 7266W        W23400   4.299   4.013  11.749 -0.1340  0.2250 -0.0607
 7267W        W23401  17.690  11.301   5.103 -0.0208  0.2357  0.0541
 7268W        W23402  17.264   1.968   1.110 -0.2227 -0.1171  0.0882
 7269W        W23403   0.611   4.556   1.652  0.1696  0.3476  0.1717
 7270W        W23404  12.398   9.106   0.676  0.0259  0.2126 -0.1473
 7271W        W23405   8.725   4.020  14.053 -0.2431  0.0198  0.1075
 7272W        W23406  16.903   6.921  12.121 -0.3417 -0.4021  0.0236
 7273W        W23407  12.960   1.920   4.075  0.1671  0.2050  0.1758
 7274W        W23408   0.181  18.508  12.201  0.0432 -0.2197  0.0978
 7275W        W23409   6.099   5.000  14.845  0.1576  0.0498  0.2042
 7276W        W23410   5.222  15.903  13.299 -0.3054 -0.1612 -0.2964
 7277W        W23411  12.527   8.897  14.643  0.0176  0.1008  0.1952
 7278W        W23412  18.236   8.298   0.887 -0.0143 -0.1122  0.0872
 7279W        W23413   3.759   7.633   0.303 -0.1185 -0.3055  0.0531
 7280W        W23414   0.735   2.798  13.476  0.2709  0.1080 -0.0150
 7281W        W23415  12.703   7.478   4.408  0.0438  0.1730 -0.0666
 7282W        W23416  18.227   5.396  11.562  0.0787 -0.1863 -0.2781
 7283W        W23417   5.809   4.653   4.235  0.0623  0.0945  0.2356
 7284W        W23418  12.058   4.650  11.747 -0.1317  0.0667 -0.1351
 7285W        W23419   4.017  11.807   4.644  0.1053 -0.0211  0.1328
 7286W        W23420  15.381   2.874  14.154  0.1206 -0.3675 -0.0159
 7287W        W23421   6.103  13.498   0.932  0.1122  0.0898 -0.1277
 7288W        W23422  17.179  18.373  14.994  0.1617 -0.1637 -0.2074
 7289W        W23423  10.347   8.718  12.876  0.0091 -0.2478 -0.2992
 7290W        W23424  15.672   4.857   0.158  0.2984 -0.4400  0.2005
 7291W        W23425  14.789  15.428  11.021  0.5974  0.0926  0.1573
 7292W        W23426  12.243   6.927   2.864 -0.0294 -0.1883  0.3807
 7293W        W23427  16.524  10.509   0.632 -0.1574  0.0877 -0.0919
 7294W        W23428  14.886  13.824   4.777  0.0619  0.0454 -0.1090
 7295W        W23429  11.248   5.837   1.116  0.1427 -0.1562  0.0447
 7296W        W23430  13.312   7.748   3.935 -0.0625 -0.1173 -0.0299
 7297W        W23431   9.364  13.294   0.950 -0.1063  0.0905 -0.3411
 7298W        W23432  12.819   3.260   1.608  0.1352  0.1854  0.1856
 7299W        W23433  11.465  11.281   4.595  0.2497 -0.0327 -0.1178
 7300W        W23434  14.235  18.341   4.742  0.2396  0.3333 -0.0272
 7301W        W23435   3.681   8.340  12.205 -0.0302  0.1802  0.2988
 7302W        W23436  17.526  13.392   5.686 -0.0447  0.0454  0.0784
 7303W        W23437  13.485   5.965  15.064  0.0528  0.0415  0.0539
 7304W        W23438   6.031  18.063   3.194  0.1168  0.1738 -0.1142
 7305W        W23439  17.978  17.008   3.255 -0.1323 -0.1063  0.2191
 7306W        W23440   8.081   6.176  12.021  0.0155 -0.0631 -0.1437
 7307W        W23441   7.903   9.373   5.283 -0.1450 -0.0268  0.1108
 7308W        W23442   1.327   5.114  15.238 -0.0515 -0.0128  0.0026
 7309W        W23443   6.020   7.104  11.106  0.3836 -0.1974  0.3195
 7310W        W23444   9.845  14.835   3.195  0.4281 -0.0951 -0.1433
 7311W        W23445   2.333   6.617  14.795  0.0124  0.1940 -0.0228
 7312W        W23446  16.412   9.967   0.332  0.1144 -0.0304  0.1152
 7313W        W23447  13.838   2.778  10.212 -0.1201 -0.0970 -0.1341
 7314W        W23448   1.489   5.783  12.738 -0.2661  0.0927 -0.1742
 7315W        W23449   4.471   5.915  12.267  0.0473 -0.0764 -0.1560
 7316W        W23450   6.500  14.091  15.179 -0.4445 -0.0425 -0.1450
 7317W        W23451  11.420  13.754   3.039 -0.1308 -0.0749  0.0052
 7318W        W23452   8.012   0.932  14.005  0.2111  0.1499 -0.3136
 7319W        W23453   8.008  18.668   3.705 -0.1850  0.0541 -0.0895
 7320W        W23454  10.587   9.031  10.563 -0.1288  0.0705 -0.0092
 7321W        W23455   6.068  11.338  13.063 -0.2484 -0.1893 -0.2709
 7322W        W23456   9.011  13.517  13.055 -0.0735 -0.2582  0.0134
 7323W        W23457  15.135  10.946   2.142 -0.3364 -0.0292 -0.1139
 7324W        W23458  15.281   5.520  13.522  0.3167 -0.0648 -0.5897
 7325W        W23459   8.718   5.391  12.210  0.0363  0.0300  0.0136
 7326W        W23460   9.308  16.755   5.752  0.1129  0.1102  0.1037
 7327W        W23461   0.753   0.257   2.098  0.1403  0.1095 -0.0028
 7328W        W23462  18.881  12.344  12.812 -0.1927  0.0293 -0.0773
 7329W        W23463  11.102  13.039  14.469  0.1364 -0.2485  0.0647
 7330W        W23464  14.710  16.647   4.098  0.3152 -0.1402 -0.0701
 7331W        W23465  15.123   9.045  12.740  0.1160 -0.3671  0.0149
 7332W        W23466  12.397  14.323   4.972 -0.1990  0.1739  0.0736
 7333W        W23467   8.823   2.703   1.717  0.1694  0.1362  0.0075
 7334W        W23468  17.008   1.989   4.634  0.2985 -0.2432  0.3879
 7335W        W23469   2.967   0.523  12.297  0.1026  0.3466 -0.1217
 7336W        W23470   3.949  14.701   1.571  0.2157 -0.3637 -0.1155
 7337W        W23471   7.457   5.831  14.585 -0.0288 -0.1374  0.0568
 7338W        W23472   5.288   8.616   1.671  0.1848  0.1463 -0.0421
 7339W        W23473  11.598  15.523   2.878  0.2433  0.0400 -0.2723
 7340W        W23474  15.906  12.152  12.737 -0.0075 -0.4156  0.0930
 7341W        W23475   6.364  15.219  13.743 -0.1000  0.1638 -0.4382
 7342W        W23476  11.480   2.301  12.456 -0.1094  0.0681  0.1888
 7343W        W23477   4.941   7.844  10.491 -0.3744  0.0990  0.0082
 7344W        W23478   9.397  15.948  13.755  0.0417 -0.1511  0.1057
 7345W        W23479  10.443   3.299   1.785  0.0493  0.2508  0.1247
 7346W        W23480  10.665  17.923  11.312  0.1439 -0.0927  0.1667
 7347W        W23481  13.147  12.392  13.132  0.2093 -0.0990  0.0540
 7348W        W23482   4.053   4.491  12.341  0.1299 -0.3634 -0.1946
 7349W        W23483   3.750  10.016   2.544 -0.2033 -0.1570 -0.1692
 7350W        W23484  14.565   9.181   0.176 -0.1465 -0.1023 -0.0537
 7351W        W23485  16.330  17.586   2.544  0.0628  0.0724 -0.3126
 7352W        W23486  17.051  10.436  13.159  0.0675  0.0925 -0.0659
 7353W        W23487  16.091  10.004  10.863 -0.0903  0.2651 -0.4572
 7354W        W23488  16.636   6.233   3.147 -0.0501 -0.2504  0.0253
 7355W        W23489   6.792  14.998   2.721  0.0756  0.2169  0.0840
 7356W        W23490  16.288  15.497   4.366  0.0927  0.0194 -0.1431
 7357W        W23491  16.360   6.707   5.901 -0.0674 -0.2015 -0.1407
 7358W        W23492  14.403  11.063  15.224  0.3525 -0.0262  0.1795
 7359W        W23493   3.835   8.347   3.919 -0.0150  0.0915  0.0234
 7360W        W23494  12.520   7.919  12.011 -0.3314  0.1689  0.2593
 7361W        W23495   6.523  17.602  13.602 -0.0245 -0.1012 -0.1429
 7362W        W23496  17.076   1.007  13.526  0.1783  0.0143  0.1913
 7363W        W23497  16.496   3.183  11.712  0.2787 -0.0285  0.1168
 7364W        W23498   7.821  11.548   4.481  0.1007 -0.0731 -0.0617
 7365W        W23499   1.159   9.674  14.085 -0.2262  0.0643  0.1372
 7366W        W23500  12.061  13.840  10.830 -0.0000 -0.1591  0.0495
 7367W        W23501  15.497  14.512  15.061  0.0877  0.0438  0.2177
 7368W        W23502  13.781  11.512  11.916  0.1322  0.1467 -0.0501
 7369W        W23503  12.532  10.601  14.736 -0.1211  0.2074  0.1131
 7370W        W23504  12.927  12.252   2.129  0.1916  0.0608  0.1510
 7371W        W23505  17.546  13.329   0.408 -0.0438  0.0983  0.1518
 7372W        W23506  18.622  13.535  14.984  0.4864 -0.1941  0.1381
 7373W        W23507   0.929   4.338   0.309  0.0883 -0.0676 -0.3694
 7374W        W23508   1.911   1.868  14.649  0.0276 -0.1001  0.1203
 7375W        W23509  10.825   3.266  11.650  0.1527  0.2581  0.0535
 7376W        W23510   7.540   7.116   3.233  0.3800  0.0077  0.1117
 7377W        W23511  10.260  16.122  13.773  0.0063 -0.1333 -0.2268
 7378W        W23512   3.652   5.321  15.162  0.2331  0.0529 -0.3215
 7379W        W23513  11.527   7.744  13.028  0.0299  0.0332  0.2610
 7380W        W23514   4.262  14.725   0.621 -0.0735 -0.2186  0.1627
 7381W        W23515   8.777  18.654   2.746 -0.0427 -0.1953  0.0150
 7382W        W23516  17.097   5.088  11.890  0.2106  0.1255 -0.0970
 7383W        W23517   6.136  13.055  12.146  0.1305  0.1654  0.4344
 7384W        W23518  12.930   2.490  12.657  0.3175 -0.0286  0.1918
 7385W        W23519   4.196   7.531  14.797 -0.0257 -0.1365 -0.0716
 7386W        W23520  11.653  12.863   0.127  0.2287 -0.2599 -0.1371
 7387W        W23521   8.577   0.585   2.450  0.2437  0.0932  0.0198
 7388W        W23522   6.435   9.139  11.243  0.0791 -0.0499 -0.0155
 7389W        W23523  17.181   5.058  14.089  0.0718  0.0364  0.0879
 7390W        W23524   9.204   3.954   0.891 -0.0133 -0.2965 -0.0397
 7391W        W23525   9.277  17.392  11.032  0.0136  0.3913 -0.0135
 7392W        W23526   5.343  11.970   1.259  0.0198  0.0917 -0.0159
 7393W        W23527   8.223   2.831   2.255  0.1407 -0.2040 -0.3592
 7394W        W23528   0.245  14.364   2.565 -0.0241 -0.0454 -0.2755
 7395W        W23529   2.837  10.000  12.082 -0.2483  0.0758  0.2953
 7396W        W23530  11.718  15.135  13.554  0.1938 -0.3885 -0.0014
 7397W        W23531   0.014  11.702  13.926 -0.1713 -0.1311  0.1043
 7398W        W23532   3.534   4.209  11.602  0.1503  0.0901  0.0229
 7399W        W23533   3.130  11.802   3.437  0.1717 -0.2647  0.0623
 7400W        W23534   4.916   5.574   2.651 -0.3405 -0.0350 -0.1387
 7401W        W23535  16.888  11.895   0.762  0.1888  0.2418  0.0414
 7402W        W23536   7.924   1.865   0.716  0.1726 -0.2713 -0.1293
 7403W        W23537   6.193  11.836  10.603  0.0934  0.0788 -0.2166
 7404W        W23538  12.733  18.602  13.787  0.0739  0.1497 -0.0944
 7405W        W23539  10.006   9.380  14.651  0.0474  0.3454 -0.1086
 7406W        W23540   0.564   7.620  15.081  0.3445  0.0169 -0.1656
 7407W        W23541  11.870  15.960   3.039 -0.1435 -0.1530  0.1777
 7408W        W23542   3.425   0.368  12.520  0.0716 -0.1725  0.0562
 7409W        W23543  13.290   3.366   1.552 -0.0105 -0.2730  0.0803
 7410W        W23544  12.779  13.778  11.427 -0.3193  0.0358  0.1356
 7411W        W23545  13.500  13.049   0.579  0.0646  0.2947  0.1166
 7412W        W23546   1.647   9.392   0.036  0.1169 -0.2038 -0.3129
 7413W        W23547  13.882  11.881  12.245 -0.3237  0.0363  0.1683
 7414W        W23548   8.324   5.779  12.822  0.1169  0.2248 -0.1993
 7415W        W23549  10.889   1.083   2.809  0.1889 -0.0771  0.0877
 7416W        W23550   8.261  12.727  13.808 -0.2245 -0.0157 -0.1021
 7417W        W23551   1.039  15.064   4.922 -0.0807  0.0465 -0.0532
 7418W        W23552  17.450  11.893   4.485 -0.3411  0.3276  0.1200
 7419W        W23553   4.344   8.685  14.607 -0.0227  0.2530 -0.0390
 7420W        W23554   5.475  13.924  13.673 -0.1542  0.0289  0.0476
 7421W        W23555  12.978   2.935  11.505  0.2024  0.1389 -0.1471
 7422W        W23556   1.312  17.535  14.926  0.0279  0.1702  0.5583
 7423W        W23557  16.329   1.318   3.272  0.0620  0.0226  0.0518
 7424W        W23558  11.949  12.659   2.726  0.2029  0.0631  0.2163
 7425W        W23559   6.048  16.240  13.697  0.1640  0.0492  0.2417
 7426W        W23560   1.204   3.960  11.404 -0.0821  0.0703  0.2423
 7427W        W23561   0.647   7.456  11.176 -0.0035 -0.0994  0.0046
 7428W        W23562  15.721   3.902   5.229 -0.0851 -0.0026  0.0691
 7429W        W23563   2.634  12.853  10.528  0.0177  0.2824 -0.1573
 7430W        W23564   9.802  12.399   0.841 -0.1188  0.1771  0.1244
 7431W        W23565  10.592  10.680   4.538 -0.2991 -0.0190 -0.0353
 7432W        W23566   1.357  16.389   5.898 -0.1903 -0.2238 -0.2441
 7433W        W23567   2.512  11.337  12.773  0.1011 -0.3732  0.1131
 7434W        W23568   4.713  16.671  14.751  0.2096  0.1458 -0.0550
 7435W        W23569   7.365  14.265   4.699 -0.0114 -0.0490  0.2475
 7436W        W23570   6.669   9.217  12.146 -0.1373 -0.0083  0.1765
 7437W        W23571  14.974   9.217  10.779  0.2749  0.0072  0.1225
 7438W        W23572   8.941   4.145   0.490 -0.1236 -0.1934  0.0004
 7439W        W23573   3.310   2.595   3.457 -0.0053  0.2348 -0.0680
 7440W        W23574  14.207   7.058   1.193 -0.1330 -0.1042  0.0571
 7441W        W23575  15.768   8.689   2.486 -0.2006  0.2418  0.0884
 7442W        W23576   3.514   1.568  11.060  0.2822 -0.2036  0.2155
 7443W        W23577   7.218  18.105  13.157  0.1825  0.0023  0.1434
 7444W        W23578  15.704  13.837   4.039  0.1526 -0.3592 -0.0961
 7445W        W23579   8.769  14.968   3.876 -0.0981 -0.2158  0.0832
 7446W        W23580  14.407   5.925   3.203 -0.1386  0.0798 -0.0260
 7447W        W23581  11.575  11.677  14.873 -0.1621  0.1010  0.3883
 7448W        W23582  16.547   9.816   5.042 -0.3511 -0.0979  0.2290
 7449W        W23583   8.193   7.616  12.322  0.2456 -0.1528  0.2638
 7450W        W23584   5.796   3.756  14.618  0.1340 -0.2426  0.0103
 7451W        W23585   0.798   6.034   3.083 -0.0842 -0.0135 -0.0158
 7452W        W23586  10.713  14.049  14.343  0.0050 -0.1960  0.0018
 7453W        W23587   7.422   3.839   3.905  0.2853  0.4194 -0.1819
 7454W        W23588  13.471   6.906   0.453  0.3528  0.0867 -0.0883
 7455W        W23589  13.196  13.661  14.588 -0.2006 -0.1941 -0.3901
 7456W        W23590  14.841   9.696  11.692  0.0040  0.3753  0.1952
 7457W        W23591  12.927   9.829   4.221  0.2504 -0.1766  0.0671
 7458W        W23592   8.593  14.297  14.388 -0.1646  0.0668 -0.3540
 7459W        W23593  18.714   2.426  13.731  0.0122 -0.1150 -0.1531
 7460W        W23594   7.830   1.040  14.548 -0.2176  0.5650  0.0485
 7461W        W23595   2.220  17.399   4.019  0.0885  0.0670  0.1849
 7462W        W23596  10.680  13.743   0.406  0.0940  0.3465 -0.0972
 7463W        W23597   7.549   8.736  14.036  0.2466  0.1885  0.0005
 7464W        W23598  12.085  11.306   5.457  0.0822 -0.2003  0.0700
 7465W        W23599   7.184   9.436  15.264  0.0107  0.1225 -0.0884
 7466W        W23600   9.682  18.416  12.937  0.3513  0.0096 -0.0209
 7467W        W23601   5.197   5.422   9.281  0.0674  0.3272 -0.0356
 7468W        W23602  17.597  13.984   0.056  0.3770  0.0905  0.1335
 7469W        W23603  14.492   0.882   3.835  0.2141 -0.2314 -0.0555
 7470W        W23604  17.080   8.882  14.964 -0.0509 -0.0168 -0.0975
 7471W        W23605   4.952  10.218   2.833  0.1129 -0.2983  0.0919
 7472W        W23606  10.509  18.234   4.718  0.1195 -0.1024  0.1787
 7473W        W23607   9.387   7.585  11.460  0.1693  0.1136 -0.0094
 7474W        W23608   9.871  10.912  14.317 -0.0958  0.0990  0.0435
 7475W        W23609   3.823   2.517  13.415  0.0748 -0.0718  0.0589
 7476W        W23610   4.747   4.347   4.100 -0.2687  0.1874  0.1348
 7477W        W23611   3.980   3.527  12.439 -0.2602  0.1246 -0.0071
 7478W        W23612   3.693   0.120  13.713  0.1058 -0.1263  0.2375
 7479W        W23613  15.308   9.715  11.335  0.1692 -0.3300 -0.2014
 7480W        W23614  14.643   1.048   3.258 -0.0074  0.1354  0.1004
 7481W        W23615  14.866  17.013   1.612  0.6086  0.0563 -0.0675
 7482W        W23616   9.770  10.061   3.924 -0.2707 -0.2202  0.0479
 7483W        W23617  12.331  14.824   0.670  0.0733  0.0178 -0.4628
 7484W        W23618  11.962   6.258  10.823 -0.2426 -0.4301  0.3494
 7485W        W23619   4.925   9.394   5.200 -0.1454 -0.2559 -0.2893
 7486W        W23620  17.987  18.898  12.818 -0.4280 -0.3744 -0.0601
 7487W        W23621   2.013   6.384  13.336 -0.2227  0.0802 -0.1399
 7488W        W23622  18.128   3.528  13.642  0.2182 -0.2067  0.0041
 7489W        W23623  14.411   8.447   0.003  0.5399 -0.1877 -0.1235
 7490W        W23624  17.365  15.834  10.860  0.0036 -0.1678  0.3250
 7491W        W23625   3.059   7.677   2.175 -0.1674 -0.1942 -0.0689
 7492W        W23626   2.955  13.166  13.027 -0.0565 -0.2894  0.2117
 7493W        W23627   1.771  16.716   3.737  0.1640 -0.2840 -0.3301
 7494W        W23628   6.854   3.904  14.920 -0.3577  0.4074 -0.2287
 7495W        W23629  10.279  11.008   4.809  0.1361 -0.1316  0.2232
 7496W        W23630   8.209  15.988  15.264 -0.1256 -0.0853 -0.0531
 7497W        W23631   7.794  10.709  13.689 -0.1728  0.1553  0.0075
 7498W        W23632   7.926  15.841  14.325 -0.1323 -0.3648 -0.0358
 7499W        W23633  15.927   8.241   0.979 -0.0620  0.3189 -0.1719
 7500W        W23634  15.590   9.068   2.238 -0.3428  0.0130 -0.1299
 7501W        W23635  17.260  14.248   0.324 -0.3946  0.3112  0.3158
 7502W        W23636   3.857   4.234   2.409 -0.0927  0.1240 -0.1117
 7503W        W23637  16.083   5.243  14.474  0.2341 -0.1058  0.1205
 7504W        W23638  16.939   7.405  12.349 -0.2632  0.3192  0.2324
 7505W        W23639  16.243  13.009  11.708 -0.2729  0.2485  0.2105
 7506W        W23640  14.595  17.961  14.196  0.0416 -0.1785  0.3948
 7507W        W23641   7.879  10.462   2.330 -0.2971 -0.0289  0.2166
 7508W        W23642   0.266  11.390  14.527  0.0318  0.2747  0.1938
 7509W        W23643   8.768  15.757   4.216  0.1542 -0.1375 -0.2009
 7510W        W23644  13.593  11.685   2.973  0.2420 -0.1764 -0.0888
 7511W        W23645  18.398   4.935  11.765  0.1599 -0.0847 -0.0846
 7512W        W23646  15.253   5.915   3.115 -0.0079  0.2091  0.0073
 7513W        W23647  17.565  18.621  12.797 -0.0019  0.1965 -0.3620
 7514W        W23648   7.430  12.457  14.419  0.2340  0.1425  0.0958
 7515W        W23649   7.183  13.965  11.426 -0.1043  0.1720  0.0365
 7516W        W23650  11.719  13.707   5.381  0.0746 -0.3304 -0.0993
 7517W        W23651   0.036  14.465   3.757  0.3534  0.0488  0.2437
 7518W        W23652   7.054  10.738  10.710  0.1581 -0.0205 -0.2051
 7519W        W23653   9.885  18.281  10.724 -0.0356  0.0717  0.1114
 7520W        W23654   7.655   9.318   0.238  0.0315 -0.0567  0.1196
 7521W        W23655   6.232   7.010  11.648  0.1148  0.1880  0.2053
 7522W        W23656   1.662   5.764   4.477 -0.1633 -0.0289 -0.0069
 7523W        W23657  13.977  14.850  12.044  0.1940  0.1697 -0.3573
 7524W        W23658   4.382  11.458  10.997 -0.1530  0.0525 -0.1202
 7525W        W23659   4.956  12.609   5.136  0.1118  0.0197 -0.0458
 7526W        W23660   3.198   8.802  11.694 -0.2241  0.1333 -0.1055
 7527W        W23661   9.483  11.694  14.062 -0.2767 -0.2378  0.1573
 7528W        W23662   1.432   9.004   2.744 -0.0639 -0.0114  0.1932
 7529W        W23663  10.961  13.445  14.743  0.2139  0.1010 -0.1382
 7530W        W23664  16.737   9.343  11.072 -0.1544  0.1053 -0.1334
 7531W        W23665   3.215   1.414  13.488 -0.2653  0.1612 -0.1765
 7532W        W23666   4.513   2.862  15.042 -0.1270  0.1949 -0.0540
 7533W        W23667   4.233  13.295  13.171 -0.0691  0.3111  0.0638
 7534W        W23668  12.369  12.994   4.190  0.0125 -0.4483  0.1398
 7535W        W23669  15.744   3.573   0.545 -0.0735 -0.1010 -0.2075
 7536W        W23670   4.884  11.629  12.099  0.1796 -0.0260  0.1532
 7537W        W23671   0.813  14.818  11.969 -0.0100 -0.0164  0.1127
 7538W        W23672   8.191   6.540  14.163  0.3282  0.1872 -0.1594
 7539W        W23673  12.978  13.866  10.517 -0.1311 -0.2214  0.3973
 7540W        W23674   4.265  12.834   0.816 -0.2167  0.4156  0.0581
 7541W        W23675  15.351  14.248  12.208  0.1362 -0.0301  0.2160
 7542W        W23676   0.885   4.205   3.438  0.2204 -0.1873  0.3971
 7543W        W23677   2.774  12.237  13.103 -0.3134 -0.2148  0.1475
 7544W        W23678  16.014   4.303  14.159 -0.4172 -0.2270  0.0121
 7545W        W23679   7.782  18.820   0.292  0.0012 -0.1997 -0.0443
 7546W        W23680  13.544  16.211   1.421  0.1737 -0.1988 -0.2096
 7547W        W23681  15.332  13.352   0.460  0.0742 -0.1959  0.0313
 7548W        W23682  16.513   9.444   4.058 -0.0586 -0.2068  0.1053
 7549W        W23683   0.756   3.863  11.171  0.2291 -0.0393  0.2797
 7550W        W23684   9.724  18.524   5.234 -0.0730 -0.3753 -0.1815
 7551W        W23685   0.662  10.156   5.369  0.0382  0.0175 -0.2063
 7552W        W23686   1.707   1.517   3.657  0.0474 -0.1138  0.0210
 7553W        W23687   6.379  16.903  10.410  0.1315  0.3045 -0.1190
 7554W        W23688  16.796   5.278   2.202  0.0176  0.1702 -0.0631
 7555W        W23689   5.453  18.528   1.774  0.0551 -0.1368  0.1351
 7556W        W23690  18.890   2.646  13.300 -0.2790 -0.1725  0.1368
 7557W        W23691  12.719  13.062  10.970  0.2628  0.3252 -0.0315
 7558W        W23692   6.180   4.760   2.149  0.0733 -0.0761  0.0783
 7559W        W23693   6.913   9.968   1.380  0.0922  0.3542 -0.2692
 7560W        W23694  13.556   5.078   0.891  0.0388 -0.0130  0.0717
 7561W        W23695  11.713  15.846   5.260 -0.0574 -0.2976  0.0544
 7562W        W23696   7.493   2.493  12.114  0.1850 -0.0279 -0.1149
 7563W        W23697   9.032   6.343  11.805 -0.1428 -0.2734 -0.2251
 7564W        W23698   4.214   3.681  13.800  0.0973  0.1241 -0.0032
 7565W        W23699  15.874  16.354   3.024  0.2096  0.0229 -0.1699
 7566W        W23700  12.486  13.185   3.636 -0.0095 -0.4368  0.1459
 7567W        W23701   8.146   1.701   0.314  0.0410  0.1256  0.3013
 7568W        W23702  17.076  13.493  12.331  0.1470 -0.0233 -0.1899
 7569W        W23703   4.737  13.257   5.000  0.0883 -0.0117  0.0695
 7570W        W23704   3.143  14.193  14.141 -0.0365 -0.0740  0.1463
 7571W        W23705  15.549  18.858  13.569 -0.1089  0.2337 -0.0035
 7572W        W23706   4.096   0.477   1.291 -0.1476  0.1678 -0.0178
 7573W        W23707   5.439   5.510   2.754  0.1494  0.4086  0.1846
 7574W        W23708   6.233   9.881  11.477  0.2160  0.0998 -0.0366
 7575W        W23709  18.709   4.912   1.143  0.0894 -0.0245 -0.0097
 7576W        W23710   2.004  18.744   1.313 -0.1180  0.0052  0.1503
 7577W        W23711   9.215   1.824   1.458  0.2953  0.1542  0.1605
 7578W        W23712  12.739  14.821  11.483 -0.0766  0.1655  0.2215
 7579W        W23713   2.592  13.253   5.370 -0.3062 -0.0959  0.1311
 7580W        W23714   2.305   6.767  12.069  0.1124 -0.0845  0.0211
 7581W        W23715  13.860   4.466   3.192  0.0084 -0.0252 -0.1557
 7582W        W23716  13.303   1.812   4.576  0.4747 -0.1031  0.0114
 7583W        W23717  10.111   8.284   4.069  0.0754 -0.1225  0.2357
 7584W        W23718   7.701  14.286   4.263  0.1126 -0.2563 -0.0914
 7585W        W23719  13.248  18.491  11.941  0.1518  0.1011 -0.2926
 7586W        W23720   0.636   9.405   4.730 -0.0013  0.2859 -0.2179
 7587W        W23721   2.161   2.216   4.549 -0.2655 -0.1589  0.1027
 7588W        W23722  11.307  17.339  11.499 -0.2046 -0.3261  0.0804
 7589W        W23723   6.454  16.029  14.106  0.2000  0.1868 -0.0146
 7590W        W23724  16.578   1.127   2.840 -0.0249 -0.1535 -0.0556
 7591W        W23725   5.469   8.107  15.057 -0.2739  0.0441 -0.0631
 7592W        W23726  16.759   3.607  12.833 -0.1419 -0.0662  0.0463
 7593W        W23727  18.643   5.253   2.547  0.2751 -0.1203 -0.1761
 7594W        W23728   0.636  12.675   4.725  0.0594 -0.0233 -0.1890
 7595W        W23729   5.884   3.413   2.646 -0.0304 -0.1094  0.1350
 7596W        W23730  13.844   4.178  10.292 -0.1443 -0.1086 -0.1183
 7597W        W23731  12.638   3.937   4.829  0.0238 -0.2171  0.1811
 7598W        W23732  14.398   7.133   4.984 -0.0336 -0.0935 -0.1128
 7599W        W23733  13.948  11.579  13.950 -0.0213  0.2715  0.0277
 7600W        W23734  13.963   3.973   3.912  0.0728  0.3724 -0.1968
 7601W        W23735  12.998   1.795   5.465 -0.1585  0.2203  0.2268
 7602W        W23736   2.419   1.859  12.477 -0.0710  0.1634 -0.0365
 7603W        W23737  15.140  11.499  13.082 -0.0027 -0.2551 -0.0788
 7604W        W23738  14.331  11.517  13.648 -0.1422 -0.0899 -0.0642
 7605W        W23739  17.343   0.868   1.965 -0.4520  0.2193  0.0014
 7606W        W23740  16.624  17.377  13.254 -0.1490  0.1490  0.3468
 7607W        W23741  10.194  11.785  12.876  0.1632 -0.2001 -0.2972
 7608W        W23742   2.752  17.517  14.909  0.1329  0.0830  0.1400
 7609W        W23743  10.750   5.638   2.926  0.1110 -0.1473  0.2763
 7610W        W23744  13.985   1.206   5.604  0.0046  0.0616  0.0291
 7611W        W23745   7.368  12.831   5.507 -0.2496 -0.2651 -0.0165
 7612W        W23746  17.841   5.772   4.137 -0.1464  0.1478 -0.1418
 7613W        W23747  13.114  10.650   1.447 -0.3168  0.0263 -0.1284
 7614W        W23748   2.555   2.685  15.163  0.1643 -0.0897  0.0479
 7615W        W23749   7.800  10.234   0.632  0.0894 -0.1184  0.0070
 7616W        W23750   6.491   9.032   3.869 -0.0254 -0.0051  0.0523
 7617W        W23751  10.223  15.841   2.232  0.5864 -0.0471 -0.1947
 7618W        W23752   7.482  13.664   0.068  0.3499 -0.1130 -0.1032
 7619W        W23753  13.356  16.519  12.407  0.2475 -0.1455  0.3014
 7620W        W23754  17.962  11.481  14.769 -0.1055 -0.1086  0.0269
 7621W        W23755  13.219  10.252   1.138  0.1731 -0.2328  0.0773
 7622W        W23756   3.823   4.187  14.772  0.0390 -0.1988  0.2043
 7623W        W23757  12.576   8.582   2.027 -0.6340  0.0174 -0.0224
 7624W        W23758   9.488   1.010   3.479  0.3184 -0.1734 -0.1946
 7625W        W23759  15.872  14.841  12.181  0.0405  0.3604 -0.1548
 7626W        W23760   0.799  12.482  10.732 -0.1344  0.0509 -0.0254
 7627W        W23761  11.732  14.659   2.036 -0.0358  0.1709 -0.0312
 7628W        W23762  10.474  14.828   4.130  0.3411  0.2315 -0.0039
 7629W        W23763   2.396   2.786  10.377  0.4086  0.2665  0.1307
 7630W        W23764   4.773   3.128   0.073  0.2561  0.1644  0.2215
 7631W        W23765  12.017   5.825  11.056 -0.1791 -0.0022 -0.1950
 7632W        W23766   6.599   0.586  13.717 -0.2569 -0.3412 -0.3079
 7633W        W23767   2.298   1.516   0.328 -0.0506 -0.0239 -0.1473
 7634W        W23768  16.033   5.754  14.603  0.2321 -0.2874 -0.0913
 7635W        W23769  10.862   5.209   4.244  0.0377  0.2101  0.1296
 7636W        W23770  17.211  17.381   5.476  0.3394  0.0438 -0.0009
 7637W        W23771   4.155  18.404   0.789  0.1704 -0.4213  0.0971
 7638W        W23772  13.202   2.661  13.874 -0.1476 -0.0442 -0.0610
 7639W        W23773  17.573  15.296   2.826  0.0457 -0.0556 -0.1496
 7640W        W23774   5.822  17.836   1.008  0.0009 -0.0836  0.1434
 7641W        W23775  15.900   2.586   4.700  0.0056  0.2291 -0.0231
 7642W        W23776  12.891  11.288   3.743  0.0650  0.1809 -0.0081
 7643W        W23777   2.630  14.262   4.004 -0.0185 -0.0479  0.1551
 7644W        W23778   0.484  16.232  11.896 -0.4123  0.3050  0.1933
 7645W        W23779  10.741  14.341  11.254  0.3379 -0.1820  0.0334
 7646W        W23780   9.972   1.075   3.556 -0.2441 -0.0978 -0.0695
 7647W        W23781  15.486   8.453  14.234 -0.2856 -0.1348 -0.0450
 7648W        W23782   7.428   5.632   9.803 -0.0200  0.1616  0.0693
 7649W        W23783   4.896  16.011   0.556 -0.0396 -0.1051  0.0770
 7650W        W23784  11.894   3.520   1.062  0.2290 -0.2667 -0.0370
 7651W        W23785   8.027   3.122  10.104 -0.2580  0.2033 -0.0558
 7652W        W23786   8.184   3.777   3.255 -0.1539  0.2032 -0.1446
 7653W        W23787  15.806   9.070   5.775 -0.2817 -0.1554 -0.3121
 7654W        W23788  13.883   5.300  13.984  0.2559 -0.0703  0.1648
 7655W        W23789  10.191  12.627   0.480  0.3085 -0.0032 -0.0648
 7656W        W23790  17.459   0.155   1.313  0.1695  0.3097  0.0208
 7657W        W23791   1.166  10.355  10.316 -0.0101  0.0071  0.3916
 7658W        W23792  15.590   8.163   1.915 -0.1398  0.0169  0.2120
 7659W        W23793  10.126  13.813   1.697 -0.0409  0.0450  0.1636
 7660W        W23794  12.943   3.850   2.428 -0.1051 -0.3572 -0.0807
 7661W        W23795   4.234   0.387   5.572 -0.1015  0.2457  0.0971
 7662W        W23796   3.052  17.634   2.463 -0.2969  0.0871  0.1886
 7663W        W23797   4.692  17.577   2.113 -0.2096  0.1642 -0.1986
 7664W        W23798   0.148  14.954  11.311  0.4060  0.2544  0.1024
 7665W        W23799  14.691  11.093  14.753 -0.0397  0.0626  0.0128
 7666W        W23800   1.153   5.607   0.270 -0.0193  0.1173  0.0593
 7667W        W23801  12.062   2.360  11.972  0.2912 -0.1895  0.0176
 7668W        W23802  14.900  11.058  13.820 -0.0251  0.0568 -0.1487
 7669W        W23803   6.224  11.991   4.232  0.0493  0.2146 -0.3390
 7670W        W23804   8.552  13.680  12.797  0.3640  0.0331  0.3122
 7671W        W23805   1.371  13.754   4.915  0.0256 -0.0837 -0.0342
 7672W        W23806  10.817  18.601   4.415  0.0523 -0.1399 -0.0438
 7673W        W23807  14.348   1.304   0.068 -0.2417 -0.0343  0.1639
 7674W        W23808  16.244  13.855  11.036  0.1062  0.0364 -0.0209
 7675W        W23809   7.670  12.826   0.691  0.1870  0.2605  0.1013
 7676W        W23810   5.949   2.271  13.794  0.1647 -0.1632  0.5058
 7677W        W23811  17.474  13.189  14.735 -0.0617 -0.0188 -0.0065
 7678W        W23812   1.236  12.865  11.597  0.1127  0.0559  0.0113
 7679W        W23813   3.929  18.216   3.840  0.1258 -0.1199 -0.0145
 7680W        W23814   4.130  17.267  12.961  0.0312  0.2745  0.3765
 7681W        W23815  11.881   6.904  15.046  0.1830  0.0705  0.5591
 7682W        W23816   9.878  10.197   9.379  0.1233  0.0618 -0.1185
 7683W        W23817  18.216  17.483   2.757 -0.0824 -0.3272  0.0967
 7684W        W23818   4.029  16.284   1.110 -0.1527 -0.3238  0.1576
 7685W        W23819   9.607  14.926   4.451  0.0635 -0.4728  0.0509
 7686W        W23820  11.595   6.196  10.500 -0.1005  0.0624 -0.1096
 7687W        W23821  15.289   3.211  13.755  0.0517  0.0206  0.0249
 7688W        W23822  12.803   5.224  11.405 -0.3318 -0.1858  0.1940
 7689W        W23823  16.658  12.901   2.392 -0.2560 -0.2240  0.1545
 7690W        W23824  11.250   5.583  12.820  0.1906  0.0394  0.1466
 7691W        W23825  16.175   2.191   2.649  0.2492 -0.1748 -0.2098
 7692W        W23826  13.141   1.184  13.627 -0.2135  0.5065 -0.1753
 7693W        W23827   9.795  12.792  14.015  0.1135  0.0173 -0.1224
 7694W        W23828  18.546  14.290   3.757 -0.0335 -0.0721  0.0596
 7695W        W23829   2.343  17.861   0.371 -0.0439 -0.2286 -0.0368
 7696W        W23830   5.108  14.924   3.817 -0.2668  0.1333  0.1657
 7697W        W23831   7.865  12.318   3.527 -0.0857  0.3466  0.1198
 7698W        W23832   1.869  10.950  13.056  0.4251  0.3918  0.1578
 7699W        W23833  14.901  11.865  15.220  0.2329  0.2515 -0.0667
 7700W        W23834  12.883   1.303  13.163 -0.1118 -0.1741 -0.2144
 7701W        W23835   9.801  18.420   2.942  0.1285  0.0905  0.4638
 7702W        W23836   8.950  14.836   1.044 -0.1045  0.0906  0.0245
 7703W        W23837  16.684  16.883  13.291 -0.1900 -0.0326 -0.1071
 7704W        W23838   2.911  14.691   1.298 -0.0419  0.0069 -0.0572
 7705W        W23839  18.271  11.430  10.343  0.6489 -0.1639 -0.2423
 7706W        W23840   2.189   2.914   3.941 -0.0921  0.1004  0.0170
 7707W        W23841   8.757  13.206   0.575 -0.3595  0.0307  0.1307
 7708W        W23842  10.894  10.538  11.678 -0.4517 -0.0538 -0.1259
 7709W        W23843  12.520   5.792   3.099 -0.1258  0.0807  0.3221
 7710W        W23844  14.825  12.696   4.982  0.0542 -0.3032 -0.0642
 7711W        W23845   9.141   3.579  12.032  0.0216 -0.0404  0.0042
 7712W        W23846  16.873  10.281  12.337  0.0387  0.2860  0.3250
 7713W        W23847   6.901   8.713   2.382 -0.1032 -0.3191  0.0362
 7714W        W23848  17.269  14.984  15.066  0.2646 -0.2231 -0.3356
 7715W        W23849   6.679   7.670  11.756  0.0851  0.1038  0.0120
 7716W        W23850  10.515  18.779   3.383  0.1165 -0.1101 -0.0942
 7717W        W23851  17.407   9.675   3.296 -0.1722 -0.1586  0.1433
 7718W        W23852   9.206   8.669  10.765  0.0369 -0.0726 -0.0833
 7719W        W23853  15.273   4.245  13.461  0.4695  0.3581  0.0572
 7720W        W23854   0.584  11.492   9.956  0.1665  0.1357 -0.1716
 7721W        W23855  17.019  13.481   2.060  0.0012  0.0974  0.0677
 7722W        W23856   2.724  16.356  10.927 -0.0926  0.2391 -0.1382
 7723W        W23857   8.538  18.364   2.289  0.1053  0.1060  0.1568
 7724W        W23858   0.952   4.062  10.457 -0.1193  0.2557  0.2449
 7725W        W23859   8.682  11.514  14.137  0.3590  0.0235 -0.1132
 7726W        W23860   4.565  15.620   2.163  0.1655 -0.0775  0.1315
 7727W        W23861  11.412   7.557   1.623  0.1953 -0.1597  0.1018
 7728W        W23862   5.000  11.316   4.593  0.2069 -0.1773  0.3928
 7729W        W23863   5.196   3.251   1.086  0.1671  0.0989  0.0216
 7730W        W23864   6.148   8.670   2.640 -0.2019 -0.1220 -0.0226
 7731W        W23865  10.009  12.652   2.203 -0.3584 -0.2142  0.0490
 7732W        W23866   1.255   8.361   3.109  0.1680  0.3122 -0.3129
 7733W        W23867   3.583  16.492   3.404 -0.3047  0.1550 -0.0279
 7734W        W23868   1.175  16.192   4.000  0.1415  0.0978  0.0390
 7735W        W23869  14.773  15.118  10.310  0.0363 -0.0964 -0.1428
 7736W        W23870   3.721   6.917  13.843  0.2893 -0.1740  0.0858
 7737W        W23871   3.438   3.860   2.200 -0.0290  0.0452  0.3007
 7738W        W23872  15.219  11.529   4.376  0.2952  0.0513  0.0579
 7739W        W23873  15.617  10.117  11.812 -0.1908 -0.3578 -0.0671
 7740W        W23874  17.957  14.573   1.150  0.3631 -0.1339  0.0742
 7741W        W23875   0.334  12.644  14.408  0.2219  0.0800  0.1686
 7742W        W23876   7.311   6.850  10.788 -0.1311  0.1699 -0.2197
 7743W        W23877   4.952  16.802  10.068  0.0764 -0.1038  0.1020
 7744W        W23878   9.740   2.921  13.313 -0.2997 -0.1035 -0.0448
 7745W        W23879   7.864   9.351  12.508  0.1625  0.0919  0.2728
 7746W        W23880  14.511   2.353   4.906 -0.0791  0.0547 -0.0084
 7747W        W23881  13.696  17.328   0.432 -0.1078 -0.0600  0.2545
 7748W        W23882  16.178   7.028   2.919  0.2101  0.0017  0.2209
 7749W        W23883  12.563   9.001   1.166 -0.4169  0.0183  0.0498
 7750W        W23884   5.667   7.695   0.484 -0.1151  0.0501  0.0418
 7751W        W23885   1.664   7.703  14.235 -0.2416 -0.3507 -0.0661
 7752W        W23886   8.321  15.236   3.587  0.1390 -0.1093  0.1145
 7753W        W23887   6.463  14.821   3.954  0.1737 -0.0382  0.0637
 7754W        W23888  18.640  13.075   3.525 -0.0393 -0.3353  0.1640
 7755W        W23889  11.076  13.391  12.669  0.2886  0.2784  0.1448
 7756W        W23890  17.195  14.464  14.134 -0.1409 -0.0796 -0.1097
 7757W        W23891   5.163   1.968   3.799 -0.3833  0.3425  0.0484
 7758W        W23892  14.529   5.641  12.822  0.2501  0.2264 -0.2722
 7759W        W23893  10.351   1.806  10.250  0.0342  0.2571  0.1632
 7760W        W23894  16.106  16.519   5.434 -0.2025  0.1304  0.1516
 7761W        W23895   1.884   6.355  11.527  0.2975  0.0445 -0.0517
 7762W        W23896  12.826   0.193  11.749  0.0366 -0.2962  0.1064
 7763W        W23897  12.932  16.433  14.318 -0.0443  0.3722  0.1843
 7764W        W23898  11.060   1.837  13.423 -0.1850  0.1293 -0.0933
 7765W        W23899   3.692   9.990  11.681 -0.1125 -0.3073  0.0243
 7766W        W23900  18.883  11.206   4.921 -0.0703 -0.2879  0.0742
 7767W        W23901  17.025  18.061  12.829  0.0998  0.1048 -0.2531
 7768W        W23902  13.724  13.097  13.611 -0.0438  0.1389 -0.0758
 7769W        W23903   8.758   3.557  13.658 -0.0192  0.0536 -0.1469
 7770W        W23904   0.109   4.658  13.576  0.1264 -0.0155 -0.5321
 7771W        W23905  12.753  13.341  12.982 -0.1993  0.0238 -0.3590
 7772W        W23906  11.747  13.035   4.766 -0.1388 -0.4723  0.0712
 7773W        W23907   2.248   0.073   4.541 -0.1476 -0.1786 -0.2507
 7774W        W23908  17.725  16.754   5.020 -0.1399 -0.1826  0.0857
 7775W        W23909   4.968   0.328   1.728 -0.1964 -0.0319 -0.0349
 7776W        W23910  17.675  11.648  13.612 -0.2073  0.0586  0.0169
 7777W        W23911  13.335  15.539   4.145  0.0770  0.0540 -0.3390
 7778W        W23912   0.422   5.784   4.364 -0.1390 -0.1895 -0.1022
 7779W        W23913  13.858   7.778  10.856  0.0431 -0.2160  0.2445
 7780W        W23914   0.159  14.465   6.320  0.2869  0.0647 -0.0310
 7781W        W23915  11.868   4.168   3.038 -0.0701 -0.1285  0.0440
 7782W        W23916   3.716   0.815  13.029 -0.0493  0.0775  0.1540
 7783W        W23917  12.142   2.286   4.494  0.1367 -0.3973  0.1238
 7784W        W23918  16.142  12.843   2.097  0.0204  0.2941 -0.0405
 7785W        W23919   3.232  14.354  14.790 -0.2088  0.0546  0.1432
 7786W        W23920   7.787  16.725   2.426 -0.2027  0.0650 -0.2539
 7787W        W23921   3.104  12.261   1.766  0.0507 -0.0748 -0.0392
 7788W        W23922   8.810   4.493  12.355 -0.1207  0.0772  0.2330
 7789W        W23923  18.411   2.346   2.678  0.0881 -0.1744  0.2454
 7790W        W23924  13.079  10.251  14.250  0.0911 -0.0083 -0.0805
 7791W        W23925   3.384   9.736  13.731  0.1401  0.1077  0.1383
 7792W        W23926  15.004  11.477   9.613 -0.0573  0.2798  0.0268
 7793W        W23927  18.282   3.360  10.248  0.3249 -0.0123 -0.3730
 7794W        W23928  12.484  14.167  13.775 -0.1508  0.0403 -0.1901
 7795W        W23929  15.334   9.444   5.718 -0.1637 -0.0931  0.3797
 7796W        W23930   5.161   3.644  14.064 -0.3381 -0.1830 -0.0450
 7797W        W23931   5.771  16.125   2.943  0.0626 -0.1238  0.1901
 7798W        W23932  14.853  10.168   2.106  0.1251 -0.0015 -0.2590
 7799W        W23933  11.365   8.246  15.242 -0.1890 -0.3223  0.1237
 7800W        W23934   6.289  17.484  11.757  0.2835  0.0769  0.1382
 7801W        W23935  12.185   3.159   2.205 -0.2208  0.3293 -0.0491
 7802W        W23936   1.728   0.122   2.440  0.0504  0.0813  0.1970
 7803W        W23937   0.305  14.023   4.326 -0.1266  0.1872  0.2758
 7804W        W23938  15.442  12.775  14.503 -0.1837  0.2432 -0.2546
 7805W        W23939   4.176   2.548   1.748  0.0421 -0.0977 -0.0592
 7806W        W23940  10.064  18.294  10.204  0.3521  0.2276 -0.2158
 7807W        W23941   6.336  16.215   4.084  0.1040 -0.1818  0.1277
 7808W        W23942  10.495  11.495  14.370  0.0696 -0.2847  0.2958
 7809W        W23943  12.127   8.717  13.513  0.1908  0.0833 -0.0166
 7810W        W23944  11.639   2.384   2.826  0.0014  0.1380  0.1191
 7811W        W23945   5.792  12.104  10.526 -0.1190  0.1794 -0.0466
 7812W        W23946   9.157   1.992   4.781  0.0212  0.0347 -0.1879
 7813W        W23947   3.468   5.477   4.991  0.0394 -0.0556 -0.2485
 7814W        W23948  14.111   5.796  11.921  0.1150  0.3940  0.0255
 7815W        W23949  11.175  18.860   0.088 -0.2462 -0.1137  0.0131
 7816W        W23950   7.765  13.037  10.920 -0.3766 -0.3583  0.0635
 7817W        W23951  10.918   6.641  10.790  0.0544  0.0134  0.1584
 7818W        W23952  17.827   2.407   2.481 -0.1031 -0.0699 -0.2042
 7819W        W23953  17.904  10.086   2.948 -0.2802 -0.3297  0.1610
 7820W        W23954   9.054  11.884  12.893  0.3622 -0.3570  0.1775
 7821W        W23955   7.737   9.414   2.672  0.0184  0.0965 -0.0363
 7822W        W23956   3.757  18.313   1.491  0.1749 -0.2384  0.0157
 7823W        W23957  13.632   5.561  12.914  0.0137  0.1749  0.0215
 7824W        W23958  14.569  12.337  14.917  0.0810  0.4015  0.0869
 7825W        W23959   0.743   4.590  14.370 -0.0022  0.0993  0.0528
 7826W        W23960   8.816   5.332   3.036  0.2485 -0.2088  0.2172
 7827W        W23961   5.521  16.036   2.475  0.2958  0.0116 -0.1958
 7828W        W23962   8.036  17.942   4.125 -0.1977 -0.2448  0.1989
 7829W        W23963   2.068   1.064   1.708 -0.3163  0.0020 -0.0351
 7830W        W23964  17.309  16.316  10.990 -0.3632 -0.2224 -0.0108
 7831W        W23965  17.289  13.027   0.038  0.4735 -0.4055  0.2102
 7832W        W23966  13.152   0.345   2.073  0.2152 -0.2166  0.2300
 7833W        W23967  14.570   1.821   0.896  0.1758  0.0240  0.5118
 7834W        W23968  13.063  11.961  14.335  0.1473 -0.1854  0.1606
 7835W        W23969   8.978   7.689   2.659 -0.0253  0.0941  0.2240
 7836W        W23970   4.730  18.312   2.042 -0.2405 -0.0615  0.0660
 7837W        W23971  17.261  13.807  11.843 -0.0396 -0.2801 -0.1891
 7838W        W23972   9.240   2.150   3.196  0.3650  0.0988  0.0175
 7839W        W23973   0.123  18.693   0.439 -0.2564  0.3049 -0.1905
 7840W        W23974   4.227  15.013   4.766  0.2008  0.0673 -0.1800
 7841W        W23975  10.774   7.670  10.197 -0.2469  0.0029 -0.0337
 7842W        W23976  14.657  17.410   3.861 -0.1008 -0.2257 -0.0213
 7843W        W23977   0.779   5.451   2.516  0.1777 -0.4430  0.0490
 7844W        W23978  16.905   6.098  10.214  0.0424  0.1802 -0.2710
 7845W        W23979  10.727   0.447   0.679  0.1505  0.0416  0.1624
 7846W        W23980   0.048   5.133  11.170  0.1227 -0.1509 -0.2595
 7847W        W23981   5.360  14.484   0.055 -0.1170 -0.0550  0.0747
 7848W        W23982  12.455  12.715   3.761 -0.2202  0.0728 -0.1900
 7849W        W23983  10.488   0.254   1.901  0.2100  0.3118  0.0616
 7850W        W23984  15.012   3.714  13.819 -0.1599 -0.0925  0.0306
 7851W        W23985   6.237  17.709  12.505 -0.1240  0.2773 -0.2018
 7852W        W23986  12.404  14.945  14.175 -0.0451 -0.0668 -0.1521
 7853W        W23987  17.415  16.947  12.779 -0.0057  0.0839 -0.3940
 7854W        W23988  15.333  15.514   3.379  0.1520  0.1449  0.1875
 7855W        W23989   5.411  13.699  14.712 -0.4180 -0.1556 -0.0732
 7856W        W23990   1.245   2.479  10.239  0.1040 -0.0063 -0.1865
 7857W        W23991   2.681   7.661   0.980 -0.1497 -0.3256  0.2214
 7858W        W23992   1.116  11.039  14.447 -0.2708  0.0879  0.0231
 7859W        W23993  17.826  14.628  13.748  0.0088 -0.0439 -0.1440
 7860W        W23994   6.400   7.243   1.595  0.3241 -0.2713 -0.1765
 7861W        W23995   2.914  17.871  11.321 -0.0645  0.2247  0.0069
 7862W        W23996   3.811   8.058   0.933 -0.3349 -0.1901  0.1902
 7863W        W23997   3.081  18.145   2.494 -0.0585 -0.2116  0.0032
 7864W        W23998   0.393   7.090   5.085 -0.0534  0.1733 -0.0651
 7865W        W23999   0.675  18.855   0.464 -0.3127 -0.2224 -0.0643
 7866W        W24000  13.689  17.447  14.197 -0.1356  0.0908 -0.0105
 7867W        W24001  12.705   8.039  12.541  0.1553 -0.1959 -0.2985
 7868W        W24002   4.483  17.999  12.470  0.2899 -0.1652 -0.0719
 7869W        W24003   5.669  10.956   3.637  0.2309  0.1497  0.4538
 7870W        W24004   2.456   8.453  14.983  0.0575  0.2262 -0.0628
 7871W        W24005   1.322  16.956  10.706 -0.0512 -0.2716 -0.4195
 7872W        W24006  14.372   7.887  13.220  0.1002  0.0478  0.0144
 7873W        W24007   4.438  11.844  10.676  0.3092  0.1822 -0.0714
 7874W        W24008   1.286   2.317   4.243  0.1130 -0.1289 -0.1441
 7875W        W24009   8.674   0.906   1.538  0.0330  0.0909  0.4545
 7876W        W24010   3.682  14.458  12.609 -0.2517 -0.1186  0.4827
 7877W        W24011  12.583   5.355   4.144 -0.0208  0.1782 -0.3939
 7878W        W24012  15.766   4.818   2.767 -0.0017  0.1332  0.0725
 7879W        W24013   0.556   7.425   4.728 -0.1259  0.0322  0.1306
 7880W        W24014  11.431   5.521  10.385  0.0661  0.2518  0.0111
 7881W        W24015   6.602   0.984  10.965 -0.1028  0.0620 -0.0941
 7882W        W24016   4.335   5.087  12.675  0.1709  0.0790 -0.0154
 7883W        W24017   3.950   3.634  10.365 -0.0796  0.4634  0.1339
 7884W        W24018  10.857   1.921  14.542  0.0829  0.0259  0.2883
 7885W        W24019   0.581  17.558   3.930 -0.1512 -0.0210 -0.2844
 7886W        W24020  12.411  17.204  11.265 -0.1130 -0.1348  0.0861
 7887W        W24021  11.097   3.557   2.268 -0.2802 -0.3370  0.1145
 7888W        W24022   1.647  14.412  12.013  0.1319  0.0340  0.2432
 7889W        W24023  16.225   6.615   4.498  0.1231  0.3096  0.2022
 7890W        W24024   5.504   8.235   1.910 -0.1922 -0.0423  0.0316
 7891W        W24025  17.600  17.342   4.421 -0.3014  0.1471 -0.0958
 7892W        W24026  17.275   0.444   3.435 -0.1961  0.1416 -0.2022
 7893W        W24027   0.017   5.401   3.041 -0.2460  0.0807 -0.1524
 7894W        W24028   4.359  17.038   0.343  0.0642 -0.0371 -0.0712
 7895W        W24029   9.012  11.749   1.890  0.3169 -0.0959 -0.1475
 7896W        W24030   9.881   6.341  12.079  0.0611  0.1053 -0.4619
 7897W        W24031   7.013   0.094   1.208  0.1294 -0.4280  0.0180
 7898W        W24032   9.258   0.643  11.886 -0.1743 -0.1171  0.0873
 7899W        W24033  14.000  10.487  14.883  0.0819  0.0684 -0.0605
 7900W        W24034   5.014  15.706   4.503 -0.0469 -0.1100 -0.0268
 7901W        W24035   0.249   0.524   2.652  0.2374  0.0562  0.3178
 7902W        W24036   7.613  10.206  15.116 -0.2906 -0.1238  0.2890
 7903W        W24037  14.455   6.051  11.335  0.1569 -0.0440 -0.0138
 7904W        W24038   2.004   5.564  10.965  0.2205 -0.0330  0.2473
 7905W        W24039   4.587  11.172  11.449 -0.1139  0.2373  0.3864
 7906W        W24040  17.387  11.901  10.211  0.1841 -0.0719  0.1027
 7907W        W24041  14.712  11.461   4.585  0.2236 -0.1108 -0.0741
 7908W        W24042  15.087  11.387  11.989 -0.2634  0.0962  0.1021
 7909W        W24043   2.333   5.384  12.607 -0.0349 -0.1074  0.2159
 7910W        W24044  14.029  14.286  11.993  0.0586 -0.2305 -0.1914
 7911W        W24045  17.168   8.276   0.883  0.3906  0.3549  0.0527
 7912W        W24046   9.784  11.313  12.866  0.0058 -0.1616 -0.0084
 7913W        W24047  17.840   9.963  14.098  0.0456  0.1965  0.0486
 7914W        W24048  10.935  13.837  13.879 -0.1021 -0.1712  0.1197
 7915W        W24049   9.067  11.448   2.951 -0.3469 -0.2327 -0.2072
 7916W        W24050  13.788  16.907   3.041  0.2729 -0.0000  0.2064
 7917W        W24051   6.684  11.906  11.393 -0.3089  0.1213  0.0307
 7918W        W24052   4.794  15.105  11.785  0.2875  0.0441  0.1893
 7919W        W24053   3.383   6.454   4.602  0.1722 -0.3402 -0.0202
 7920W        W24054  10.369  13.016   1.347 -0.0946 -0.5239  0.2169
 7921W        W24055  18.885  18.297  13.611 -0.3028  0.3445 -0.1537
 7922W        W24056   2.832  14.539   5.259  0.1484  0.0823  0.0465
 7923W        W24057  10.833  11.943   4.848 -0.2384  0.2669  0.1995
 7924W        W24058  18.863  13.420   1.726  0.0053  0.3022  0.0799
 7925W        W24059   7.243  18.822  12.939  0.0391 -0.2249  0.1181
 7926W        W24060  16.757   4.445   5.887  0.0142 -0.1781  0.0345
 7927W        W24061  15.319   6.821   0.740 -0.0914  0.4278 -0.1278
 7928W        W24062   0.769   7.525   2.855  0.2388 -0.1019 -0.0902
 7929W        W24063  12.776   0.653  11.937  0.3270 -0.1156 -0.0119
 7930W        W24064   0.762   9.105  14.218  0.1277 -0.2257 -0.1665
 7931W        W24065  16.468  17.405  10.526  0.2816  0.1394  0.0361
 7932W        W24066  17.340   4.982   2.850 -0.0699  0.1360 -0.0942
 7933W        W24067   4.059   1.632   3.457 -0.1176 -0.4132  0.0980
 7934W        W24068   5.128   1.819   4.701  0.2869  0.1870  0.0678
 7935W        W24069   0.324  10.509  11.352  0.3049 -0.2170 -0.1467
 7936W        W24070   0.783  13.541   1.205  0.0011  0.0182  0.0904
 7937W        W24071  18.864   8.972  13.573  0.0428  0.0612  0.0344
 7938W        W24072   4.851  10.568  15.082 -0.0548 -0.1854  0.1093
 7939W        W24073   0.455   4.670   0.258 -0.0728 -0.2139 -0.2463
 7940W        W24074   4.131   3.022   3.796 -0.1050 -0.1172 -0.3342
 7941W        W24075  11.583   4.282   2.624  0.0703  0.0238  0.0569
 7942W        W24076  17.912   9.326   3.495  0.1138  0.0511  0.3227
 7943W        W24077  13.756  14.357  14.650 -0.0159 -0.0166 -0.0462
 7944W        W24078   1.194  11.833   2.058  0.1333 -0.2831  0.1599
 7945W        W24079  14.040  11.439  10.545 -0.0184 -0.3370 -0.2372
 7946W        W24080   1.795   7.228   4.867  0.0110  0.0006  0.0287
 7947W        W24081  15.219   8.808   1.380  0.2879 -0.1998  0.3526
 7948W        W24082   0.194  11.207   0.199  0.0766  0.1744  0.2726
 7949W        W24083   6.588  12.515   1.721 -0.1477 -0.1490  0.4302
 7950W        W24084  13.675  12.828   1.080 -0.0536  0.1135  0.0513
 7951W        W24085   2.404  10.824  12.753 -0.1490  0.0637  0.1200
 7952W        W24086   8.605  14.210  11.649 -0.0091 -0.1283  0.0254
 7953W        W24087   9.107   9.052   3.114  0.0238  0.0593  0.3302
 7954W        W24088  18.872   6.046   3.784  0.3558 -0.2018  0.0817
 7955W        W24089   7.695  17.060  15.062  0.1451 -0.1477  0.0230
 7956W        W24090  10.697   5.879  14.577  0.2114  0.0021 -0.2921
 7957W        W24091  13.719   5.911  10.751  0.2781  0.3965 -0.1053
 7958W        W24092  11.953   7.802   3.403  0.1310  0.4409 -0.1049
 7959W        W24093   9.324  13.426  12.451  0.0993  0.0170  0.2127
 7960W        W24094   2.817   8.261   3.619  0.3136  0.4622 -0.1449
 7961W        W24095   1.458  12.065   4.712  0.2197 -0.1471  0.2134
 7962W        W24096   9.488  12.831  14.373  0.1871 -0.0837 -0.4368
 7963W        W24097   8.212   7.405   0.055  0.0644 -0.0353  0.1151
 7964W        W24098   1.138  12.933   2.088  0.2250  0.1443 -0.2734
 7965W        W24099   2.515   3.205   5.200 -0.0689 -0.0730  0.3218
 7966W        W24100   8.556  15.403   0.522  0.1012  0.1334 -0.0450
 7967W        W24101   2.416  16.087   4.445  0.0909  0.0072  0.0897
 7968W        W24102  16.340   0.495   5.260 -0.0524 -0.0067  0.1941
 7969W        W24103   0.221  11.149   3.425 -0.1549  0.1662 -0.0951
 7970W        W24104   6.784   6.468   2.323 -0.1577  0.3358 -0.1125
 7971W        W24105  11.311  10.702   1.472 -0.2460  0.0697 -0.2288
 7972W        W24106  14.881  18.391  11.139 -0.2508 -0.1657  0.0044
 7973W        W24107  12.298   6.789   0.887 -0.2988 -0.1175  0.0151
 7974W        W24108   9.694   4.522   3.953 -0.0614 -0.0715  0.2404
 7975W        W24109   4.169  14.433  13.419 -0.1145 -0.0641  0.0234
 7976W        W24110  18.077  15.368  13.019  0.0346  0.1931  0.0209
 7977W        W24111   3.870   0.289  15.016  0.0978 -0.1585 -0.1134
 7978W        W24112  11.626  15.499   4.440  0.3685  0.1145 -0.0791
 7979W        W24113   4.615   2.037   5.048 -0.0320  0.3800 -0.0181
 7980W        W24114  17.427  15.000   3.518  0.1550  0.0516  0.0609
 7981W        W24115   8.419  14.030   1.757  0.1363  0.0929 -0.3667
 7982W        W24116  14.388   3.182   2.873 -0.2008  0.2813  0.1649
 7983W        W24117  18.064   9.552  14.332  0.2875 -0.0531  0.1852
 7984W        W24118   3.057   7.759  11.782  0.3774  0.1143  0.1296
 7985W        W24119  14.031  13.402  13.287 -0.0353 -0.2701 -0.3820
 7986W        W24120  11.727  17.694   1.399  0.1215 -0.1684 -0.0007
 7987W        W24121   8.727  15.536   0.040 -0.2875 -0.0746 -0.2059
 7988W        W24122  13.824  10.200   0.714  0.1231 -0.2632 -0.0458
 7989W        W24123  14.290  15.481   2.747  0.0290 -0.2296 -0.4816
 7990W        W24124   8.188   0.248   2.671 -0.0883 -0.1111  0.0799
 7991W        W24125   7.941  17.976  15.022 -0.2749  0.0058 -0.2448
 7992W        W24126   9.008   6.074   0.977  0.0810 -0.0014 -0.0115
 7993W        W24127   1.584  15.259   0.322  0.2208 -0.1549 -0.1749
 7994W        W24128   0.830  17.113   0.363  0.2744 -0.1437  0.1354
 7995W        W24129  10.601   3.275   4.980 -0.1034  0.0001  0.1042
 7996W        W24130   7.815  16.674  13.729  0.1605  0.2753 -0.0981
 7997W        W24131  16.087  15.220  10.840  0.1730  0.1903 -0.0505
 7998W        W24132   2.032   7.559  12.690  0.1065  0.0880  0.0349
 7999W        W24133   0.608   5.625  14.383  0.0247 -0.3898 -0.0748
 8000W        W24134  14.203  13.624  14.543  0.0308  0.2387 -0.1158
 8001W        W24135  13.819   2.304   4.405 -0.4722 -0.0736 -0.0277
 8002W        W24136   9.399  12.965   2.036  0.0704 -0.1337  0.1580
 8003W        W24137  15.390   5.320   5.393  0.0163  0.0333 -0.1884
 8004W        W24138   3.499  14.032   5.435 -0.0799  0.0101  0.0216
 8005W        W24139   4.041  15.635   3.265 -0.4447 -0.1388  0.4567
 8006W        W24140   4.304   7.216   3.371  0.1074 -0.1555  0.0222
 8007W        W24141  17.466  15.873   4.107  0.5170 -0.0873 -0.1742
 8008W        W24142  12.989  15.624   4.491 -0.2193 -0.4054 -0.2851
 8009W        W24143  17.828   0.342   2.020  0.1858  0.1239 -0.0324
 8010W        W24144   1.822   4.934   0.024 -0.2228  0.2023  0.0819
 8011W        W24145  12.423  18.142   2.048  0.0593 -0.0970 -0.2085
 8012W        W24146  12.236  12.152  11.739 -0.0997  0.0548 -0.5602
 8013W        W24147   3.881  18.148   1.990 -0.2462  0.0221  0.1277
 8014W        W24148  12.591  14.583  13.170  0.0732  0.2683  0.1992
 8015W        W24149   3.503  11.769   0.552 -0.2057 -0.0833  0.2071
 8016W        W24150   2.090  12.929   3.862  0.1198 -0.0053  0.2368
 8017W        W24151   8.569  12.634   3.573  0.2520 -0.4295  0.0127
 8018W        W24152  12.433   0.577   4.458  0.1476 -0.3724  0.6022
 8019W        W24153  11.225   6.732   9.214 -0.2472 -0.1109  0.0130
 8020W        W24154   2.010  11.686  11.143  0.2571  0.3130  0.0965
 8021W        W24155   7.231  16.965   0.698  0.0482  0.0871 -0.3198
 8022W        W24156   3.154  11.924  15.251  0.1510  0.1980  0.3234
 8023W        W24157  10.108  10.294  11.872  0.0575 -0.0344 -0.1370
 8024W        W24158   4.291   5.686  10.263  0.1853 -0.3133  0.0469
 8025W        W24159   6.573  11.156   3.176  0.3083 -0.0132 -0.0754
 8026W        W24160  17.862   7.849   2.397  0.1153 -0.2363  0.0409
 8027W        W24161  12.336   4.550  11.055 -0.2386  0.1489 -0.4168
 8028W        W24162  13.327  11.176   5.119 -0.0201  0.0775  0.1324
 8029W        W24163   7.121   1.322  13.242 -0.1029 -0.1421  0.4981
 8030W        W24164   9.952   8.004  13.365  0.0644  0.0919  0.1175
 8031W        W24165  14.724   3.899   1.713 -0.1460 -0.0001 -0.0877
 8032W        W24166   8.174  13.017  10.648  0.2591 -0.0303 -0.1373
 8033W        W24167  10.090   5.377   0.315 -0.0406  0.2727  0.0160
 8034W        W24168  13.749  14.998  11.613 -0.0853 -0.1231  0.1046
 8035W        W24169   8.815   5.850   2.748  0.2732  0.0268 -0.0025
 8036W        W24170   6.956  12.407  10.384 -0.1757  0.2157  0.1536
 8037W        W24171   5.852   4.726  12.612  0.2040  0.3773  0.1452
 8038W        W24172   7.129   0.860  13.097  0.0722 -0.2117 -0.0246
 8039W        W24173   4.816  14.050   4.116 -0.0811 -0.0151  0.1011
 8040W        W24174   5.375   4.506   5.212  0.1934  0.3140 -0.1323
 8041W        W24175  12.776  11.849  13.313  0.0227 -0.2987 -0.0291
 8042W        W24176  10.710   0.476   2.384 -0.3616  0.1236 -0.0839
 8043W        W24177  13.162  15.981   3.341  0.1572 -0.0380  0.1677
 8044W        W24178   8.619  16.753   5.073 -0.0318  0.1916  0.3741
 8045W        W24179   9.188   5.200  12.245  0.0332  0.1874  0.1772
 8046W        W24180   7.867   4.145  10.583 -0.0668 -0.2702 -0.0015
 8047W        W24181   8.464   9.491  14.811  0.0338 -0.1441  0.1734
 8048W        W24182   7.781  11.129  14.067 -0.0370 -0.3336  0.3992
 8049W        W24183   6.209  13.097   3.421  0.1211  0.0617 -0.0361
 8050W        W24184   6.711  14.710  13.490 -0.0614  0.1154 -0.0167
 8051W        W24185   3.993  15.656   4.263 -0.0745  0.0588  0.1616
 8052W        W24186   9.640   9.721  12.358 -0.1438  0.1345 -0.0518
 8053W        W24187   7.315   4.372  12.201  0.0958 -0.1832  0.0251
 8054W        W24188   2.680   1.142   4.266 -0.2183  0.1707 -0.2209
 8055W        W24189  13.715   3.536   0.688  0.0704  0.1410  0.1483
 8056W        W24190  14.935   8.425   4.861  0.1078  0.1945 -0.0860
 8057W        W24191  11.111  15.892   0.272  0.0522  0.3978 -0.1353
 8058W        W24192   1.737   5.783   5.810 -0.2189  0.1604 -0.1448
 8059W        W24193  16.734   7.937  13.822  0.3446  0.0179  0.0344
 8060W        W24194  16.645  13.340   1.752  0.2401  0.1420 -0.4730
 8061W        W24195  14.024   5.495   1.910 -0.0389  0.2438 -0.0885
 8062W        W24196   8.136   3.329  12.779  0.1715 -0.0933  0.0612
 8063W        W24197   3.897  10.192  14.224  0.2306  0.2082 -0.1585
 8064W        W24198  10.370   6.257  12.071  0.0899 -0.2937  0.2787
 8065W        W24199  11.808   0.650  14.828 -0.1614 -0.2941  0.1223
 8066W        W24200  18.504  12.492  11.792 -0.0116 -0.1221  0.2384
 8067W        W24201   3.089  13.433  12.573 -0.0862 -0.1605  0.0356
 8068W        W24202   2.016   1.859  13.753 -0.0654  0.1955  0.1798
 8069W        W24203   7.843   6.330   3.545  0.0807 -0.0138 -0.0173
 8070W        W24204  16.194   4.965   2.259  0.0774 -0.1239  0.0856
 8071W        W24205   4.954   0.040   5.722  0.0142  0.2354 -0.2361
 8072W        W24206  16.744   9.704  12.084  0.0185 -0.1226 -0.2189
 8073W        W24207  16.921  13.789   4.591  0.0537  0.1438 -0.0211
 8074W        W24208   6.887  18.193   2.649 -0.0418  0.1151  0.0648
 8075W        W24209   8.208  18.603  10.368 -0.3958 -0.0798 -0.0109
 8076W        W24210   8.327   6.639   0.729  0.0432 -0.4238 -0.1011
 8077W        W24211  15.778  11.160  15.154 -0.0638 -0.0587  0.1864
 8078W        W24212  17.037  11.967  11.984  0.0374 -0.1967 -0.0535
 8079W        W24213   0.977   0.273   3.758  0.1141 -0.1432 -0.2853
 8080W        W24214  12.798  14.373   3.819  0.2655 -0.0741  0.1522
 8081W        W24215  18.240   8.968   0.085 -0.1130  0.1975 -0.0686
 8082W        W24216   7.786   5.098   2.338 -0.1384 -0.0967 -0.0108
 8083W        W24217   2.258   9.504  12.617 -0.1889 -0.2037 -0.4419
 8084W        W24218   9.680  11.247   1.309  0.0880 -0.2972 -0.0810
 8085W        W24219   6.128   2.380  10.461 -0.1271  0.1212 -0.2372
 8086W        W24220  14.106   8.740   3.451  0.2305  0.2820  0.0231
 8087W        W24221  18.658  10.705   5.969 -0.2700 -0.0660 -0.0487
 8088W        W24222   8.706  10.033   4.375 -0.1001 -0.0409 -0.2363
 8089W        W24223  17.729   8.762   1.451 -0.3672  0.5295 -0.1657
 8090W        W24224  11.217   9.403   4.150 -0.2217 -0.1529 -0.0752
 8091W        W24225  15.883  18.660  12.622  0.3483  0.0374  0.0068
 8092W        W24226   3.914  15.621  13.934  0.0131 -0.0954  0.1292
 8093W        W24227   4.750  11.300  14.233  0.0081  0.4441 -0.5285
 8094W        W24228   2.487  18.384  14.999  0.0440  0.2491  0.0258
 8095W        W24229  12.820   7.111  14.086 -0.1040 -0.4143  0.1482
 8096W        W24230  16.073  13.162  13.514  0.1183  0.3518  0.2558
 8097W        W24231   7.475  13.902  13.104  0.1391  0.2297  0.0649
 8098W        W24232   1.014   3.452  11.344  0.2688  0.2111 -0.0869
 8099W        W24233   2.579   5.879  10.325  0.2580 -0.1183  0.1945
 8100W        W24234   4.231   4.622  13.841  0.0648 -0.2090 -0.1659
 8101W        W24235  16.139  17.086   4.144 -0.0982 -0.0269 -0.2035
 8102W        W24236  17.613  18.072   5.149 -0.2601  0.0170  0.3374
 8103W        W24237   6.622  11.260   3.705  0.0058  0.3148  0.2315
 8104W        W24238  18.479   0.953  14.373 -0.1010  0.1988  0.1204
 8105W        W24239   4.501  18.657  11.701  0.2656 -0.0922  0.0250
 8106W        W24240  12.785   9.472  11.508 -0.0468  0.3775 -0.0610
 8107W        W24241   8.818   8.304  12.203  0.0655  0.2278 -0.4400
 8108W        W24242   0.977   4.500  15.054 -0.2552  0.0072  0.0817
 8109W        W24243  17.708  17.117  14.776 -0.3226 -0.2172 -0.4574
 8110W        W24244  11.264  18.198  12.600  0.3819 -0.1269 -0.1081
 8111W        W24245   7.091   5.650  15.143 -0.1070  0.1495 -0.2089
 8112W        W24246   2.110  18.881   0.829 -0.0551 -0.1905  0.1002
 8113W        W24247   1.270  10.728   5.215  0.0491 -0.0312 -0.0618
 8114W        W24248   4.209  14.790  13.808  0.2600  0.1261  0.1690
 8115W        W24249   4.112   6.224  13.978  0.1951 -0.2981 -0.0502
 8116W        W24250  15.736   1.583  14.799 -0.2250  0.1489  0.2401
 8117W        W24251  14.226   8.380   2.649 -0.3052 -0.2045 -0.0755
 8118W        W24252   0.181   4.773   0.716 -0.1662  0.0644 -0.0484
 8119W        W24253  18.202   6.698   0.773  0.2953 -0.0556  0.3209
 8120W        W24254  13.501  15.569   3.292 -0.1741  0.1681  0.1130
 8121W        W24255  12.015   9.207   0.094 -0.3342  0.3032  0.3533
 8122W        W24256   1.306  16.453   5.282 -0.0346 -0.0493 -0.0525
 8123W        W24257  13.268   6.075  11.638 -0.1146 -0.1685 -0.2090
 8124W        W24258   2.812  10.297  11.503 -0.1401  0.0641 -0.1277
 8125W        W24259  18.605   1.645  14.069  0.0671 -0.2697 -0.1586
 8126W        W24260   6.962   8.990   3.713  0.2644  0.0453 -0.1315
 8127W        W24261   8.608   9.884   2.942  0.1919  0.0668 -0.0742
 8128W        W24262  10.356   3.304   0.858  0.2900 -0.2393  0.1372
 8129W        W24263  10.709   8.874  13.462  0.0595  0.2381  0.0116
 8130W        W24264   1.912   1.858   2.923  0.1279  0.1710 -0.1627
 8131W        W24265  11.712  12.685  10.592 -0.0615 -0.3710  0.3426
 8132W        W24266   7.415   2.509  13.803  0.0595  0.3601  0.2491
 8133W        W24267  18.062  18.406   0.241  0.0380  0.1371  0.5180
 8134W        W24268   6.922  12.894   0.440  0.0456  0.1401  0.0269
 8135W        W24269  17.237  17.749  11.350  0.1452 -0.0277  0.0044
 8136W        W24270   5.079  13.666  11.967 -0.2620 -0.3855  0.1231
 8137W        W24271  14.161   4.212  14.107  0.0772 -0.0333  0.2222
 8138W        W24272   5.808   5.797   2.613 -0.0068 -0.3663  0.0212
 8139W        W24273  11.912   0.746  12.105  0.1274 -0.0775  0.0940
 8140W        W24274  13.349   0.800  12.220  0.2072 -0.3069  0.1905
 8141W        W24275  13.479  17.520  13.582  0.1703  0.0563 -0.1483
 8142W        W24276  12.287   0.850  13.941 -0.2176 -0.1892 -0.2451
 8143W        W24277   7.650  10.894  15.027 -0.1718  0.0745  0.2560
 8144W        W24278  15.980  13.347   2.006 -0.2839  0.0099  0.1632
 8145W        W24279   6.523  11.282   2.422 -0.1397 -0.1033  0.0125
 8146W        W24280  14.007   2.693  13.095 -0.1177  0.0946 -0.0159
 8147W        W24281   6.272  13.955   0.837 -0.1039 -0.2894 -0.3408
 8148W        W24282   6.475   5.509  11.202  0.0742  0.2190  0.0662
 8149W        W24283   5.985  17.587   4.174  0.0797  0.2319 -0.0144
 8150W        W24284  10.519  15.206  10.335  0.1291 -0.0821 -0.1422
 8151W        W24285   9.859  11.137  11.407  0.0354 -0.1417  0.3042
 8152W        W24286   3.661   7.754   4.009  0.0665 -0.1224 -0.0159
 8153W        W24287  10.879  10.607  15.160 -0.2081  0.1549  0.2525
 8154W        W24288   5.960   7.384   1.681 -0.1125 -0.1006  0.0870
 8155W        W24289   3.519  10.759   5.128  0.3691 -0.0690  0.0398
 8156W        W24290  12.475   6.015   1.750  0.0454 -0.1487 -0.3320
 8157W        W24291  18.164   1.147  11.659 -0.2843  0.0405 -0.0343
 8158W        W24292   2.102  18.254  11.692 -0.0426 -0.2268  0.0823
 8159W        W24293   7.800   8.102  14.808  0.2347  0.0889 -0.0182
 8160W        W24294   5.406  18.342  12.955  0.2331 -0.1611 -0.3018
 8161W        W24295   1.600   8.837  13.749  0.0238 -0.1061 -0.2137
 8162W        W24296   2.187  17.184  13.239  0.0406  0.4001 -0.1165
 8163W        W24297   9.766  10.291   2.356 -0.0930  0.1949 -0.1738
 8164W        W24298  13.055   8.132  10.528  0.2312  0.0141 -0.2817
 8165W        W24299  15.115  10.316   4.784  0.1932 -0.1718  0.4390
 8166W        W24300  16.874   6.597   5.947 -0.1041 -0.0182  0.6180
 8167W        W24301   5.700   6.034  13.585 -0.3607  0.2337  0.1811
 8168W        W24302  15.473  15.478   3.828  0.0502 -0.1040 -0.0047
 8169W        W24303  13.361   3.169  13.709 -0.0552  0.2067 -0.1698
 8170W        W24304  12.249  11.055  11.995  0.0687 -0.1033  0.2457
 8171W        W24305   0.490   4.404  13.024  0.1194 -0.2012 -0.3371
 8172W        W24306  15.820  17.347  14.260  0.0368  0.1245 -0.1551
 8173W        W24307  15.112  11.895  10.904 -0.2848  0.0260  0.2457
 8174W        W24308   9.553  13.685   2.807 -0.1911 -0.4746 -0.1989
 8175W        W24309  14.535  17.917   4.648  0.0620  0.1547 -0.1209
 8176W        W24310  17.755   1.235   4.595  0.0187  0.1079  0.2517
 8177W        W24311  13.560  17.297   4.844 -0.0704 -0.1564 -0.2083
 8178W        W24312   4.566   5.440   3.870  0.0644  0.1864  0.2074
 8179W        W24313  16.867  11.970   4.032  0.1977  0.0112 -0.0047
 8180W        W24314  17.782  18.098   2.758  0.2454 -0.1509  0.2823
 8181W        W24315  13.641   1.003  11.287  0.0880 -0.1214 -0.0681
 8182W        W24316   0.867   5.601   0.670 -0.2346  0.0016 -0.0660
 8183W        W24317   3.406  14.879   4.391  0.2425 -0.1355 -0.1510
 8184W        W24318  15.201  13.033   0.045  0.0317 -0.0428  0.4918
 8185W        W24319   2.337  10.248   1.899  0.0451 -0.0058 -0.1230
 8186W        W24320  11.444   7.086  12.422  0.1201 -0.1409 -0.0254
 8187W        W24321  18.577   3.678   5.104 -0.0523  0.0565 -0.2439
 8188W        W24322  16.955  12.978   3.955  0.1039 -0.1759  0.0727
 8189W        W24323  15.670  13.191   3.297  0.1806 -0.1081  0.2438
 8190W        W24324  11.081  10.451  14.209  0.1672 -0.2696  0.0522
 8191W        W24325  16.729   2.676  12.871 -0.1190  0.0276  0.1242
 8192W        W24326  14.588   4.095   0.109 -0.1411  0.1057 -0.3141
 8193W        W24327   5.011   3.347  12.250 -0.2620  0.0646  0.2167
 8194W        W24328   0.734  11.303  14.294  0.2486  0.0102  0.0546
 8195W        W24329  16.478  11.721  11.877 -0.2521  0.2180 -0.2709
 8196W        W24330   5.862  10.841  13.277  0.1299 -0.0128 -0.3479
 8197W        W24331   8.409   3.157   1.408 -0.1035 -0.0691  0.0425
 8198W        W24332   3.419  10.991  12.834 -0.1295  0.0679  0.0402
 8199W        W24333   1.550  16.994   2.935  0.0532 -0.0920 -0.3302
 8200W        W24334  12.372  16.189   3.073  0.2950  0.0510 -0.1692
 8201W        W24335   4.196  12.861  13.710  0.0731 -0.0094  0.2283
 8202W        W24336   9.408  15.782   0.937 -0.1874  0.0369 -0.0451
 8203W        W24337  11.613   1.927  13.563 -0.1431  0.2353  0.1668
 8204W        W24338  10.647  15.711   0.252  0.3482 -0.4466 -0.0112
 8205W        W24339  17.878   7.280  13.389  0.1393  0.4068  0.0150
 8206W        W24340  17.494   0.919  12.298  0.2868  0.2878 -0.0488
 8207W        W24341   9.038   9.436  14.980 -0.3360 -0.0266  0.0421
 8208W        W24342   8.253  17.778   1.383  0.2910  0.1338  0.1533
 8209W        W24343  16.816   0.633   1.757  0.0195  0.0132 -0.2011
 8210W        W24344  16.412  12.917   1.195 -0.1849  0.1157  0.3777
 8211W        W24345   7.165  14.206   2.476  0.0173 -0.1310  0.0938
 8212W        W24346  11.725  12.438  11.095 -0.1747  0.1429  0.0103
 8213W        W24347   7.226   6.108  14.959 -0.0310  0.1424  0.2300
 8214W        W24348   0.604  10.205  10.632 -0.3004 -0.0263  0.2920
 8215W        W24349  12.963   9.017   2.299  0.0036 -0.0900 -0.0283
 8216W        W24350  17.449   7.230   1.996  0.0957  0.1197  0.2496
 8217W        W24351  12.569   9.444  14.639 -0.0011 -0.1665  0.0689
 8218W        W24352   9.019  15.394   2.552 -0.0717  0.1254 -0.1393
 8219W        W24353  18.299  15.459   2.888 -0.1834 -0.0379 -0.1510
 8220W        W24354  14.548   2.254   1.829 -0.2337 -0.2909 -0.1797
 8221W        W24355   0.553   1.023  11.089  0.2808 -0.3043 -0.5325
 8222W        W24356   6.023  15.273  14.561 -0.2224  0.2466 -0.0151
 8223W        W24357   7.373   9.192  10.724  0.2242  0.1006  0.1440
 8224W        W24358   7.422   4.446   1.655 -0.2034 -0.1192  0.1555
 8225W        W24359   9.031  14.819  10.975 -0.0853 -0.3683  0.0059
 8226W        W24360  11.102  18.787  10.856  0.0269 -0.2188 -0.2443
 8227W        W24361  12.860  18.373   3.599  0.2749  0.1282  0.1193
 8228W        W24362   3.376  18.598  14.585 -0.0822 -0.0609 -0.0255
 8229W        W24363  12.647  12.538  14.835  0.2759 -0.1410  0.0449
 8230W        W24364   3.972   7.164  11.995  0.5114 -0.0161  0.0299
 8231W        W24365  10.998  17.979  14.986 -0.0752  0.0514  0.0875
 8232W        W24366   8.837  10.866   3.980  0.1413  0.3334  0.1195
 8233W        W24367   3.315   1.987  11.175 -0.1947 -0.1505  0.1942
 8234W        W24368   8.094   0.222  11.608 -0.1177  0.0834  0.0933
 8235W        W24369  14.152   2.725   1.081 -0.3169 -0.0025  0.4852
 8236W        W24370  11.766  16.386   4.427  0.2591  0.1133  0.1217
 8237W        W24371  17.704   5.769  12.896 -0.3384  0.1315  0.3691
 8238W        W24372  17.637  17.451  11.434 -0.0807 -0.0249 -0.1700
 8239W        W24373  17.093   7.017  13.004  0.0714 -0.1579  0.0825
 8240W        W24374   1.131  18.415  12.904  0.0340  0.1076 -0.2911
 8241W        W24375  18.567  13.526   3.015 -0.0585 -0.1137  0.2145
 8242W        W24376   4.744  18.094  10.583 -0.4484  0.2637  0.0708
 8243W        W24377  11.296   7.124   5.671 -0.2387 -0.1800  0.1555
 8244W        W24378   2.915  18.622  13.345  0.1569 -0.0682  0.0724
 8245W        W24379  18.284  13.827  13.198  0.0369  0.1207  0.1085
 8246W        W24380   9.553  12.540  12.200  0.1823 -0.0544 -0.1994
 8247W        W24381  14.428  17.572  13.899  0.2443 -0.2490  0.1299
 8248W        W24382   6.577  11.469   1.471  0.0586 -0.1655  0.0307
 8249W        W24383  13.610   4.971  13.772  0.0246  0.0202  0.1596
 8250W        W24384   4.719  11.028  10.886  0.0871 -0.5624 -0.4122
 8251W        W24385   4.874   0.428  10.564  0.0859 -0.5020 -0.0434
 8252W        W24386  15.761  10.756   0.171  0.1056 -0.1819 -0.1033
 8253W        W24387  15.689   2.253  10.151 -0.2803 -0.0640 -0.0917
 8254W        W24388  18.532  10.248   0.904 -0.3006 -0.3371 -0.3911
 8255W        W24389   7.244  12.387   4.059  0.0462 -0.1886  0.1238
 8256W        W24390  17.095   0.113   0.385  0.1793 -0.1054 -0.3872
 8257W        W24391  10.613   2.985   3.896 -0.0036 -0.1095  0.0226
 8258W        W24392  15.129   7.689   0.333 -0.1829 -0.1143  0.3554
 8259W        W24393   6.151  11.608   1.677  0.1989 -0.0728  0.2677
 8260W        W24394   2.092  15.390   4.975 -0.0081  0.1179  0.1393
 8261W        W24395   6.483   2.485  12.852  0.0682  0.5006 -0.1397
 8262W        W24396  15.788  16.943  11.197  0.0046  0.0811  0.3853
 8263W        W24397  15.517   6.391  12.775  0.1084 -0.0081 -0.0262
 8264W        W24398   5.917   5.299  10.466 -0.0547 -0.2709 -0.0536
 8265W        W24399   2.713   2.639   1.794  0.0130  0.4485 -0.0053
 8266W        W24400  17.684   4.291   3.297 -0.4596 -0.3738  0.1785
 8267W        W24401  10.310  17.578   3.791 -0.1757 -0.1329  0.0604
 8268W        W24402   6.758   8.074  14.268  0.2680 -0.1104 -0.2532
 8269W        W24403   6.317   1.508   2.265 -0.0029  0.1604 -0.0217
 8270W        W24404   4.440  12.148   4.469 -0.0559  0.0570 -0.1562
 8271W        W24405   1.511  14.444  13.378  0.0178 -0.1299 -0.0061
 8272W        W24406   9.253  11.719   0.980 -0.0208  0.0843 -0.3049
 8273W        W24407  18.827   5.657  15.194  0.0135 -0.0957  0.0974
 8274W        W24408  18.361  13.777   0.046 -0.0681  0.0058 -0.4427
 8275W        W24409  11.658  16.840  15.218 -0.3056  0.3190 -0.0179
 8276W        W24410  12.746   7.698  10.676 -0.0632  0.3185 -0.0789
 8277W        W24411   9.741   1.557  13.269 -0.1958 -0.0900  0.1687
 8278W        W24412   6.276   5.178  12.890  0.0190 -0.1352 -0.1074
 8279W        W24413  18.678   3.767  10.726  0.1075  0.1162  0.0822
 8280W        W24414   5.187   1.222   0.073 -0.1737 -0.3315  0.2423
 8281W        W24415  15.848   9.908  14.470  0.0286 -0.2609 -0.0145
 8282W        W24416  16.829   1.719  11.850 -0.0821 -0.2203 -0.0545
 8283W        W24417   6.669  17.832   9.931 -0.1917  0.1094 -0.0971
 8284W        W24418  15.583  12.274   0.706 -0.0630 -0.1744  0.0292
 8285W        W24419  11.749   0.713  13.850 -0.0212 -0.2102 -0.0869
 8286W        W24420  15.415   2.367   0.913 -0.0495  0.2025 -0.0927
 8287W        W24421  15.609  14.120   4.418 -0.3518 -0.1429  0.2458
 8288W        W24422   9.583  13.145   2.505 -0.0909  0.0296  0.0890
 8289W        W24423  17.570   4.735   3.646 -0.2231 -0.2644 -0.0308
 8290W        W24424   0.119   8.592   0.402  0.2517 -0.0644  0.1693
 8291W        W24425  11.669   7.596  11.759 -0.0189  0.2687 -0.1373
 8292W        W24426   5.384   5.199   1.242  0.1066  0.0582  0.0984
 8293W        W24427  12.359  10.048  13.355 -0.2392  0.3366 -0.0182
 8294W        W24428   7.725   4.860   3.683 -0.0827  0.1315 -0.2718
 8295W        W24429   7.589   8.267  11.794  0.1465  0.1626 -0.1325
 8296W        W24430  15.614   5.257   3.078  0.2526  0.0342 -0.3087
 8297W        W24431   7.249  17.674   0.080  0.0503  0.1960 -0.3802
 8298W        W24432  15.920   5.826   1.966  0.2445 -0.2949 -0.0236
 8299W        W24433   5.150   3.866   1.665 -0.4021 -0.1465  0.0648
 8300W        W24434  12.168   9.872  12.143 -0.1655 -0.0490  0.0301
 8301W        W24435   7.290  10.913  14.695  0.2055  0.1815 -0.2207
 8302W        W24436  14.948   2.566   4.681  0.0152  0.3019 -0.0634
 8303W        W24437   3.678   1.170  11.793  0.2485  0.2318  0.0318
 8304W        W24438  12.345   5.427  10.752 -0.0351  0.0551  0.2232
 8305W        W24439   0.077  16.324   5.524  0.0952 -0.1114 -0.1924
 8306W        W24440  17.201  16.353  13.291  0.0235  0.1244  0.1242
 8307W        W24441   1.540   2.930   0.720  0.1557  0.0732 -0.2406
 8308W        W24442   4.653   4.558   2.669 -0.2059 -0.1569  0.0784
 8309W        W24443   7.606  13.471  10.679 -0.1202  0.0676  0.2961
 8310W        W24444  12.773  11.767   3.817 -0.2257  0.1284 -0.0510
 8311W        W24445   5.729   1.069   0.747 -0.3047  0.2830 -0.2561
 8312W        W24446  14.400   3.832   3.649 -0.2114 -0.2590 -0.0642
 8313W        W24447   5.724   7.709   1.430 -0.1943  0.0050 -0.0294
 8314W        W24448   4.244  17.610  14.750  0.2955 -0.1555 -0.3230
 8315W        W24449   7.594   7.860  12.090 -0.1736  0.5120  0.0728
 8316W        W24450   2.599   5.423   5.377 -0.0369  0.0465  0.0300
 8317W        W24451   8.933   2.091   2.747 -0.0800  0.0672  0.1417
 8318W        W24452   4.514  16.216  15.028 -0.2880 -0.2150  0.0634
 8319W        W24453  14.775   4.119   3.935  0.1200 -0.0191  0.1636
 8320W        W24454  18.076  18.401   3.533  0.0760  0.3991 -0.0475
 8321W        W24455   4.265  13.398   2.238  0.1202  0.0084 -0.1773
 8322W        W24456   9.302   5.700  13.485 -0.1811 -0.0732 -0.0118
 8323W        W24457   0.922   7.129  11.535 -0.0984 -0.1001 -0.1485
 8324W        W24458   3.982   8.579  12.612 -0.0757 -0.0021 -0.1417
 8325W        W24459   8.859  15.080  13.203  0.0527 -0.1592  0.1444
 8326W        W24460   8.572  10.447   4.612 -0.0286  0.5112 -0.2789
 8327W        W24461   6.194   4.449  14.081  0.0998  0.0019 -0.1694
 8328W        W24462   6.398  14.085   3.363 -0.2224 -0.0662  0.2268
 8329W        W24463  14.265  10.347  15.281  0.0815  0.2004 -0.0314
 8330W        W24464  11.132   9.442  10.242 -0.0608 -0.1185 -0.5415
 8331W        W24465  11.926  14.269  11.621  0.0444 -0.1308  0.1678
 8332W        W24466  10.442  16.959  12.223 -0.2222 -0.0627 -0.0850
 8333W        W24467   9.188   3.988   3.182 -0.3338 -0.0317 -0.1347
 8334W        W24468  17.308  14.947   2.080  0.0602 -0.6647 -0.1887
 8335W        W24469   8.759  12.562   4.608 -0.1365 -0.1083  0.0871
 8336W        W24470  14.081   8.879  10.449  0.1809 -0.0679 -0.1427
 8337W        W24471   8.934   1.758   4.045 -0.0066 -0.2566 -0.0996
 8338W        W24472   5.595  13.917   2.584  0.3886  0.0633  0.2560
 8339W        W24473  11.547  18.566  13.907  0.0676  0.4640  0.2948
 8340W        W24474  17.231   4.152  10.797  0.2788 -0.3273 -0.0056
 8341W        W24475   5.538  15.043  11.039 -0.1866  0.2276  0.0595
 8342W        W24476  16.730  18.021  11.188  0.0764  0.0353 -0.1388
 8343W        W24477  13.723   5.884   2.090  0.1608  0.0520 -0.2398
 8344W        W24478  10.475  18.946  12.962 -0.0935 -0.1561 -0.2387
 8345W        W24479   1.799  10.222  14.184 -0.1646 -0.1616  0.0331
 8346W        W24480   1.228   8.764  14.228 -0.2592  0.2060 -0.0902
 8347W        W24481   0.778   0.096  15.268 -0.0935  0.1838 -0.1274
 8348W        W24482   6.539   4.014   4.335  0.3842 -0.0249 -0.1813
 8349W        W24483   9.536   5.018   2.514 -0.0232 -0.2961  0.0543
 8350W        W24484  15.653   1.192  13.043  0.0306  0.2885 -0.4737
 8351W        W24485   8.867  14.253   4.537  0.2414  0.0241  0.0055
 8352W        W24486   2.763  15.995   1.294  0.1794 -0.0997 -0.0813
 8353W        W24487   1.357   2.844   3.689 -0.0975  0.2131 -0.1839
 8354W        W24488  15.194  17.761   0.098  0.1809  0.0201  0.1150
 8355W        W24489  14.333  18.117   0.082  0.0668 -0.2391  0.0390
 8356W        W24490  18.665   1.110   0.139  0.2974 -0.0536  0.2482
 8357W        W24491   3.309  18.008  10.291  0.0578  0.0838  0.1600
 8358W        W24492   9.334   8.049   3.325 -0.1831  0.0745 -0.3031
 8359W        W24493   5.289  18.830   2.430 -0.1728 -0.2276 -0.0390
 8360W        W24494   9.658   7.693  12.628  0.1470 -0.0562 -0.2778
 8361W        W24495  16.297   3.429   2.062 -0.1534  0.0558  0.1644
 8362W        W24496  10.124   3.984  14.013  0.0561  0.0466  0.2250
 8363W        W24497   8.723   5.142   3.874  0.2494 -0.2083 -0.0826
 8364W        W24498  10.941  14.879  14.364  0.1016  0.1720  0.1218
 8365W        W24499   7.799   5.850   1.005  0.3088 -0.0410  0.0387
 8366W        W24500   7.007   7.114  14.258 -0.1429 -0.0222 -0.1139
 8367W        W24501  15.147  15.842   0.855 -0.0837 -0.2286 -0.1048
 8368W        W24502  15.001  10.532  11.738  0.0085 -0.1069 -0.0031
 8369W        W24503  13.975   5.779   5.040  0.1156 -0.0520  0.0556
 8370W        W24504  18.084  10.487   2.153  0.1487  0.1395  0.1402
 8371W        W24505  14.252   4.798   6.119 -0.4405 -0.4026  0.2152
 8372W        W24506   2.827   7.027  10.811  0.1276 -0.1180 -0.1278
 8373W        W24507  11.375   5.034   1.748  0.1359  0.1131 -0.1476
 8374W        W24508   0.202  14.170  14.690  0.2541 -0.1520 -0.0053
 8375W        W24509  15.847  15.361   0.209 -0.3178  0.2762  0.0115
 8376W        W24510  17.120   1.136   2.890 -0.1084  0.2199  0.0736
 8377W        W24511  12.541  14.750   2.719 -0.0844  0.1741 -0.1499
 8378W        W24512   2.786   7.150   9.202  0.2071 -0.0516 -0.2838
 8379W        W24513   0.188  10.391   4.739 -0.1525  0.0843 -0.1383
 8380W        W24514  15.705   8.728   0.717  0.0767 -0.0627  0.0417
 8381W        W24515   5.879   3.509   0.680 -0.3138  0.1694 -0.0187
 8382W        W24516  15.786   0.329   5.370  0.1423  0.0057 -0.0908
 8383W        W24517   7.536  15.503  15.056  0.1887  0.4204 -0.0566
 8384W        W24518   6.854   7.448  12.718  0.1089 -0.0243  0.1219
 8385W        W24519   1.598  12.166   1.869  0.3133 -0.0359  0.2967
 8386W        W24520  12.630   6.962   1.220  0.1412  0.1097 -0.0802
 8387W        W24521  15.257  16.588   1.696 -0.2507 -0.1012  0.1199
 8388W        W24522  18.397  15.630   1.205  0.0743  0.0073  0.0050
 8389W        W24523   7.974  10.581   3.357 -0.3983  0.0399 -0.1690
 8390W        W24524   2.922   2.920  14.907  0.1925  0.1516  0.0067
 8391W        W24525  17.318   0.546   0.396 -0.0043  0.1750 -0.3457
 8392W        W24526  14.178  11.340  13.087  0.0727 -0.0662 -0.2038
 8393W        W24527   6.940  12.435   0.890  0.0591  0.2222 -0.1421
 8394W        W24528  10.196   0.950   2.492 -0.2317  0.0345  0.0035
 8395W        W24529   5.601   9.094  15.024  0.1294  0.2274  0.1621
 8396W        W24530   3.887   9.587   2.280 -0.2113  0.1952 -0.1568
 8397W        W24531  15.269  18.065  11.100  0.1963 -0.3710 -0.0263
 8398W        W24532  11.717  11.468   2.789  0.2836  0.2082 -0.4310
 8399W        W24533   4.093  16.761   4.394  0.0620  0.0080  0.0606
 8400W        W24534   4.760  17.930   3.534 -0.1125  0.2112 -0.2346
 8401W        W24535   8.812  18.822  14.322 -0.4626 -0.1040  0.3205
 8402W        W24536   2.508  13.847  10.980  0.0770 -0.1090  0.0291
 8403W        W24537  10.100   2.669  12.886  0.0557 -0.1463 -0.3731
 8404W        W24538   1.513  13.936   3.773  0.2949 -0.3140 -0.3511
 8405W        W24539   0.873  11.414  11.756 -0.0146  0.3532  0.3047
 8406W        W24540  16.414   8.417  13.852 -0.5092 -0.0435 -0.0410
 8407W        W24541   9.531  18.120  12.232 -0.0118 -0.0246 -0.1534
 8408W        W24542   9.394   4.266   2.752  0.4434 -0.0249 -0.3219
 8409W        W24543   2.816  10.762   5.157  0.1645 -0.1120 -0.4787
 8410W        W24544  18.149   2.188   1.024  0.0297  0.0196 -0.0902
 8411W        W24545   3.157   2.156   2.532 -0.3027  0.0596 -0.3040
 8412W        W24546   3.978  11.907   2.923  0.1716  0.2708  0.0516
 8413W        W24547   8.802   4.393  14.463  0.0204  0.1877  0.3239
 8414W        W24548   6.401  18.354   2.554  0.1961 -0.1066 -0.0150
 8415W        W24549   9.099   4.771   1.910 -0.1312 -0.1375  0.2112
 8416W        W24550   1.984  12.030   1.538 -0.1895 -0.0291 -0.3757
 8417W        W24551  12.446   7.817   3.122 -0.1090 -0.0624  0.0267
 8418W        W24552   9.770   5.637  11.429 -0.1065 -0.0175 -0.0395
 8419W        W24553  12.878   3.658   9.644 -0.1287  0.3554 -0.0725
 8420W        W24554  17.964  17.092   3.783 -0.0087  0.0395  0.2271
 8421W        W24555  17.703  15.830   1.774 -0.0699  0.0380  0.1633
 8422W        W24556   3.721  11.405  11.834 -0.1419 -0.2259  0.0860
 8423W        W24557   9.277  11.106   0.552  0.1138  0.0365  0.1843
 8424W        W24558   5.708   6.796   2.840  0.0258  0.0297 -0.0941
 8425W        W24559  14.067  13.138  11.537 -0.2024  0.0584 -0.2405
 8426W        W24560   4.041   6.011   5.149 -0.2761  0.2135 -0.1061
 8427W        W24561  14.822  13.280   1.851 -0.0208  0.0980 -0.3464
 8428W        W24562   4.474   0.907   9.881  0.4284  0.2877 -0.0251
 8429W        W24563   9.623  11.847   0.683 -0.5687 -0.1128 -0.1747
 8430W        W24564  12.853  15.032  13.911 -0.0465 -0.0061 -0.0521
 8431W        W24565  11.492   4.248  14.223 -0.0703  0.3245  0.0229
 8432W        W24566   9.712   6.059   0.633  0.3065  0.1915 -0.1829
 8433W        W24567   2.930  15.219   2.727  0.3584  0.2533  0.1022
 8434W        W24568   3.428  17.880   2.664  0.2763 -0.1533  0.0466
 8435W        W24569  14.551  12.105  11.648  0.0393 -0.1800 -0.0858
 8436W        W24570   8.867  15.373  12.814  0.3191  0.1665  0.2466
 8437W        W24571  10.173   2.180  13.800 -0.2087  0.1390 -0.2807
 8438W        W24572  15.287   4.574  12.295  0.6146  0.2433 -0.2350
 8439W        W24573  18.878   8.190  11.270  0.1976  0.2461  0.1746
 8440W        W24574  12.963   8.177  14.877  0.0982 -0.1087  0.3432
 8441W        W24575   3.687   3.802   1.640 -0.1179 -0.1504  0.0018
 8442W        W24576   9.582   6.962   4.875  0.1716 -0.0656  0.0928
 8443W        W24577   4.526   1.832   3.574  0.0131  0.1012 -0.1282
 8444W        W24578  18.210  12.147   4.038 -0.1343 -0.0065  0.2283
 8445W        W24579  16.768  13.776  14.913 -0.0749 -0.1346 -0.1599
 8446W        W24580   5.093  12.707   4.618  0.1203  0.3659 -0.0549
 8447W        W24581  16.240   9.050   3.650  0.3003 -0.0866  0.1587
 8448W        W24582   9.685  16.529   1.225 -0.2009 -0.2856  0.1433
 8449W        W24583  11.175   4.811   4.113 -0.1489  0.5218 -0.0946
 8450W        W24584  12.461  18.014   1.358  0.0992 -0.2437  0.0310
 8451W        W24585   8.281   0.635  11.827 -0.1575  0.0278 -0.0289
 8452W        W24586  14.944  15.678   1.462  0.1779 -0.0585 -0.0026
 8453W        W24587  15.414  16.738   0.439 -0.2190 -0.0755 -0.0167
 8454W        W24588   5.947  11.044  11.328 -0.0441  0.0239  0.1247
 8455W        W24589  14.871  16.449  14.276 -0.0630  0.1202 -0.0401
 8456W        W24590  17.213   6.691   4.412  0.0388  0.1689  0.2615
 8457W        W24591  14.956   9.782  14.279 -0.1630  0.1036 -0.1120
 8458W        W24592  14.406  16.957   3.819  0.1034  0.3595  0.0316
 8459W        W24593  17.352   9.256   3.605 -0.0116 -0.1844 -0.1329
 8460W        W24594   0.085   2.652   3.910 -0.1467 -0.1946  0.1722
 8461W        W24595   3.351  18.309   2.913  0.1824 -0.2053 -0.0030
 8462W        W24596  14.445  10.968   4.460  0.0771 -0.2140 -0.0706
 8463W        W24597   2.763  18.395   5.052  0.3290  0.0781  0.1659
 8464W        W24598   4.727  15.862   1.397  0.1944 -0.0260  0.0469
 8465W        W24599  14.501   6.455  14.401  0.3056  0.0825  0.1892
 8466W        W24600  12.885   6.030  14.814  0.1545  0.7982 -0.0073
 8467W        W24601  10.217   7.605  13.259  0.0356 -0.1384 -0.0828
 8468W        W24602   8.439  16.049  14.243  0.1134 -0.1639 -0.0249
 8469W        W24603  15.278  13.733   4.220 -0.3109  0.2048 -0.0796
 8470W        W24604   4.624   6.670   1.546 -0.4245 -0.1225 -0.0149
 8471W        W24605   5.120   8.160   3.888  0.1727 -0.0299 -0.2348
 8472W        W24606  13.561  13.042  10.339  0.2981 -0.1787  0.2942
 8473W        W24607   7.904  15.763   1.182 -0.1178  0.2613  0.0272
 8474W        W24608   8.266   4.740   3.712 -0.0928 -0.0159  0.1997
 8475W        W24609   5.097   2.454   3.868 -0.2929 -0.1389  0.2519
 8476W        W24610   1.621  10.377  12.413  0.0806 -0.2660  0.0304
 8477W        W24611   7.454   7.941  13.366 -0.1888 -0.1982  0.5288
 8478W        W24612  14.521   5.974  13.776  0.0431 -0.3034 -0.2694
 8479W        W24613   1.107   5.791   2.773  0.0941  0.0978  0.0800
 8480W        W24614  17.233   9.461   2.876 -0.0713  0.3068 -0.2792
 8481W        W24615  14.769  15.595  10.429  0.1515  0.1277 -0.0683
 8482W        W24616  14.419  13.862  12.040 -0.0514  0.2342  0.3382
 8483W        W24617  14.707  10.233   0.380 -0.0903  0.4237 -0.0758
 8484W        W24618   1.996  10.315  13.265 -0.3204  0.0530 -0.4887
 8485W        W24619   6.673  16.480  11.408  0.0739  0.0203 -0.1229
 8486W        W24620  10.621   6.733   1.422  0.2002  0.1853  0.2257
 8487W        W24621   4.441   1.264  11.298  0.3044 -0.1200  0.3717
 8488W        W24622  14.004   3.456   3.702  0.0968 -0.0813  0.0538
 8489W        W24623  19.002   7.318   3.158  0.0393 -0.1197  0.3230
 8490W        W24624  18.913  11.409   2.116  0.0134  0.0410  0.0351
 8491W        W24625   9.409   0.444   0.956 -0.2221 -0.1218  0.3065
 8492W        W24626   2.646   9.229   3.240  0.1633  0.1054 -0.0682
 8493W        W24627  13.135  11.932   1.406  0.1726 -0.0354 -0.0562
 8494W        W24628   1.580  18.686   4.153 -0.1455 -0.2201 -0.0644
 8495W        W24629   2.277   3.798  13.642  0.1893 -0.1162 -0.2585
 8496W        W24630   5.077   6.611   3.645 -0.0885  0.0431 -0.1086
 8497W        W24631  10.602   1.639   3.599 -0.1618  0.1574  0.0801
 8498W        W24632   9.522   5.814   5.461 -0.2171 -0.2386  0.4031
 8499W        W24633  16.536  16.865   4.356  0.1312 -0.0349 -0.1175
 8500W        W24634  15.875  15.681  14.281 -0.2460 -0.0462 -0.2236
 8501W        W24635  11.498   7.483   5.309  0.1152  0.0170 -0.2028
 8502W        W24636   9.234   8.331  11.303  0.2473 -0.0610  0.1072
 8503W        W24637   6.286   1.736  14.768 -0.0986 -0.0062  0.5233
 8504W        W24638   2.905   0.940   0.333  0.0682  0.1759  0.3042
 8505W        W24639   6.041   5.210  11.867 -0.3446 -0.0844 -0.1522
 8506W        W24640  12.575   8.492  13.584  0.2074 -0.2272 -0.3308
 8507W        W24641   3.968  14.674  12.980 -0.1262 -0.0869 -0.2107
 8508W        W24642  11.109  16.927  15.270 -0.1237  0.0659  0.0598
 8509W        W24643  17.736  12.534  11.320  0.1236 -0.1045 -0.1895
 8510W        W24644   3.114   3.598  10.399  0.1785 -0.0219 -0.0262
 8511W        W24645  16.403   2.003   1.637 -0.0255  0.1507 -0.0832
 8512W        W24646   5.389  10.695   4.100 -0.2214 -0.4017 -0.1300
 8513W        W24647   6.696   1.456  11.235 -0.0940  0.2374  0.0620
 8514W        W24648  11.742   8.072  12.246  0.4249  0.2172 -0.0256
 8515W        W24649   5.152   0.774  10.837 -0.0105 -0.0641 -0.0714
 8516W        W24650   1.877  17.134  12.012  0.0397 -0.1300  0.1650
 8517W        W24651  13.009  12.169   3.490  0.3272 -0.2993 -0.0246
 8518W        W24652   3.178   9.154   1.730  0.1073  0.0410  0.0926
 8519W        W24653  10.686  11.509   1.530 -0.0355 -0.0591  0.1301
 8520W        W24654   8.357  17.196  11.493  0.3040  0.1723  0.1522
 8521W        W24655   6.619   6.695   2.989  0.0023 -0.3122 -0.1868
 8522W        W24656   7.582  16.715   3.876 -0.0216 -0.0926 -0.0050
 8523W        W24657  13.571  15.195   4.658  0.0554 -0.1728 -0.0924
 8524W        W24658   5.648   7.844  11.360  0.2108 -0.0475 -0.0037
 8525W        W24659   1.999  10.069   5.050  0.0748  0.1862  0.0540
 8526W        W24660   1.510  10.320   4.999 -0.2172  0.0520  0.0600
 8527W        W24661  11.407   7.982   0.436 -0.1046 -0.0861  0.2230
 8528W        W24662   6.424  14.042   4.334  0.0462  0.0295 -0.2569
 8529W        W24663  13.309  15.583  11.943 -0.4031 -0.1595  0.0487
 8530W        W24664   5.537   0.137   3.466  0.0626 -0.0412  0.1401
 8531W        W24665  18.964  13.201  11.684  0.0121 -0.1521 -0.1079
 8532W        W24666  16.788  12.102  11.241 -0.3376  0.0405 -0.1659
 8533W        W24667   6.122   3.171  15.215 -0.0326  0.3014  0.1183
 8534W        W24668  10.206   8.497  12.458  0.2521 -0.1521 -0.1495
 8535W        W24669   4.875   9.804   2.581  0.0674 -0.0076  0.2582
 8536W        W24670  15.021  17.541   5.325  0.2144  0.0159  0.0613
 8537W        W24671  13.734  16.210   2.572  0.0654  0.0273 -0.0796
 8538W        W24672   9.970  10.057  10.665 -0.1294 -0.2324  0.2398
 8539W        W24673   6.047  15.198   0.198  0.1693  0.0104  0.2234
 8540W        W24674  16.769  14.226   0.186 -0.0084 -0.1034 -0.2995
 8541W        W24675   9.696   0.995   1.786  0.3252 -0.0214 -0.4245
 8542W        W24676  15.114   8.739  11.036  0.2700  0.2504  0.1765
 8543W        W24677  16.666   3.338   4.669  0.2486  0.3029  0.0655
 8544W        W24678   8.510  12.139   4.202  0.1925 -0.0878  0.3951
 8545W        W24679  14.700  11.433  14.379 -0.2126  0.1637 -0.7516
 8546W        W24680  16.113  12.934   0.538  0.2574  0.0522  0.1880
 8547W        W24681  14.323  18.777  13.949 -0.1056  0.0984  0.0154
 8548W        W24682  10.273   0.276  13.948 -0.3679 -0.2015  0.2307
 8549W        W24683   8.176   0.723   1.536 -0.2925  0.0584  0.0910
 8550W        W24684  13.835   9.246  14.411 -0.0808 -0.0292  0.0524
 8551W        W24685   7.685   7.623   4.468  0.2177  0.1455 -0.2643
 8552W        W24686   9.470  15.392   5.407 -0.0480  0.2321  0.0354
 8553W        W24687  15.595   0.504   3.190 -0.1401 -0.0651 -0.2122
 8554W        W24688   4.053   0.747   4.226 -0.3430 -0.0656 -0.0625
 8555W        W24689   4.484   4.751  14.309  0.0225  0.1396 -0.3365
 8556W        W24690  10.922  18.907  14.758  0.0635 -0.0908 -0.1210
 8557W        W24691   1.828  15.263   5.440  0.4882 -0.2156 -0.0560
 8558W        W24692  10.679  14.584   3.720 -0.2427 -0.1849  0.1075
 8559W        W24693   7.549  17.667  12.276  0.0460 -0.3636 -0.0884
 8560W        W24694   0.950   7.327   4.390 -0.4738 -0.3265 -0.0274
 8561W        W24695  18.656  14.631  11.978 -0.1707 -0.2814 -0.1932
 8562W        W24696  18.150   3.220  12.098 -0.0655 -0.2787 -0.1295
 8563W        W24697   8.943   0.983  13.002  0.4815  0.0030 -0.1478
 8564W        W24698   2.793  12.758  11.640  0.1360  0.1899 -0.1926
 8565W        W24699  11.845   9.827  12.543 -0.1787  0.0513  0.1083
 8566W        W24700   7.585   6.611   4.449  0.0079 -0.2751 -0.1107
 8567W        W24701   7.035   1.049   2.607  0.2532  0.0020 -0.1382
 8568W        W24702   8.402  17.579   4.269 -0.0556  0.1288 -0.1470
 8569W        W24703   1.731  12.101   1.070  0.2051  0.0145 -0.2093
 8570W        W24704   1.712  17.476  13.004  0.1783  0.1618  0.1240
 8571W        W24705  14.677   8.341  12.581  0.2274  0.0232 -0.0713
 8572W        W24706   9.270   5.428   1.242  0.2592  0.2098  0.1449
 8573W        W24707  13.807  17.453  12.248 -0.1714  0.0340  0.2524
 8574W        W24708  17.153   1.608  13.855 -0.0367  0.0056 -0.2195
 8575W        W24709   8.201  17.422  12.352  0.4584 -0.0965 -0.1040
 8576W        W24710   3.688  13.637   3.533 -0.0858  0.0909  0.0117
 8577W        W24711  13.300   3.804  14.249  0.2316 -0.2572 -0.0451
 8578W        W24712  12.923   5.527   0.421  0.0846  0.2266  0.0657
 8579W        W24713  14.067  17.294   3.043 -0.0453  0.0337  0.0281
 8580W        W24714   6.487  12.083   0.015 -0.0945  0.3334  0.1350
 8581W        W24715  11.151  14.285   5.165 -0.3911 -0.0727 -0.0710
 8582W        W24716   7.513   1.488   3.246 -0.0103  0.0733  0.1759
 8583W        W24717  18.899   9.198   3.434 -0.0720  0.0455  0.1017
 8584W        W24718  10.542  16.940   2.622  0.3395  0.2536 -0.2219
 8585W        W24719   4.903  17.846   1.308  0.0250  0.2759  0.2111
 8586W        W24720   8.152  11.306  14.476 -0.0948  0.0995  0.2742
 8587W        W24721   4.776  14.249   4.958  0.1505 -0.2676 -0.1439
 8588W        W24722  17.591   4.274   5.382 -0.0313 -0.0837  0.1814
 8589W        W24723   0.548  18.336   3.016 -0.0452 -0.0757  0.2670
 8590W        W24724  11.100  17.581   4.597  0.0267 -0.2864 -0.0256
 8591W        W24725   1.417   3.369  12.125 -0.6381 -0.1168 -0.0884
 8592W        W24726   5.176   4.942   5.305 -0.2329  0.2427 -0.1539
 8593W        W24727   9.516  14.138  13.883 -0.1389  0.3778 -0.1042
 8594W        W24728  10.799  16.862   3.142 -0.0152 -0.5740 -0.1130
 8595W        W24729   6.266  14.694   4.447 -0.0505  0.0201 -0.3091
 8596W        W24730   6.271   8.022   2.692  0.4148  0.1239  0.0763
 8597W        W24731  14.398   3.007  13.828 -0.0069  0.0135 -0.0227
 8598W        W24732  18.994   4.575  13.112  0.0074 -0.2549  0.1284
 8599W        W24733   0.819   4.299  14.014  0.3114 -0.1171  0.1946
 8600W        W24734  18.001   4.918  11.378 -0.1953 -0.0574  0.1473
 8601W        W24735  10.502   2.224   1.771  0.0772 -0.0383  0.0054
 8602W        W24736   4.510  13.117  10.902  0.5278 -0.1714 -0.1292
 8603W        W24737   2.974  13.245  11.725 -0.2112  0.0708  0.0868
 8604W        W24738  13.528  12.129   5.822  0.1175  0.0079  0.2068
 8605W        W24739   5.154   5.175  14.685 -0.5078 -0.1469 -0.0393
 8606W        W24740   4.588   3.853   1.607  0.1222  0.2866  0.0311
 8607W        W24741  17.881   7.688  13.116 -0.1253 -0.0362 -0.1850
 8608W        W24742   0.454  16.751   1.126  0.1500 -0.1457 -0.1616
 8609W        W24743  11.368  12.010   3.852  0.0590 -0.0049  0.2242
 8610W        W24744   0.058   3.798  12.434  0.1403  0.1603 -0.1329
 8611W        W24745   0.420   7.574   3.215 -0.0970  0.3298  0.3825
 8612W        W24746  11.567   2.765  13.113  0.0249  0.2864 -0.2619
 8613W        W24747   9.578  13.429   1.743 -0.1141 -0.1912  0.0852
 8614W        W24748  12.502   8.493  14.122  0.2732  0.1943 -0.1201
 8615W        W24749  14.160   6.699   2.538 -0.2417 -0.1563  0.1663
 8616W        W24750  14.674   0.932   0.162 -0.1018 -0.4584 -0.1188
 8617W        W24751  11.148  13.927   2.024  0.2772 -0.1358 -0.1398
 8618W        W24752   9.605   6.760  12.011 -0.0094  0.2182 -0.0030
 8619W        W24753   8.857   1.269   0.774 -0.1840  0.0516  0.1905
 8620W        W24754  11.052   3.868   1.415 -0.2292  0.1345 -0.1654
 8621W        W24755   0.295  14.501   1.336  0.0446  0.0568  0.0646
 8622W        W24756   2.351   6.387  10.879 -0.0478  0.2728 -0.2523
 8623W        W24757  13.189  12.634  10.250 -0.0995  0.3324 -0.2461
 8624W        W24758   6.167   8.300  10.501  0.0176  0.1254 -0.0702
 8625W        W24759   8.378   1.828   3.463  0.0626  0.2015 -0.1968
 8626W        W24760  15.655   0.666  11.299 -0.0715 -0.2793  0.3125
 8627W        W24761  16.645   0.930  15.058  0.1722 -0.1389 -0.2098
 8628W        W24762   9.882  11.803   2.725 -0.3154 -0.3432 -0.3023
 8629W        W24763   9.404   7.165  12.443  0.2200  0.1234 -0.4217
 8630W        W24764   5.426  15.594   1.801  0.0399 -0.0208 -0.1161
 8631W        W24765   3.378  10.707   2.702  0.1803 -0.1494 -0.3188
 8632W        W24766  18.387   5.649   3.644  0.1749  0.3781  0.1071
 8633W        W24767  12.042   7.478   4.987  0.3137 -0.0224 -0.1200
 8634W        W24768  18.215   5.496   2.762  0.2941  0.1926 -0.0422
 8635W        W24769   8.007  18.544  10.840 -0.0133 -0.0366 -0.4396
 8636W        W24770   3.958  17.376   0.931  0.0377 -0.1572 -0.1933
 8637W        W24771   6.573  18.364   1.220  0.0171  0.4475 -0.2534
 8638W        W24772   4.526  16.316  14.474  0.0621  0.1096  0.2588
 8639W        W24773  14.651   4.183   3.437 -0.3388 -0.1088  0.1150
 8640W        W24774  16.663   6.349   1.855  0.0640  0.2198 -0.0597
 8641W        W24775   3.886  15.215  12.989  0.1766  0.0568  0.0767
 8642W        W24776  13.312  13.185  14.508 -0.0470 -0.0020 -0.3058
 8643W        W24777   9.502  12.873   5.338 -0.1792 -0.0449  0.1327
 8644W        W24778   3.741   9.169  11.768 -0.3242 -0.1043  0.4201
 8645W        W24779  15.934  10.936   0.888  0.1176  0.0214  0.1408
 8646W        W24780   4.775   0.702   2.498 -0.0213 -0.3346 -0.2222
 8647W        W24781  11.524   3.470  11.318  0.1036  0.1442 -0.0633
 8648W        W24782   6.547  12.899   2.597 -0.0233 -0.0802  0.0262
 8649W        W24783   5.042   4.333   0.091  0.0243  0.0228  0.1104
 8650W        W24784  10.047  12.336  14.069 -0.2594 -0.0569 -0.0093
 8651W        W24785  14.186  16.665  14.142  0.0215  0.0292  0.1459
 8652W        W24786  11.861   6.684  11.262 -0.4490  0.2547 -0.1742
 8653W        W24787   9.888   6.957  12.560 -0.0307 -0.0841 -0.1856
 8654W        W24788  13.222  17.108  10.683 -0.1808  0.0771 -0.1337
 8655W        W24789   5.426  10.509   2.892  0.0090  0.0073 -0.2704
 8656W        W24790  10.744   6.234  10.517  0.1831 -0.1142  0.4260
 8657W        W24791   2.100  10.157  10.803  0.1894  0.1137  0.1957
 8658W        W24792   0.543   6.776   1.674  0.1531  0.0162 -0.2167
 8659W        W24793  12.452  16.662  11.202  0.2048 -0.2021 -0.1393
 8660W        W24794  13.627   2.093   4.863 -0.1399 -0.1784  0.3108
 8661W        W24795   6.167   2.385   1.570 -0.3102 -0.2638 -0.0208
 8662W        W24796   1.295   6.020   0.541  0.2282 -0.3484 -0.1890
 8663W        W24797   5.348   7.679  13.902 -0.0485  0.0228  0.2292
 8664W        W24798   8.640  18.495   4.747 -0.1834 -0.2149 -0.2743
 8665W        W24799   6.147  18.386   4.607 -0.0158  0.1895  0.2123
 8666W        W24800   2.099   9.005  12.927  0.1611  0.0810 -0.2097
 8667W        W24801   2.577   4.428   4.399 -0.2575  0.1797 -0.2313
 8668W        W24802   3.968  16.121  12.086  0.1094  0.2022  0.1080
 8669W        W24803   2.533   3.312   1.353 -0.0365  0.2517  0.1388
 8670W        W24804  15.163  18.587  12.195 -0.0692  0.0185  0.1280
 8671W        W24805   3.587  15.187   2.688 -0.2275 -0.0482 -0.0544
 8672W        W24806  12.361   7.647   0.211 -0.0848  0.1353  0.1194
 8673W        W24807  12.265   3.870  10.001 -0.3237 -0.4757  0.0910
 8674W        W24808  16.951   3.658   9.833 -0.4533 -0.0484 -0.0098
 8675W        W24809  10.581  15.560   2.049 -0.0436 -0.2269  0.0060
 8676W        W24810  17.920   2.515   3.342  0.0949 -0.2371  0.0650
 8677W        W24811  11.359   9.880  12.339 -0.1388  0.2694 -0.1265
 8678W        W24812  13.964  15.936  12.426 -0.1489 -0.1656 -0.2335
 8679W        W24813   5.465   5.567   0.298  0.4045  0.0997  0.1939
 8680W        W24814  14.945   1.545  13.680  0.0454  0.0875 -0.1426
 8681W        W24815   5.649  18.891  13.667  0.0936  0.3123  0.1623
 8682W        W24816  15.190  16.371   2.213 -0.2214  0.1465  0.0270
 8683W        W24817   0.295   2.215   0.001  0.3700  0.1086  0.2509
 8684W        W24818  15.562   1.210  12.523  0.0680  0.2094 -0.3159
 8685W        W24819  10.008   8.931   4.818  0.0859 -0.1474  0.1872
 8686W        W24820   2.358  14.138   2.606  0.0774  0.0126  0.0311
 8687W        W24821  15.081   1.909  13.307  0.2191  0.4503 -0.2431
 8688W        W24822   3.183  10.822   0.439  0.4568 -0.1596  0.3311
 8689W        W24823   9.117   1.342   3.847 -0.4583 -0.0609  0.3105
 8690W        W24824  17.496  17.557   1.130 -0.0116 -0.1005  0.1042
 8691W        W24825   5.965   1.992  12.350 -0.0632 -0.1130  0.0212
 8692W        W24826  11.556  10.568   2.446  0.1305 -0.1448  0.0021
 8693W        W24827   8.892  10.054  11.932 -0.2046  0.3018 -0.0170
 8694W        W24828  11.889  18.650   3.979  0.1684 -0.0864  0.0197
 8695W        W24829   7.263   8.264   3.382  0.0123  0.1760  0.0923
 8696W        W24830   6.656   4.578   2.418  0.1026  0.0390 -0.2575
 8697W        W24831  14.592  12.655  12.419  0.1480  0.2364 -0.0768
 8698W        W24832   8.063   7.651   2.535  0.1567 -0.1797 -0.0020
 8699W        W24833   5.133  11.193  12.231  0.3237  0.1041  0.1361
 8700W        W24834   4.117   5.852  11.346  0.0654 -0.0735 -0.6908
 8701W        W24835  16.002   1.990  12.799  0.0823 -0.0464 -0.0370
 8702W        W24836  18.346  10.086   1.349 -0.1971  0.2028  0.0245
 8703W        W24837  15.666  11.470  12.393 -0.2132 -0.1306 -0.4652
 8704W        W24838  18.820  15.910  13.171  0.3508 -0.0836  0.0434
 8705W        W24839   1.872  11.122  13.896 -0.2163 -0.0307 -0.0075
 8706W        W24840   3.581  12.114  13.784 -0.2767  0.1785  0.1776
 8707W        W24841   6.385   9.327   5.433 -0.0077  0.0362  0.1474
 8708W        W24842   2.393   0.616   3.466 -0.1135  0.1075 -0.0408
 8709W        W24843   5.703   6.337  11.490 -0.3116  0.5380 -0.1141
 8710W        W24844  14.980  11.645   1.048 -0.2868 -0.0684  0.0594
 8711W        W24845  16.589  18.264  12.106  0.1334 -0.2145  0.0398
 8712W        W24846   6.065   3.705  10.271  0.0812 -0.0447  0.1422
 8713W        W24847  18.684  15.441   3.732 -0.0010  0.1044 -0.1953
 8714W        W24848  11.084   2.332   3.739  0.0090 -0.2653 -0.0145
 8715W        W24849  13.910   3.667   1.160  0.1473  0.0395 -0.2088
 8716W        W24850   3.832   1.016  10.937  0.1462 -0.1779 -0.0194
 8717W        W24851   7.113  15.615   5.883 -0.3216  0.3227 -0.1825
 8718W        W24852  10.405  18.905   3.884 -0.0184  0.3495  0.3271
 8719W        W24853   2.416   8.953   1.271 -0.0819 -0.1309  0.3878
 8720W        W24854   5.330   5.972  12.062 -0.2475 -0.3578  0.1500
 8721W        W24855   8.350  18.841  14.771 -0.0066  0.0742  0.3897
 8722W        W24856  15.498  11.742  12.835  0.2348 -0.1674 -0.2880
 8723W        W24857  18.751  14.837   5.372  0.0964  0.2367  0.0416
 8724W        W24858  17.844   6.294  13.861  0.2639  0.0316  0.0138
 8725W        W24859   3.123   4.383   4.251 -0.3340 -0.3819  0.0658
 8726W        W24860  11.236  13.040  10.038  0.1142  0.0916 -0.0163
 8727W        W24861   3.113  11.950  11.970  0.1258  0.0085 -0.0142
 8728W        W24862   0.157  17.645   3.655 -0.1848  0.0948 -0.0201
 8729W        W24863   9.535   5.596  13.915 -0.0803 -0.0872 -0.1985
 8730W        W24864  16.973   6.770  13.837  0.2811  0.0517 -0.3195
 8731W        W24865   8.827  10.255   3.061 -0.0361  0.0797 -0.0111
 8732W        W24866  11.491   4.125   4.321 -0.1190 -0.2052  0.6618
 8733W        W24867   0.846  18.616   2.767  0.1673  0.1373 -0.4534
 8734W        W24868   5.900  13.041   2.798  0.4017  0.4910 -0.0736
 8735W        W24869  13.880  10.852   4.376 -0.0142  0.0063  0.1974
 8736W        W24870  14.931  17.596  14.754  0.0083 -0.0016 -0.0971
 8737W        W24871  18.966  13.232   3.198 -0.1449  0.1131  0.1143
 8738W        W24872   2.019  14.884  11.891 -0.2250 -0.4112  0.4194
 8739W        W24873   5.288   7.712   9.283  0.1064  0.5198  0.2189
 8740W        W24874  16.853   6.351   5.094 -0.2749  0.1546 -0.0138
 8741W        W24875  11.950  12.282   0.937 -0.1477 -0.2756  0.0374
 8742W        W24876  18.048  16.301   0.728 -0.0002  0.1374  0.1032
 8743W        W24877   4.151   6.860  14.601 -0.1368 -0.2752  0.1672
 8744W        W24878  17.595   8.557  11.962 -0.3215  0.0987 -0.0506
 8745W        W24879  16.225   9.862   4.190  0.1928  0.0371  0.3003
 8746W        W24880  17.492   7.008   4.826  0.2074  0.2610 -0.0963
 8747W        W24881  16.240   9.124  14.167 -0.1340  0.1051 -0.0287
 8748W        W24882   3.422  13.079  14.372  0.1040 -0.3896  0.0961
 8749W        W24883   7.073   3.324   0.378  0.0523 -0.1903  0.2193
 8750W        W24884   0.461  17.630  11.389  0.0385 -0.0969  0.0413
 8751W        W24885  18.333   7.596  13.256 -0.4080  0.2168 -0.1351
 8752W        W24886  15.164   5.696  10.805 -0.2377  0.0295  0.3277
 8753W        W24887   7.134   1.722  11.327 -0.1247 -0.0036  0.2738
 8754W        W24888  19.003   7.583  13.748 -0.1108  0.0001 -0.0689
 8755W        W24889   8.154  18.185   5.468 -0.0704  0.2699  0.0598
 8756W        W24890   8.882  10.670  13.639 -0.0737 -0.0289  0.1440
 8757W        W24891   7.406   8.230   0.905  0.0343  0.1707  0.0991
 8758W        W24892  17.463   0.768  11.024  0.3349 -0.1970 -0.1069
 8759W        W24893   2.125   7.607  14.530 -0.0692 -0.3783 -0.1129
 8760W        W24894   2.612  14.165  12.852 -0.1136 -0.0559  0.1300
 8761W        W24895  12.920  10.589   3.959 -0.2184 -0.2466 -0.2450
 8762W        W24896   3.548  16.429   0.993 -0.0237  0.2718 -0.0577
 8763W        W24897   9.986   7.725  10.886 -0.1611  0.0805  0.1096
 8764W        W24898   0.088   4.533   1.505 -0.1667 -0.1568  0.2674
 8765W        W24899  10.305  12.340  11.939 -0.0634  0.0952  0.0937
 8766W        W24900   6.769  16.648   2.861 -0.1978  0.1715 -0.0485
 8767W        W24901   0.628  14.736   2.829  0.3810  0.2106 -0.0775
 8768W        W24902  13.515  12.352   1.261 -0.0965  0.2060 -0.1184
 8769W        W24903   1.355  15.203   0.990 -0.2712  0.1840 -0.1640
 8770W        W24904  16.240  10.050   3.631  0.0526 -0.0224 -0.2117
 8771W        W24905   9.505   1.211  12.887  0.1880  0.0398  0.0728
 8772W        W24906   3.617  18.554   5.364 -0.3059 -0.1211  0.1761
 8773W        W24907  12.909   3.498   3.362  0.0439  0.2772 -0.4356
 8774W        W24908   3.331  14.208  11.555 -0.0249  0.1105  0.1713
 8775W        W24909   8.841  17.680   3.985  0.2216 -0.1084 -0.0496
 8776W        W24910  13.687   7.565  10.186  0.0493  0.0865  0.0500
 8777W        W24911  10.667  16.817   0.102  0.0274 -0.1327  0.0517
 8778W        W24912   6.315  16.982  14.871  0.1808  0.0227 -0.2061
 8779W        W24913  18.910   1.810   1.132  0.3636  0.0853  0.1062
 8780W        W24914   0.119  17.549  12.336  0.1017  0.2866  0.1564
 8781W        W24915   0.195  17.676  14.402  0.2115 -0.0206 -0.2612
 8782W        W24916   4.134  17.187  13.499 -0.0949 -0.1702  0.0262
 8783W        W24917   3.101   4.154  12.515 -0.1892  0.1701 -0.0594
 8784W        W24918  17.769   2.985   3.177  0.2413 -0.0772 -0.0516
 8785W        W24919   7.131   9.991   0.079  0.1817 -0.3290 -0.0557
 8786W        W24920  12.313   6.719  11.570 -0.0229  0.3945  0.0923
 8787W        W24921  18.879   5.826   4.371 -0.3410  0.0175 -0.2913
 8788W        W24922   5.632  18.878   3.943 -0.1985  0.2318  0.0315
 8789W        W24923  11.440  11.497   0.954  0.0058 -0.3629  0.1442
 8790W        W24924   6.455   9.857  14.223 -0.0931 -0.1854 -0.0435
 8791W        W24925  11.179   7.945   1.425  0.0960 -0.0236  0.2017
 8792W        W24926   4.040  13.103   0.052  0.0708 -0.1637 -0.1236
 8793W        W24927   0.069   8.336   4.991  0.2568  0.1952 -0.0169
 8794W        W24928   9.308   0.582  14.235  0.3746 -0.0105  0.1428
 8795W        W24929  11.423   3.229  14.042  0.1849  0.3265 -0.3017
 8796W        W24930  16.392   5.862   1.711 -0.3618 -0.0373  0.0762
 8797W        W24931   5.050  14.860   4.593  0.0354  0.2838 -0.0877
 8798W        W24932   5.293  14.460   3.128  0.5103 -0.0653  0.0300
 8799W        W24933   9.787  12.558  11.295  0.2240 -0.0911 -0.1013
 8800W        W24934  15.851   0.679  13.135 -0.0961 -0.1594 -0.0814
 8801W        W24935  17.261   0.922   4.221  0.0028 -0.1102 -0.2715
 8802W        W24936   7.425  12.269   0.020 -0.0738 -0.1848 -0.3785
 8803W        W24937  12.913  16.783  11.690  0.2187 -0.2238  0.0627
 8804W        W24938  16.288   4.974   1.657 -0.0066  0.0706  0.0247
 8805W        W24939   2.679  18.391   0.136  0.0154  0.2298  0.0755
 8806W        W24940  18.000   6.590  11.337 -0.0281 -0.1863  0.2984
 8807W        W24941   1.316  10.863   0.778 -0.0421  0.0104 -0.2468
 8808W        W24942   4.727  13.582  15.096 -0.0726 -0.2371 -0.0993
 8809W        W24943   3.947  14.833   2.456  0.0636 -0.1764 -0.0527
 8810W        W24944   6.885   1.826   5.124 -0.0314 -0.2682  0.0166
 8811W        W24945  17.734  18.072   1.241  0.1490  0.2457  0.0873
 8812W        W24946  14.570  13.477  13.514 -0.0472 -0.1092 -0.3539
 8813W        W24947   2.438  12.114   1.316  0.2143 -0.0443 -0.2820
 8814W        W24948  15.466   2.233   2.635 -0.1302 -0.4599  0.2946
 8815W        W24949  13.331   6.218   0.297  0.4534 -0.0739  0.0662
 8816W        W24950   8.953  17.664   0.621  0.1155 -0.0838 -0.1439
 8817W        W24951  10.830   1.278  11.545 -0.2544 -0.1436  0.1092
 8818W        W24952   8.270   0.365  12.708 -0.0916 -0.0061 -0.0162
 8819W        W24953   8.759  11.917  14.475  0.1749 -0.0377 -0.1606
 8820W        W24954   7.165   3.673  14.314  0.1925 -0.0349  0.0051
 8821W        W24955  12.097   8.903  11.056 -0.1217  0.2571 -0.2551
 8822W        W24956   5.484  16.359  14.322  0.0293  0.2184  0.1130
 8823W        W24957  13.200  18.775   0.570  0.1089  0.4220  0.0026
 8824W        W24958   1.706   1.465   5.658  0.0812  0.1937  0.2932
 8825W        W24959   7.854  13.153  12.395  0.1317  0.1098  0.0512
 8826W        W24960   4.713  15.185   4.767 -0.0776  0.1320  0.0334
 8827W        W24961   7.378  17.845  12.716  0.1147 -0.2707 -0.0453
 8828W        W24962   4.723   2.180   0.519  0.1331 -0.2534 -0.2964
 8829W        W24963  13.206   2.362  13.389 -0.2052  0.1369 -0.0622
 8830W        W24964  16.972  16.082   0.131 -0.1091 -0.0401 -0.3002
 8831W        W24965  11.891   6.231  14.873 -0.1435 -0.1268 -0.1731
 8832W        W24966   8.445   6.962   1.329  0.1151  0.1640  0.5446
 8833W        W24967  16.893  13.908  12.196  0.0280 -0.1555 -0.1637
 8834W        W24968  13.664   3.561  13.393 -0.3981  0.1534  0.2172
 8835W        W24969  12.159   5.888  10.566 -0.0518  0.2201 -0.0832
 8836W        W24970   7.710  12.225  14.831 -0.0253 -0.1939 -0.1423
 8837W        W24971  13.568   0.670   5.127 -0.1254  0.1002 -0.1726
 8838W        W24972  13.057  13.808   1.963  0.1545  0.3174 -0.1876
 8839W        W24973   2.364   6.734   2.872 -0.1817  0.2538  0.1881
 8840W        W24974  15.660  12.822   4.270 -0.1932  0.3784  0.0436
 8841W        W24975   4.192   3.974  12.330 -0.0309  0.1669  0.0125
 8842W        W24976   1.589  12.744   3.907 -0.1901  0.0102  0.2431
 8843W        W24977  15.895  14.295   2.472 -0.0599 -0.0418 -0.0114
 8844W        W24978  17.086  13.331   4.342  0.4838 -0.0239 -0.1532
 8845W        W24979  17.240  11.644  12.429 -0.0152 -0.1167  0.0999
 8846W        W24980   5.655  13.771   5.178 -0.0790  0.0417 -0.1226
 8847W        W24981   4.262   0.854   3.766  0.2044 -0.0529 -0.2544
 8848W        W24982  13.333   9.707  12.862  0.0634 -0.0256  0.0769
 8849W        W24983  18.824  12.838  12.000 -0.0314  0.2165 -0.0937
 8850W        W24984   7.744   3.944  14.421  0.0813  0.0898  0.1366
 8851W        W24985   1.363   7.210   5.233  0.0941  0.0231  0.0884
 8852W        W24986   9.048   1.121   4.709 -0.1794  0.0385  0.0954
 8853W        W24987   3.489  15.574  14.338 -0.0804  0.1610  0.2722
 8854W        W24988  15.544  12.914   0.605 -0.3279  0.0583 -0.0488
 8855W        W24989  18.188   7.964  10.425 -0.2452  0.0489 -0.2987
 8856W        W24990   1.098  10.282   2.618 -0.0860  0.4228 -0.1123
 8857W        W24991  15.984  11.926   3.747 -0.2408 -0.0250  0.1033
 8858W        W24992   7.148   7.878  10.896 -0.3002 -0.1898  0.3791
 8859W        W24993  14.909  10.907  12.146 -0.0235  0.3915 -0.0359
 8860W        W24994  18.360  19.001  14.733 -0.1774  0.0009  0.4236
 8861W        W24995  13.435  10.700   1.990  0.1114  0.1365 -0.0197
 8862W        W24996   3.369  11.049  11.680  0.0350  0.3126 -0.0063
 8863W        W24997   9.861  14.450  10.469 -0.1264 -0.2694 -0.1638
 8864W        W24998   6.648  13.304  14.930 -0.0113  0.1708  0.2182
 8865W        W24999  16.342   9.348   4.524 -0.1174  0.0535 -0.2239
 8866W        W25000   4.700  15.878  14.149  0.2078 -0.1221 -0.1632
 8867W        W25001   4.713  12.675  13.019  0.3992 -0.4076 -0.2125
 8868W        W25002  15.078  10.953   3.332  0.0178  0.2628  0.0892
 8869W        W25003  15.129  11.551  12.542  0.0998  0.1899  0.1809
 8870W        W25004  12.217   8.185   1.051 -0.1805  0.2193 -0.1109
 8871W        W25005  13.549  14.698   1.277  0.0274 -0.2937 -0.0837
 8872W        W25006  11.095   3.707   5.220 -0.3798  0.0267 -0.0943
 8873W        W25007  18.897   5.013   1.643  0.0986  0.0728  0.0969
 8874W        W25008   0.573   9.486   0.080  0.1240  0.0778  0.0950
 8875W        W25009  10.848   8.878  11.666 -0.1377  0.1250  0.4044
 8876W        W25010   5.935   0.526   0.618 -0.1197 -0.0244 -0.0436
 8877W        W25011  18.750  12.234   0.940  0.3272 -0.1558 -0.0391
 8878W        W25012  14.602   0.529  10.946  0.3365 -0.2085 -0.0609
 8879W        W25013   1.704  18.247   9.608 -0.0280 -0.0301  0.1799
 8880W        W25014  13.941  16.440   3.620  0.4465  0.2497 -0.2227
 8881W        W25015   6.718  16.992  11.474  0.1993 -0.1806 -0.0071
 8882W        W25016  14.109  16.076  10.993 -0.1983 -0.2722 -0.3921
 8883W        W25017  13.320  14.692  11.328  0.0850 -0.0853  0.0977
 8884W        W25018   7.866   7.398   0.476  0.0972 -0.1795 -0.2909
 8885W        W25019   5.069  11.873   2.251 -0.3873 -0.1106  0.0505
 8886W        W25020  17.322   2.824  14.240 -0.0930 -0.1310  0.0030
 8887W        W25021   6.029   9.724  13.868 -0.0846 -0.0397 -0.0307
 8888W        W25022   9.002  17.443   0.165  0.3923 -0.1777  0.0511
 8889W        W25023  15.458  15.335  13.589  0.0272 -0.1073  0.3642
 8890W        W25024   6.803  10.004   0.612  0.0989 -0.1525 -0.0040
 8891W        W25025  11.852  18.911  12.480 -0.0256  0.0420  0.1244
 8892W        W25026  13.782   8.631  15.218  0.0425  0.1333  0.0261
 8893W        W25027  18.902  18.179  10.987  0.0677 -0.1519 -0.5667
 8894W        W25028   8.088  18.255  11.230  0.2632  0.4145 -0.1846
 8895W        W25029  17.671  14.318   2.694 -0.0695  0.0516 -0.1452
 8896W        W25030  12.421  10.895   0.928 -0.2693  0.0385  0.1615
 8897W        W25031   0.044  18.108  10.499 -0.2754 -0.2294  0.0279
 8898W        W25032  11.279   3.723  14.196 -0.1110 -0.0022  0.3208
 8899W        W25033   8.938  12.267   1.663 -0.1409  0.1361  0.0120
 8900W        W25034   7.920  13.703   1.084 -0.1942 -0.0551  0.0276
 8901W        W25035   1.328  11.471   2.627 -0.2333  0.0613  0.3211
 8902W        W25036   2.873  16.933   0.292  0.0996 -0.0473  0.3270
 8903W        W25037   5.195   7.857  12.821  0.1975  0.0624 -0.0161
 8904W        W25038   3.823  17.469   2.772 -0.0786 -0.2834 -0.0006
 8905W        W25039  11.586  13.935  11.496  0.0241  0.3481 -0.0801
 8906W        W25040   6.776   3.211   2.072 -0.3690 -0.2053  0.1521
 8907W        W25041  16.821   3.610  15.265  0.4260  0.0330  0.1671
 8908W        W25042   0.907  10.043   0.454 -0.2606  0.2745 -0.1621
 8909W        W25043  10.070  12.788  11.833  0.0359 -0.0705 -0.4228
 8910W        W25044   5.362  18.851  13.183 -0.1115  0.1406  0.1297
 8911W        W25045  13.602   4.866  10.814 -0.0420  0.1293  0.1492
 8912W        W25046   9.859   9.564  14.145  0.3662 -0.0103  0.0524
 8913W        W25047  10.239   4.493   9.931  0.0190 -0.0930  0.1754
 8914W        W25048   6.860  11.820  13.347  0.1089 -0.0292  0.3569
 8915W        W25049  18.750   7.143  14.714 -0.2793  0.0498  0.0483
 8916W        W25050   3.736   4.627  11.394  0.2845  0.0968 -0.2103
 8917W        W25051   2.147   2.612  14.211 -0.4042  0.0805  0.1462
 8918W        W25052   6.745   6.192  14.768  0.0409  0.3758  0.1809
 8919W        W25053  13.137   9.139   3.262  0.0800  0.2162 -0.0537
 8920W        W25054  17.160  11.493   0.970 -0.1197  0.2981 -0.1361
 8921W        W25055   4.756  10.881  12.338 -0.4524  0.4389  0.2346
 8922W        W25056   9.600   3.812   0.446  0.3221 -0.1808  0.1376
 8923W        W25057  15.208  10.976  10.897  0.2333  0.2389 -0.0425
 8924W        W25058  16.599   4.281   1.943 -0.0696 -0.2802 -0.0823
 8925W        W25059   6.698  17.469  11.504 -0.0837  0.1525  0.0375
 8926W        W25060   4.395  14.060  10.953  0.1327 -0.1179 -0.0105
 8927W        W25061   8.167   0.310   2.134 -0.0964 -0.0055  0.0360
 8928W        W25062  18.303   0.729  13.922  0.0338  0.2024 -0.1407
 8929W        W25063  18.979   1.425   4.920  0.1531 -0.0248  0.0341
 8930W        W25064   1.554   5.702  10.824  0.2252 -0.0137 -0.2842
 8931W        W25065  17.540   6.757   1.882 -0.4096  0.1390 -0.1689
 8932W        W25066   2.994   2.384  11.940 -0.1545 -0.0029 -0.2608
 8933W        W25067   3.361  15.902   2.143 -0.2820 -0.1312 -0.1256
 8934W        W25068   3.154   2.641  11.077  0.4631 -0.0746  0.2737
 8935W        W25069  15.197   4.412  12.762  0.2669  0.2329  0.0532
 8936W        W25070  16.306  11.217   9.715 -0.2122  0.1382 -0.1910
 8937W        W25071   4.950   3.612  12.671  0.2014  0.3230  0.2501
 8938W        W25072  16.521   7.550  12.553 -0.0761 -0.2871 -0.3065
 8939W        W25073   1.263   9.507   0.579  0.1747 -0.0722  0.1256
 8940W        W25074  11.217  16.561  11.739 -0.1753  0.0901 -0.0707
 8941W        W25075  11.580  12.450   0.430 -0.0399  0.0466 -0.1443
 8942W        W25076   4.699  13.419  11.735  0.0090  0.0258 -0.0336
 8943W        W25077  16.847   5.907  14.436  0.2344  0.0141  0.1491
 8944W        W25078   2.564  11.170   1.747 -0.2605 -0.2217  0.1550
 8945W        W25079   5.229  18.510   4.642 -0.0148 -0.0928  0.0982
 8946W        W25080  10.170  13.814  11.747  0.1437 -0.1529 -0.0524
 8947W        W25081   2.040   3.278  12.104 -0.2745 -0.1879 -0.0013
 8948W        W25082   2.590   4.345  12.165  0.0245 -0.1280  0.0999
 8949W        W25083   9.964  13.565  13.379  0.0401  0.3415  0.1948
 8950W        W25084   2.264  10.703  10.847  0.3513  0.2876 -0.0286
 8951W        W25085   4.254   1.259   1.920 -0.1036  0.2378  0.0369
 8952W        W25086  15.938   3.076   3.551  0.1787  0.0994 -0.0316
 8953W        W25087  14.711   9.373   2.574  0.0868  0.2350 -0.5142
 8954W        W25088  15.212  12.929  13.392 -0.1762  0.0362 -0.0159
 8955W        W25089  18.931   4.888   0.181  0.3398  0.3582 -0.0922
 8956W        W25090  10.931  18.793  12.884 -0.0468 -0.0150  0.3502
 8957W        W25091   6.331   5.393  13.327 -0.1059  0.0591  0.2399
 8958W        W25092  10.405  17.968   0.949  0.3821  0.0373  0.0460
 8959W        W25093   0.036  14.013   5.258  0.4835 -0.1476 -0.0620
 8960W        W25094   5.305   8.539  13.599 -0.1719  0.3978 -0.1305
 8961W        W25095   2.030  14.409   1.916  0.1733  0.2418 -0.1935
 8962W        W25096   1.557  12.914   3.468  0.0984  0.0742  0.1319
 8963W        W25097   1.583   9.244   3.414  0.1705  0.1251 -0.4612
 8964W        W25098  14.834   0.753   5.519  0.1409 -0.3844 -0.2291
 8965W        W25099   8.867  13.324  12.066  0.3598  0.2615  0.1607
 8966W        W25100   3.708  11.568   2.059 -0.2123 -0.1408 -0.0315
 8967W        W25101  10.394  13.368   5.090 -0.2983  0.2217  0.2685
 8968W        W25102   4.423  14.981   0.175 -0.0708  0.1975 -0.0956
 8969W        W25103  15.813   1.468   6.083  0.1076  0.0990  0.2100
 8970W        W25104  11.967  11.439   1.889  0.0541  0.0334 -0.3747
 8971W        W25105  10.200   5.701   1.572  0.0018  0.0562 -0.0676
 8972W        W25106  18.792   3.479  13.850 -0.1524 -0.1808 -0.3553
 8973W        W25107  10.319  14.937   5.030 -0.0370 -0.1560  0.2110
 8974W        W25108   5.836  12.799  14.254  0.0445  0.1561 -0.4802
 8975W        W25109  17.401  14.069   0.851 -0.1791 -0.0314  0.0166
 8976W        W25110   1.070   9.085  11.159  0.1622  0.2487 -0.3086
 8977W        W25111  15.386   2.142  11.726  0.0269  0.2167 -0.2162
 8978W        W25112  14.395   6.899   4.050  0.0382 -0.0143  0.0670
 8979W        W25113   7.405   4.045  10.654 -0.0357  0.0387 -0.2489
 8980W        W25114   2.511   7.024   4.457  0.2428  0.0602 -0.1352
 8981W        W25115   5.705   2.719   2.770  0.0565 -0.1774  0.0124
 8982W        W25116  16.551   8.937  12.566  0.3003 -0.1508  0.2304
 8983W        W25117  11.482  15.349  14.711  0.2025  0.0071  0.2897
 8984W        W25118  10.865   8.815   4.697 -0.2552 -0.1721  0.3390
 8985W        W25119   8.641  17.072  13.244 -0.4843 -0.0554 -0.2649
 8986W        W25120   9.624   3.926  14.149 -0.0608 -0.1835  0.1723
 8987W        W25121   5.003  14.629   2.718 -0.1319  0.0669  0.0396
 8988W        W25122   5.932   5.152   1.925  0.0783 -0.1093 -0.2194
 8989W        W25123   8.899  18.245  15.260  0.1504  0.1075 -0.0335
 8990W        W25124  18.669   0.210  13.395  0.2837 -0.1066  0.0432
 8991W        W25125  15.167  16.678  11.167  0.2077 -0.0566  0.1675
 8992W        W25126   0.536   5.872   1.650  0.3140  0.0624 -0.1151
 8993W        W25127   5.681  18.495   3.047  0.0964 -0.1222  0.0234
 8994W        W25128  10.199  17.573   4.779  0.0680  0.3296 -0.2676
 8995W        W25129  10.052   6.027   3.594  0.1097  0.0081 -0.2120
 8996W        W25130   9.035  10.624  12.482  0.2440 -0.2640 -0.1143
 8997W        W25131   0.844   0.941  11.999  0.0431  0.2527  0.2678
 8998W        W25132   4.505   9.918   1.231 -0.1548 -0.0776 -0.3386
 8999W        W25133  11.278   5.430   2.054 -0.0059 -0.1745  0.2708
 9000W        W25134   3.527  13.874  14.022 -0.0411 -0.1791  0.0261
 9001W        W25135  16.924  12.533   2.234 -0.2562 -0.0196  0.2987
 9002W        W25136  14.004  15.771   2.392 -0.2762  0.0599 -0.3445
 9003W        W25137  18.099   9.032   3.161 -0.1097  0.1094 -0.3655
 9004W        W25138   8.309   7.527  14.517  0.0533 -0.4410 -0.0317
 9005W        W25139  10.550   7.311   1.288  0.0072 -0.1300  0.5049
 9006W        W25140  13.672   0.673   1.691 -0.1948  0.0514 -0.0506
 9007W        W25141  17.664   7.693   0.282  0.1796  0.4127 -0.1978
 9008W        W25142   0.357   7.773   0.208 -0.0135  0.2291 -0.0524
 9009W        W25143  13.814  17.657   0.786  0.1279 -0.3881 -0.0346
 9010W        W25144   7.509   9.455  12.144 -0.2554  0.0039 -0.0875
 9011W        W25145  18.153   0.918   3.196 -0.0266 -0.0597 -0.0691
 9012W        W25146  17.853   3.684   2.962  0.1498  0.1513  0.0010
 9013W        W25147  15.234  11.401  14.089  0.0897  0.2146 -0.3415
 9014W        W25148   9.323  18.923  11.235 -0.0044  0.1974  0.0932
 9015W        W25149  13.810   9.544   5.014  0.4171 -0.1125 -0.2015
 9016W        W25150   1.947   9.077   5.464 -0.0402 -0.0269 -0.1186
 9017W        W25151  13.358   1.847  12.180 -0.2291 -0.0666 -0.2674
 9018W        W25152   8.580  15.630   2.560  0.3491  0.2434  0.0153
 9019W        W25153   7.669  11.873   3.424  0.1612  0.1356  0.1662
 9020W        W25154  13.846  11.305  12.373 -0.0436 -0.1503  0.0781
 9021W        W25155   7.289   0.513   2.605  0.3286 -0.1228  0.0559
 9022W        W25156  14.725  15.655  13.590  0.2047 -0.4736  0.0538
 9023W        W25157  17.193  16.481  15.171 -0.1200 -0.1220  0.1304
 9024W        W25158   7.963  16.075   2.059  0.0861 -0.0508  0.1091
 9025W        W25159  15.291   4.763   2.889  0.1070  0.2547  0.2199
 9026W        W25160   9.899  13.237   2.074 -0.1427  0.2300 -0.2270
 9027W        W25161  12.697  17.812  10.089  0.1902  0.0456  0.2835
 9028W        W25162  17.398  11.894  14.180 -0.2541  0.1768 -0.0847
 9029W        W25163  16.386   4.206   1.520 -0.0226  0.2757  0.3300
 9030W        W25164   8.861   0.032  11.540  0.0785  0.0978 -0.1530
 9031W        W25165  10.949  10.667  12.917  0.0514  0.1605  0.1172
 9032W        W25166  12.274   7.312   1.966  0.1290  0.1128 -0.0482
 9033W        W25167  10.698  13.476   0.924  0.1494  0.0020  0.3183
 9034W        W25168   1.300   0.972   0.239 -0.2093  0.0598  0.0289
 9035W        W25169  14.987  12.393  12.727 -0.0392 -0.0492 -0.2434
 9036W        W25170  16.815  16.113   5.474  0.0857 -0.0512 -0.1309
 9037W        W25171   2.500  15.675   0.415  0.1884  0.1324 -0.0287
 9038W        W25172   7.939  10.937  11.209  0.1073  0.2318 -0.0046
 9039W        W25173  18.620   9.262  12.530 -0.1982 -0.1258 -0.1722
 9040W        W25174   9.584   0.724  13.033  0.3142  0.1384 -0.2349
 9041W        W25175   7.747  16.117  10.063 -0.1232 -0.1681  0.1483
 9042W        W25176   1.486   2.832   3.026  0.0744  0.1193  0.0563
 9043W        W25177   3.535   2.872  14.221  0.0104 -0.1727  0.1446
 9044W        W25178   8.311  18.775   2.603 -0.2435  0.3707 -0.0924
 9045W        W25179  18.937   6.305   0.117  0.0694 -0.0265 -0.0837
 9046W        W25180   4.279   0.680  14.403  0.1718 -0.0160  0.1173
 9047W        W25181  18.749  18.983  14.130  0.1363  0.0996  0.0958
 9048W        W25182   2.912  13.513   3.121 -0.1198 -0.0795 -0.1778
 9049W        W25183   4.866   6.743  13.684  0.1471 -0.1849 -0.1536
 9050W        W25184   7.076  18.637   2.605  0.2430  0.1001 -0.3052
 9051W        W25185   1.729  18.913  12.428 -0.2077  0.1009  0.0966
 9052W        W25186  14.047   1.905   2.648  0.1924 -0.2272  0.2087
 9053W        W25187   2.080   5.802   3.011 -0.0113 -0.2413  0.0166
 9054W        W25188   3.607  14.142   3.177  0.1373  0.0030 -0.2843
 9055W        W25189  13.570  15.399  14.204  0.0649 -0.0922 -0.1045
 9056W        W25190  11.418  14.972   2.334 -0.1412  0.2496  0.1825
 9057W        W25191  14.371   8.132  13.639 -0.1725  0.0443 -0.1773
 9058W        W25192  14.231   1.861   3.098 -0.1804  0.0769 -0.0912
 9059W        W25193   0.302   5.912  15.166 -0.0274  0.0805  0.2055
 9060W        W25194   4.693  18.950  13.991  0.0661  0.4636  0.2173
 9061W        W25195   5.519   2.619  12.886  0.1726 -0.2977  0.2223
 9062W        W25196  12.360   3.476  15.160  0.1639 -0.1709  0.0134
 9063W        W25197   0.836  13.774   5.535  0.1006  0.1963 -0.2507
 9064W        W25198   0.498   1.569  10.888 -0.0211  0.0446 -0.0498
 9065W        W25199   6.855   0.575  10.822  0.0551  0.1492 -0.0452
 9066W        W25200   9.851   3.008  14.292 -0.0244  0.1133  0.0884
 9067W        W25201   7.158   0.284  13.193  0.0737  0.0449  0.1203
 9068W        W25202  11.287  14.538   0.023 -0.0651 -0.1213  0.0150
 9069W        W25203   3.431  18.129   4.500 -0.1582 -0.0435 -0.0698
 9070W        W25204   9.464  12.142  11.511  0.1840  0.0426 -0.2278
 9071W        W25205   4.556   7.148   0.212  0.0681 -0.0840 -0.0692
 9072W        W25206   5.960  14.393   3.529  0.1210  0.0450  0.1935
 9073W        W25207   2.044   8.610   1.220  0.0494  0.2492 -0.2228
 9074W        W25208   3.646  11.219   1.318 -0.3434 -0.0921 -0.0539
 9075W        W25209  16.221   8.159   3.973 -0.3944  0.1793 -0.0626
 9076W        W25210   6.247  13.134   1.804  0.0117 -0.1140  0.2739
 9077W        W25211  18.248   1.278   0.804 -0.0513 -0.1162 -0.1295
 9078W        W25212  14.178   7.800  14.054  0.0294  0.0927  0.1704
 9079W        W25213   0.896   5.396  14.713  0.1416  0.3823  0.2762
 9080W        W25214  17.515  18.273  10.855  0.1915 -0.0094 -0.1568
 9081W        W25215  11.239  18.891   4.110  0.1277  0.1210 -0.1108
 9082W        W25216   9.933  11.877  14.280  0.0697  0.4079  0.0669
 9083W        W25217   2.426  14.291   1.150  0.0483 -0.1143 -0.3452
 9084W        W25218  17.517   4.822  11.560  0.1371  0.0741 -0.0891
 9085W        W25219  11.947   4.416  11.340  0.1546  0.0057  0.0917
 9086W        W25220   6.909   9.603   1.828  0.2412  0.0207  0.0309
 9087W        W25221   2.216  10.858   0.795 -0.2531  0.0141  0.0077
 9088W        W25222   0.918  14.054  13.323  0.0221 -0.0029 -0.1767
 9089W        W25223   5.259   5.883   2.429 -0.2741  0.1913 -0.0660
 9090W        W25224   9.892  14.552  13.820 -0.0094  0.0043  0.2349
 9091W        W25225   7.229  16.950   5.164 -0.0726  0.0119 -0.1024
 9092W        W25226   9.352   8.913  10.280 -0.0882 -0.1155 -0.1015
 9093W        W25227   2.850  18.389   2.159 -0.2700 -0.0349  0.3320
 9094W        W25228   4.613  17.389  11.755  0.0664 -0.0486  0.3722
 9095W        W25229  12.667   6.820  10.672 -0.3413 -0.0464 -0.2454
 9096W        W25230   2.951   9.116   0.463 -0.0283 -0.1782  0.0347
 9097W        W25231   9.182   7.687   0.899  0.1407 -0.1634 -0.2322
 9098W        W25232  15.787  10.680  12.762 -0.2186 -0.2273 -0.4636
 9099W        W25233  13.856   8.886   2.091  0.2753  0.3058  0.0138
 9100W        W25234   0.305   5.741   5.652 -0.3090 -0.3268 -0.0395
 9101W        W25235   6.636   1.745  10.612 -0.1023 -0.1787  0.0920
 9102W        W25236  10.278   8.555   3.711  0.0301 -0.1945 -0.0454
 9103W        W25237   3.447   2.580  14.746 -0.0744  0.0959 -0.2368
 9104W        W25238   0.227  16.486  12.430  0.1125 -0.4022 -0.3405
 9105W        W25239  10.400   3.767   2.672  0.1450 -0.1457 -0.0932
 9106W        W25240   1.718   8.576  12.700  0.2909 -0.1672 -0.2588
 9107W        W25241  17.086  16.373   1.781 -0.3009 -0.0393  0.0772
 9108W        W25242  11.530   1.560   3.288  0.2225  0.1152  0.1443
 9109W        W25243   9.405   0.759   2.186 -0.0963  0.2148 -0.2114
 9110W        W25244  11.712   1.288   5.112 -0.1538  0.1215 -0.0142
 9111W        W25245   4.372  13.583  13.713 -0.0782  0.0522  0.4030
 9112W        W25246  15.439  17.831  11.983 -0.0287  0.2032 -0.1288
 9113W        W25247  17.132  15.954   0.555 -0.1778 -0.0711  0.1451
 9114W        W25248   1.494  11.282  12.995  0.0002  0.0223 -0.2418
 9115W        W25249   6.784  11.943  10.196  0.1278  0.2088  0.3261
 9116W        W25250   4.189  18.200  11.811  0.0751  0.0969  0.1617
 9117W        W25251  10.934  14.996  13.837  0.3196  0.2371 -0.0196
 9118W        W25252   3.234   8.689   4.745 -0.0821 -0.0505  0.0208
 9119W        W25253   5.839   7.651  14.087  0.0143 -0.1677 -0.0520
 9120W        W25254   0.440  18.460  12.656  0.1004  0.0512  0.0950
 9121W        W25255   9.194  10.595   0.473 -0.0851 -0.2302  0.0106
 9122W        W25256  10.497  13.803   9.821  0.0381 -0.0857 -0.1432
 9123W        W25257  14.297  11.755  11.389  0.1002 -0.1406 -0.2980
 9124W        W25258   9.728   5.350  13.254 -0.0572 -0.1761 -0.1544
 9125W        W25259  10.086   5.448  10.054  0.0857 -0.0157 -0.0801
 9126W        W25260  17.719   6.974   1.486 -0.2397  0.4474  0.0457
 9127W        W25261  12.764   9.570  15.288 -0.1737  0.0683 -0.1679
 9128W        W25262   0.011  15.197  14.790 -0.1038  0.1234 -0.2209
 9129W        W25263  12.598   4.020  15.122  0.1805 -0.0520  0.0848
 9130W        W25264   0.742  16.000   6.104  0.2780 -0.2619 -0.3485
 9131W        W25265   9.488   6.171  13.732 -0.0726  0.3117  0.0371
 9132W        W25266  11.953   5.570  15.111  0.4396  0.0397 -0.0301
 9133W        W25267   3.019   6.595   3.621  0.1393 -0.3447  0.2106
 9134W        W25268  11.300  17.398   0.206 -0.1822 -0.3562  0.2089
 9135W        W25269  16.023   8.000  13.295  0.1321  0.2303  0.1355
 9136W        W25270  14.554   4.616  12.458 -0.3268 -0.4422 -0.1568
 9137W        W25271  13.711   7.738   0.057 -0.2476  0.3706 -0.1503
 9138W        W25272  12.533   5.653  14.599  0.0034  0.3197 -0.1563
 9139W        W25273  18.861  11.835  13.057 -0.1923  0.1336  0.0672
 9140W        W25274  11.023  11.601  11.563 -0.3402 -0.4448 -0.0263
 9141W        W25275   2.665   3.659   0.978  0.1969 -0.3639 -0.2804
 9142W        W25276  13.351   9.869  13.352  0.1516 -0.1300 -0.1480
 9143W        W25277   2.853   9.891   2.550 -0.0491 -0.0983 -0.3568
 9144W        W25278   6.248   9.350   3.163 -0.0873  0.0809  0.2213
 9145W        W25279  17.507  12.778   5.617  0.0093 -0.1036 -0.0882
 9146W        W25280  11.784   9.777  13.253  0.0258  0.2893 -0.3150
 9147W        W25281  17.558   1.085  13.332  0.1360 -0.0074  0.0617
 9148W        W25282  14.652   3.388  12.024 -0.0281  0.1379 -0.0605
 9149W        W25283  12.990  11.691   9.778 -0.0652  0.0479 -0.2224
 9150W        W25284   9.725   1.095   0.981 -0.2420  0.3887 -0.3341
 9151W        W25285  12.130   6.398   1.811 -0.1984  0.0370 -0.2593
 9152W        W25286   3.714  12.426  10.835 -0.0002  0.1056  0.2202
 9153W        W25287   3.256  17.290   3.479 -0.1050 -0.2270  0.0162
 9154W        W25288  18.309  16.692   5.282 -0.0523  0.2244  0.0335
 9155W        W25289  15.771   2.992  14.417 -0.4725  0.0550 -0.1501
 9156W        W25290  15.488   9.570   1.859 -0.0939  0.0747  0.1058
 9157W        W25291   9.403  15.714   3.658  0.1960  0.0772 -0.2227
 9158W        W25292   2.500  10.380   5.097  0.0363 -0.2872  0.1912
 9159W        W25293   3.358   1.114   2.503 -0.0041  0.1804 -0.2900
 9160W        W25294  12.107   3.503  14.706  0.2785  0.0577  0.3749
 9161W        W25295  15.740   1.623  13.220  0.0794 -0.2256 -0.0960
 9162W        W25296   7.548   0.933   1.573 -0.0598  0.0313  0.1570
 9163W        W25297  16.774   7.958   9.598  0.4235  0.2479  0.1199
 9164W        W25298  13.655  14.693   3.826  0.0262  0.0151  0.1098
 9165W        W25299  15.273   4.730   3.414 -0.0459 -0.0631  0.3510
 9166W        W25300   6.977   8.889  10.629 -0.2882 -0.0814 -0.0062
 9167W        W25301   7.198  14.056  14.439 -0.0349 -0.0879 -0.1605
 9168W        W25302  11.372  17.232  13.325 -0.2691  0.2000  0.1694
 9169W        W25303  11.193   6.453   4.351 -0.1451 -0.3869 -0.0072
 9170W        W25304  13.337   6.920  11.003  0.2182  0.0411  0.1644
 9171W        W25305  11.029   4.889   3.163  0.5450  0.1240 -0.5747
 9172W        W25306  15.024   8.384  12.236  0.0009 -0.2436 -0.0945
 9173W        W25307   5.289  12.724  13.111 -0.0951 -0.1624  0.2770
 9174W        W25308   4.283  15.890  10.556 -0.1234  0.1133 -0.0402
 9175W        W25309   5.259   7.974   0.795 -0.1567 -0.0845 -0.2324
 9176W        W25310  17.345   3.554  11.680 -0.3494 -0.0502 -0.2354
 9177W        W25311  11.201   3.226  13.061 -0.2819  0.0296 -0.0060
 9178W        W25312  14.516  12.034   0.442 -0.0067  0.1291 -0.0841
 9179W        W25313   5.801  17.395  12.841 -0.1079  0.0776 -0.1597
 9180W        W25314  18.831  17.991  12.889 -0.1466 -0.3578  0.0603
 9181W        W25315  12.311  17.429  12.129 -0.1135  0.0762 -0.0957
 9182W        W25316  12.325   9.668  15.021 -0.0772  0.0878 -0.0284
 9183W        W25317  18.532  18.996  11.602  0.0532 -0.1933  0.3264
 9184W        W25318  17.106  14.680  12.213 -0.0983 -0.3208  0.2321
 9185W        W25319   2.145   4.626  13.397  0.1875 -0.0774  0.0854
 9186W        W25320  10.703   1.534   3.021  0.3321  0.2655  0.5055
 9187W        W25321  14.228  11.960   1.638  0.0179 -0.1740 -0.1647
 9188W        W25322   0.008   2.937  10.950 -0.0074  0.1375 -0.1047
 9189W        W25323   0.597   3.128   4.081  0.0667 -0.0223 -0.2325
 9190W        W25324  10.102   9.173  12.904 -0.1695  0.0776  0.0813
 9191W        W25325   3.870  11.167  12.820  0.1867  0.0029  0.1106
 9192W        W25326   7.345  11.789  13.523  0.2523 -0.1004 -0.1970
 9193W        W25327   2.164   0.807   0.818  0.3190  0.1548  0.1691
 9194W        W25328  18.686   3.359   1.401 -0.0436  0.1558 -0.0363
 9195W        W25329   1.207   9.253  14.503  0.3285  0.0641  0.0387
 9196W        W25330  12.544  15.847  12.549  0.0915  0.1539 -0.1609
 9197W        W25331  16.243  14.985  12.554  0.0906  0.2334  0.0209
 9198W        W25332  16.701   5.635   3.069  0.1051  0.0651 -0.1668
 9199W        W25333  11.599  11.194   5.820 -0.3255  0.1051 -0.3174
 9200W        W25334  15.415   2.003   1.265  0.1762  0.2320  0.3921
 9201W        W25335   2.228   0.113   1.633  0.0635 -0.0761 -0.1196
 9202W        W25336   5.409   2.615   0.457 -0.4108  0.3183  0.1061
 9203W        W25337   8.145  10.763   2.022 -0.1272  0.0464  0.1154
 9204W        W25338  18.960   7.225  12.384  0.0480 -0.1325 -0.2319
 9205W        W25339   9.458  12.201  13.010  0.1388  0.0012 -0.1945
 9206W        W25340  17.950  16.080  13.941  0.0183  0.3215 -0.0759
 9207W        W25341  12.015  12.471  13.661 -0.0288  0.0928 -0.3305
 9208W        W25342  12.633  13.162   4.618  0.0032  0.2045 -0.2556
 9209W        W25343   9.143  11.741  13.319 -0.3068 -0.1269 -0.1223
 9210W        W25344   9.618   1.968   3.520  0.1340 -0.0157 -0.2275
 9211W        W25345   5.881  10.316  13.309  0.2546  0.0481  0.2065
 9212W        W25346   9.232   7.543   3.146 -0.0643  0.2713  0.2357
 9213W        W25347   9.652   1.792   2.176 -0.0867  0.2462  0.2160
 9214W        W25348   5.976   1.143  12.363 -0.0305 -0.0458 -0.3490
 9215W        W25349   6.261   6.990   0.819  0.0432  0.0786 -0.0478
 9216W        W25350   5.741  16.907  11.134 -0.0670  0.1312  0.0990
 9217W        W25351  14.954   7.015   4.962 -0.2152  0.4209 -0.2777
 9218W        W25352  18.189   2.398  11.756 -0.3156  0.0800  0.0851
 9219W        W25353   9.849  11.497   5.547  0.3456  0.2675  0.0134
 9220W        W25354   4.088  11.068   1.478  0.0642 -0.1571  0.0815
 9221W        W25355  10.378  13.502  11.348 -0.2588 -0.0291 -0.2851
 9222W        W25356   9.604   0.941   0.190  0.3622 -0.4673 -0.2021
 9223W        W25357  12.042   7.128   9.739  0.0095  0.2928 -0.0551
 9224W        W25358  18.242  12.206   2.956  0.1530  0.1390 -0.0132
 9225W        W25359  11.215   3.777  13.304 -0.2267  0.0810  0.1619
 9226W        W25360  18.061   2.595   3.862 -0.0367  0.1849 -0.1385
 9227W        W25361  13.206   1.932   3.614  0.2568  0.0264 -0.1514
 9228W        W25362   5.262  11.138  14.119  0.4836  0.0071 -0.2667
 9229W        W25363   4.837  13.391   0.277  0.3085  0.0964  0.0470
 9230W        W25364   8.299  15.232   0.146  0.1494 -0.0580 -0.0144
 9231W        W25365  12.099   4.537   3.892 -0.1303 -0.0476 -0.0537
 9232W        W25366   1.146  16.061   2.232  0.0317 -0.0994  0.1459
 9233W        W25367  14.783   9.173  13.107  0.1102  0.0392 -0.0360
 9234W        W25368   8.938  12.020  10.814 -0.0470 -0.0476 -0.0449
 9235W        W25369  16.224  12.055  10.518  0.2463  0.1148 -0.0614
 9236W        W25370  11.989  16.875  12.607  0.2558  0.1838  0.1550
 9237W        W25371   9.910   1.540   0.852  0.2399 -0.0240  0.4004
 9238W        W25372   9.494   0.137   1.361 -0.1602  0.1890 -0.1675
 9239W        W25373  15.771   0.879  13.990 -0.1320  0.0156  0.2136
 9240W        W25374   3.208  14.414   3.265  0.0219  0.1319  0.0471
 9241W        W25375  18.520  13.375  11.855 -0.0269  0.0853  0.2498
 9242W        W25376  11.606  13.044  11.809  0.0530  0.0763 -0.0892
 9243W        W25377   3.642  13.425   1.540  0.2266  0.0987  0.1990
 9244W        W25378   9.669  11.327   0.783  0.0239  0.3117 -0.2802
 9245W        W25379   2.537  10.801   3.737 -0.0538  0.2018 -0.0086
 9246W        W25380   5.872  14.490   2.536 -0.0060  0.0872  0.2501
 9247W        W25381  11.261   1.673   5.278 -0.0171  0.0903  0.0155
 9248W        W25382  15.447  18.819  10.068  0.0933  0.0403  0.1485
 9249W        W25383   1.267   6.021   4.555 -0.3409 -0.4762 -0.2621
 9250W        W25384  14.689  16.560   0.887  0.1869 -0.1704 -0.0410
 9251W        W25385   0.735   6.138   4.513  0.1738 -0.2822  0.0699
 9252W        W25386  14.737  14.953  12.568 -0.6349  0.0151 -0.2451
 9253W        W25387  12.248   2.007  10.135  0.0288 -0.2016  0.3332
 9254W        W25388   1.858  16.042   4.748  0.1425  0.1594  0.0032
 9255W        W25389   8.628  11.460  13.626  0.1625  0.0069 -0.0119
 9256W        W25390  13.834  17.475  11.441 -0.1246 -0.1838  0.0879
 9257W        W25391   8.674   3.897  14.520 -0.0063  0.2000 -0.0665
 9258W        W25392   3.920   7.680  13.585 -0.2438 -0.1381 -0.2470
 9259W        W25393   0.854  18.675  13.382 -0.0560 -0.0718  0.1591
 9260W        W25394   9.576  11.709  15.187  0.0800 -0.1310  0.2349
 9261W        W25395  13.582  15.889  14.210 -0.2678  0.0299  0.1951
 9262W        W25396  13.688  18.544   3.746  0.1107  0.0380  0.1459
 9263W        W25397  12.734  17.393  13.186 -0.1755  0.0767 -0.0013
 9264W        W25398   8.611   5.117   9.780  0.0363 -0.0680 -0.1028
 9265W        W25399   8.065   2.089  10.118 -0.2314  0.1194 -0.1677
 9266W        W25400   7.727  11.765  13.931  0.1847 -0.3225 -0.0335
 9267W        W25401   5.386  15.122   5.870 -0.0003 -0.1957 -0.1122
 9268W        W25402   8.225  11.412  11.159  0.2144  0.1431 -0.0026
 9269W        W25403  17.310  16.342  14.456  0.1182 -0.3674  0.0147
 9270W        W25404   1.918  13.719  10.166 -0.1539 -0.0699 -0.0552
 9271W        W25405   8.064  11.807  13.544  0.0060  0.0608  0.2151
 9272W        W25406   4.574  18.109  13.469  0.1821  0.0891  0.1669
 9273W        W25407   3.921   6.570   2.038 -0.1240  0.1297 -0.3490
 9274W        W25408  11.166  12.557  13.559  0.0816 -0.2625  0.3522
 9275W        W25409   9.793  18.001   4.689  0.1321 -0.1351  0.1916
 9276W        W25410   9.179  16.724   4.228  0.3279  0.0800 -0.1078
 9277W        W25411  14.343   7.946  11.896 -0.0398  0.2718 -0.0277
 9278W        W25412  10.131  16.701   0.335 -0.1103 -0.0870 -0.1553
 9279W        W25413  17.118  15.136  11.456  0.1217  0.0779  0.3041
 9280W        W25414  15.955  14.152   0.614  0.0892 -0.0209  0.0712
 9281W        W25415  12.918  16.936  13.110  0.0173  0.2108  0.1689
 9282W        W25416  18.692   5.530  13.840 -0.0321  0.0118 -0.0478
 9283W        W25417   9.847  10.869  13.643  0.0668  0.1119 -0.0692
 9284W        W25418  14.180  10.650   3.631 -0.0944 -0.1425  0.2409
 9285W        W25419   3.422  16.732   4.787  0.0717 -0.2796  0.1844
 9286W        W25420   3.836  14.662   3.432  0.1700 -0.0507  0.0996
 9287W        W25421  17.770   8.895   2.733  0.1001 -0.0874 -0.4629
 9288W        W25422   0.704  13.044  14.101  0.0767  0.3265  0.1857
 9289W        W25423   4.819   2.043   4.171  0.0250 -0.2181 -0.3245
 9290W        W25424   8.292   5.449  10.727  0.2670 -0.0977  0.5201
 9291W        W25425   1.400   9.907   0.137 -0.3210 -0.3188 -0.1452
 9292W        W25426  18.601  12.242  13.304  0.1080 -0.0746  0.0421
 9293W        W25427  13.796  14.267  13.452 -0.0870  0.0187 -0.1357
 9294W        W25428  14.988   6.077   2.631 -0.0411 -0.3513  0.0143
 9295W        W25429   5.477  17.514  10.647  0.3001  0.0423  0.2074
 9296W        W25430  16.272  16.616   2.467  0.3778 -0.0524 -0.1008
 9297W        W25431   2.577  13.639   2.482 -0.3369  0.2710  0.2199
 9298W        W25432  11.776  11.560  13.077  0.1543  0.1323  0.0373
 9299W        W25433   2.750   6.639  11.079  0.0947  0.2908  0.1279
 9300W        W25434  17.243   2.543  10.793  0.1126 -0.1138 -0.0415
 9301W        W25435   0.204   9.768   1.145 -0.0343  0.1252 -0.2163
 9302W        W25436  14.212   1.088  12.847 -0.1032  0.0293  0.0027
 9303W        W25437  18.413  11.412   1.916  0.4077  0.1823  0.1770
 9304W        W25438  14.825  16.914   3.569  0.1175  0.1376 -0.1357
 9305W        W25439   9.156   4.896  15.115 -0.1902 -0.0121  0.0597
 9306W        W25440   8.120   3.767  11.629 -0.0280 -0.1108  0.0388
 9307W        W25441  10.226  10.866  11.015  0.1469 -0.1278 -0.2859
 9308W        W25442  11.790   2.771  14.044 -0.1067  0.1241  0.1672
 9309W        W25443   6.641   7.473  14.475  0.2408 -0.0400  0.1005
 9310W        W25444   0.355  18.116  13.891 -0.0578  0.2951 -0.2820
 9311W        W25445  12.875   6.660   4.426  0.0501 -0.0645 -0.1153
 9312W        W25446   0.981  11.521  10.420  0.0280 -0.3612  0.1385
 9313W        W25447   5.321   5.809   1.906 -0.1919 -0.1857  0.0290
 9314W        W25448  10.241  12.850  14.730  0.2882  0.1915  0.0350
 9315W        W25449  18.482   1.058   1.707 -0.0533 -0.1576 -0.0104
 9316W        W25450  16.584   9.448   0.993  0.4376  0.1750  0.3986
 9317W        W25451   6.264  18.000   0.679  0.0226 -0.0650  0.1764
 9318W        W25452   9.845   1.027   4.397 -0.1811 -0.1780 -0.2260
 9319W        W25453   5.943  12.872  13.451 -0.2639 -0.1211  0.1174
 9320W        W25454   2.451  18.582  14.517  0.1273  0.1193  0.0390
 9321W        W25455   0.852  13.117  11.390  0.0143  0.3582  0.1377
 9322W        W25456   9.131   0.449  12.811 -0.2219  0.0085 -0.0174
 9323W        W25457   7.933  13.523  14.444 -0.0964  0.0266 -0.0001
 9324W        W25458  15.762   9.387  11.483  0.1446  0.0989  0.1467
 9325W        W25459   2.812   0.610  13.296  0.2887  0.1798 -0.1233
 9326W        W25460   4.451  10.992   4.435  0.2162  0.0796  0.1575
 9327W        W25461  12.517   7.499  14.796  0.0360 -0.3265  0.0501
 9328W        W25462  10.736  13.083   4.350 -0.1214 -0.0690 -0.0227
 9329W        W25463   7.880  14.790  12.891 -0.3270 -0.0718  0.0404
 9330W        W25464  11.009  12.130  10.228  0.0919  0.4497 -0.1805
 9331W        W25465   9.215  13.676  13.976  0.1354  0.0768  0.1136
 9332W        W25466   6.688  13.156  11.066 -0.2754  0.2592 -0.3340
 9333W        W25467  17.479   6.660  13.985 -0.1743 -0.1778 -0.2045
 9334W        W25468  12.048  14.774  11.062  0.0470  0.1282 -0.1413
 9335W        W25469   8.669  15.810   0.820  0.1046  0.0251  0.3976
 9336W        W25470  15.388   3.754   0.209  0.3367  0.2551 -0.0952
 9337W        W25471  10.268  18.030  13.422 -0.2614  0.0919  0.1889
 9338W        W25472  17.711  14.586   0.143  0.0255 -0.0178  0.1736
 9339W        W25473  18.342  16.590   0.470 -0.3603  0.1432  0.0051
 9340W        W25474  11.038  15.550  13.209 -0.1070  0.1694  0.3007
 9341W        W25475  13.506   2.632   4.222 -0.1530 -0.0775 -0.0341
 9342W        W25476   3.986   3.631  14.740 -0.2264 -0.1253  0.0489
 9343W        W25477  15.735   7.074  13.333  0.2366  0.2348 -0.3255
 9344W        W25478  18.789  16.597   1.976  0.2353 -0.4408  0.1168
 9345W        W25479   2.353  17.312   1.206 -0.4785 -0.1743 -0.0498
 9346W        W25480  13.941  12.411   0.974 -0.0975  0.2702 -0.0156
 9347W        W25481  17.756   4.423   0.268 -0.3709  0.1040  0.0773
 9348W        W25482  10.124  17.200  14.762 -0.0193  0.1195  0.3400
 9349W        W25483  15.514  13.293  11.299 -0.1422  0.2032  0.1989
 9350W        W25484   4.101   1.710  15.226  0.0712 -0.0488  0.0308
 9351W        W25485  14.400   8.149   1.953 -0.2332 -0.0639 -0.0613
 9352W        W25486   5.808   4.842   9.147  0.1050 -0.1501 -0.2055
 9353W        W25487  17.989  18.568   3.999  0.1130  0.0717  0.2951
 9354W        W25488  11.790  15.407  11.448  0.3774  0.2620  0.0990
 9355W        W25489   5.010  18.136   2.542  0.3424 -0.2864 -0.0241
 9356W        W25490   2.180   5.628   0.732 -0.0591 -0.1737  0.0344
 9357W        W25491   0.252   6.565   3.046 -0.0877 -0.0892  0.0139
 9358W        W25492  14.528   5.762  13.373  0.1824 -0.3156 -0.1384
 9359W        W25493  16.924   2.255  13.166 -0.3848 -0.1017 -0.0240
 9360W        W25494   2.149   4.115  13.294  0.1417 -0.3021  0.3717
 9361W        W25495  15.976   4.898   0.856  0.1283  0.2370  0.1434
 9362W        W25496  18.591   2.833   2.780  0.2028 -0.0021 -0.1925
 9363W        W25497  15.350   5.707   1.953 -0.4330 -0.1719 -0.0228
 9364W        W25498   4.997  10.720   2.374 -0.1629  0.2311 -0.0090
 9365W        W25499  11.271  12.630  11.179 -0.2976  0.0768  0.0767
 9366W        W25500  12.304   4.874   1.853 -0.0662  0.0545  0.3496
 9367W        W25501  17.925  15.123   4.275  0.1674 -0.0955  0.0060
 9368W        W25502  10.188  12.115   4.269 -0.4100  0.0594 -0.0674
 9369W        W25503   6.988  10.614  11.180  0.1772 -0.0249 -0.1544
 9370W        W25504   3.517  11.547   0.003 -0.2088 -0.3393 -0.0391
 9371W        W25505  10.552  14.078   4.626 -0.0453 -0.1300 -0.0328
 9372W        W25506  16.659   9.721   2.712  0.0039 -0.0245  0.0707
 9373W        W25507   5.786   7.569  13.612 -0.0980  0.0973 -0.1889
 9374W        W25508  10.466  12.919   3.773 -0.0975  0.0264  0.1010
 9375W        W25509   6.515  14.924   2.254  0.3850  0.2449 -0.0433
 9376W        W25510   8.241   1.693  11.268  0.0813 -0.1429 -0.0366
 9377W        W25511   3.984   2.102   1.813 -0.2228  0.1322  0.0339
 9378W        W25512  11.920   0.625   1.609 -0.0976 -0.0765  0.0355
 9379W        W25513  11.261  16.235   2.044  0.1891 -0.2365  0.0752
 9380W        W25514   2.406  13.776   2.959  0.0728 -0.1712 -0.1687
 9381W        W25515   2.958  18.777  11.890 -0.0708  0.0356  0.2858
 9382W        W25516  11.093   4.580   1.686  0.1046 -0.3040 -0.2582
 9383W        W25517  15.157   1.119   5.444  0.2189  0.2319 -0.0679
 9384W        W25518   2.837  18.578  13.808  0.0282  0.2017 -0.1278
 9385W        W25519   6.716   0.136   3.773 -0.0115  0.3210  0.0648
 9386W        W25520  11.080  10.696   2.320 -0.1446  0.1919  0.1271
 9387W        W25521  10.633   6.066  11.077  0.0575 -0.0363 -0.1616
 9388W        W25522  10.828  18.119  13.417  0.0014  0.1141 -0.1441
 9389W        W25523  17.600  17.136   2.211  0.2159 -0.0380 -0.0045
 9390W        W25524  14.792  13.046  13.878 -0.0098 -0.3516  0.1020
 9391W        W25525   7.997  14.756   2.651 -0.1041 -0.0923 -0.0903
 9392W        W25526   3.768  14.777   4.949 -0.2539 -0.3358  0.2711
 9393W        W25527   3.410  12.075  10.166 -0.0083  0.0873 -0.0333
 9394W        W25528  16.829  11.383  13.899 -0.0912 -0.1327  0.1495
 9395W        W25529   2.963   0.857   2.470  0.0582 -0.1373  0.0136
 9396W        W25530  17.403   8.339  14.121  0.1796 -0.4472  0.1667
 9397W        W25531   5.875  17.294   3.761  0.2079  0.0294  0.0216
 9398W        W25532  11.117   2.364   2.708 -0.1105  0.1750  0.2548
 9399W        W25533   8.873  15.999  13.025  0.4060  0.1158  0.1369
 9400W        W25534   5.620   4.799   1.512 -0.0559 -0.3109  0.1465
 9401W        W25535  14.675   9.321   2.048  0.0211  0.1297  0.0144
 9402W        W25536  11.140   9.177   1.272 -0.0369 -0.0219  0.0293
 9403W        W25537   9.293   2.679   4.123 -0.0052  0.1156  0.2429
 9404W        W25538  11.644   7.191   3.650  0.0866  0.3490 -0.2206
 9405W        W25539  17.077  15.247   1.718 -0.2761 -0.2206 -0.0127
 9406W        W25540   7.735   9.826   4.445 -0.3224 -0.0507  0.0041
 9407W        W25541   5.218  18.262   3.339 -0.2838  0.0074 -0.0805
 9408W        W25542   9.788   3.625  11.931  0.0194 -0.0115  0.2459
 9409W        W25543  17.500  12.513   2.283 -0.0993 -0.0639  0.0832
 9410W        W25544   6.805  11.426  15.239 -0.0717 -0.2554  0.1332
 9411W        W25545  11.641  15.251   1.183  0.3052  0.2225 -0.0541
 9412W        W25546   5.938  17.237  13.795 -0.0401  0.2759  0.3579
 9413W        W25547  10.224   0.529   0.785  0.0472 -0.0021  0.1547
 9414W        W25548  16.711   3.663   5.142  0.1014  0.0773  0.3120
 9415W        W25549   8.899   1.770  10.468 -0.0247 -0.1885 -0.0984
 9416W        W25550  16.445  16.060   0.184 -0.2828  0.2628 -0.0574
 9417W        W25551  10.034   1.059  11.462 -0.0599  0.0168 -0.1088
 9418W        W25552  18.446   1.416  11.946  0.0594  0.0017 -0.1916
 9419W        W25553  11.757   7.469   0.700 -0.0347 -0.0453  0.2986
 9420W        W25554  12.679  10.782  13.491  0.0006 -0.2888  0.0665
 9421W        W25555   3.458   5.473  11.408  0.0808 -0.0783  0.4448
 9422W        W25556   4.012   9.922  12.115  0.1402  0.1537  0.0283
 9423W        W25557  18.021   2.472   0.608  0.2669  0.0397  0.1097
 9424W        W25558   7.210   2.798  13.059  0.2064  0.0026 -0.2406
 9425W        W25559  11.339  14.147   1.112  0.1970 -0.1451 -0.0236
 9426W        W25560  13.057   5.021   3.890  0.1972  0.0088  0.2420
 9427W        W25561   2.369   0.328   0.885 -0.0356 -0.3400  0.2095
 9428W        W25562   6.102  14.571   0.257 -0.0393  0.3404 -0.1804
 9429W        W25563   4.836  12.634   0.254 -0.1634 -0.2408 -0.0123
 9430W        W25564  10.882   7.125   9.240 -0.1140 -0.3072 -0.4211
 9431W        W25565   5.642  16.984   5.560  0.1638  0.0248 -0.1413
 9432W        W25566   7.632  18.290   2.849 -0.0623 -0.0637  0.1222
 9433W        W25567   3.477   7.799   2.356 -0.2366 -0.1781 -0.2656
 9434W        W25568  17.205   2.699  13.311 -0.2769  0.0596  0.0271
 9435W        W25569  11.880  16.560  11.758 -0.0527 -0.2030 -0.2057
 9436W        W25570   2.680   4.399  11.378 -0.1632  0.2209  0.0255
 9437W        W25571   1.170   7.710   0.491  0.1129 -0.2401 -0.2127
 9438W        W25572   8.272  12.586   4.449  0.4805 -0.1399 -0.1091
 9439W        W25573   9.108  10.407  14.019 -0.1830  0.1965 -0.0893
 9440W        W25574   9.304  16.024   1.753 -0.0158  0.3222  0.2529
 9441W        W25575  15.280   1.695   3.932 -0.1271  0.0523 -0.0948
 9442W        W25576   1.002  17.806  14.692  0.1525 -0.1037 -0.0469
 9443W        W25577   1.503   2.127   4.911  0.1822  0.2854 -0.1490
 9444W        W25578   9.817   9.529  10.730  0.1719 -0.1644  0.0272
 9445W        W25579   0.761   3.641   5.724  0.1546 -0.5810  0.0541
 9446W        W25580   5.849   6.912  14.848 -0.1422 -0.2742 -0.0857
 9447W        W25581   8.522   6.562   4.070 -0.0601  0.0343  0.0842
 9448W        W25582   6.480   5.443  13.782  0.1670 -0.1247  0.0380
 9449W        W25583  16.962   7.744   2.085 -0.0462 -0.0760  0.1637
 9450W        W25584   6.436  17.983  10.406 -0.2119  0.1893  0.2584
 9451W        W25585  17.385  17.914  13.869  0.1594 -0.1420 -0.0194
 9452W        W25586  10.680   7.125  13.768 -0.1038  0.3274  0.2237
 9453W        W25587  14.083  16.414  13.040 -0.1290 -0.0484  0.1859
 9454W        W25588   6.402  14.932   0.466  0.0728 -0.0553  0.1089
 9455W        W25589  17.749   2.290  11.266  0.0437  0.1992  0.0717
 9456W        W25590  11.035  12.097   4.238  0.3876 -0.0292 -0.0693
 9457W        W25591  12.524  12.788   1.447  0.1609  0.0905  0.0078
 9458W        W25592  12.994   9.276  13.899 -0.2476  0.1530 -0.1984
 9459W        W25593  10.199  15.728  11.679  0.2083  0.0447  0.0461
 9460W        W25594   8.591  13.096  14.093 -0.0637 -0.0728  0.1835
 9461W        W25595  12.370  10.834  14.072 -0.0088  0.1596 -0.0970
 9462W        W25596  18.260  14.659   0.335  0.0922  0.3878 -0.1062
 9463W        W25597  17.924   7.307   0.569 -0.2021  0.0909 -0.1516
 9464W        W25598   7.448   8.161   1.574 -0.3412  0.2258  0.0343
 9465W        W25599   4.279  16.955  10.320  0.0568  0.2955  0.2579
 9466W        W25600   2.756  16.904   1.239  0.0312 -0.2020  0.3441
 9467W        W25601  18.845  18.625  11.819 -0.0583  0.0659  0.0014
 9468W        W25602   3.185  18.137   5.222  0.0840  0.2475  0.2342
 9469W        W25603  12.429   6.224   2.247 -0.3189 -0.3757  0.1769
 9470W        W25604   2.215  12.936   2.003 -0.1158 -0.0591  0.2053
 9471W        W25605  15.645  12.290   1.429  0.0922  0.1664  0.1306
 9472W        W25606   1.674   8.541   2.827 -0.1621 -0.0926 -0.1900
 9473W        W25607   2.176   9.070  11.450  0.0069 -0.0850 -0.3206
 9474W        W25608  11.222  10.811  14.570  0.1415 -0.2778  0.0984
 9475W        W25609  14.887   9.746   9.609 -0.2376  0.3413  0.1767
 9476W        W25610   7.511  17.734  13.289  0.3855 -0.2689  0.0479
 9477W        W25611  17.409   5.719   2.127  0.1732 -0.0332 -0.3047
 9478W        W25612  18.080  13.184   2.184 -0.1805  0.0519 -0.2229
 9479W        W25613  18.148  16.594   3.471  0.1581 -0.2096  0.0031
 9480W        W25614   9.797  11.783  10.655 -0.1141  0.0019  0.0467
 9481W        W25615   3.267   3.269  13.593  0.4741  0.2832  0.1118
 9482W        W25616   1.857   3.194   3.162  0.0927 -0.0423 -0.0491
 9483W        W25617  13.478   6.573  14.472  0.1029 -0.3024  0.1656
 9484W        W25618   0.879  15.074  13.209 -0.0374 -0.0611  0.2362
 9485W        W25619   6.357   4.246   1.192  0.0524 -0.4008  0.1975
 9486W        W25620  12.238  12.431  11.348  0.0051  0.2754  0.3214
 9487W        W25621   5.594  15.379   5.085 -0.0695  0.0585  0.3052
 9488W        W25622  14.292  10.012   0.589 -0.2340 -0.0658  0.0438
 9489W        W25623   5.754   6.665   3.409  0.2073  0.1197 -0.2096
 9490W        W25624   0.506  13.060   4.430  0.0217 -0.1125 -0.1892
 9491W        W25625   7.144  15.481  13.887 -0.3666  0.0128 -0.0429
 9492W        W25626   2.858   9.288   1.332  0.5194 -0.2507 -0.2139
 9493W        W25627   3.129   8.672  13.750 -0.3504 -0.0016  0.0919
 9494W        W25628  10.830  16.172  13.223 -0.2308 -0.1114 -0.1008
 9495W        W25629   2.058   9.246  14.431 -0.1596 -0.2968  0.0853
 9496W        W25630  13.453  15.673   0.490  0.0864  0.1736  0.4751
 9497W        W25631  16.915   0.171   1.506  0.1015  0.1879 -0.0233
 9498W        W25632   2.351  17.685  10.293 -0.1127  0.1339 -0.0899
 9499W        W25633   4.447   9.938   9.815  0.0167 -0.0322  0.1145
 9500W        W25634  13.513  12.344  14.457  0.0288  0.1380  0.2219
 9501W        W25635  18.206   4.313   0.473  0.0738 -0.0576  0.4036
 9502W        W25636   7.603   4.569   3.275  0.0450 -0.1360  0.1746
 9503W        W25637  13.780  17.923   3.065  0.2616  0.2497 -0.2689
 9504W        W25638   6.949  17.983   3.062  0.2344 -0.1130  0.0013
 9505W        W25639  12.641  12.150  14.119  0.0155  0.2291  0.0106
 9506W        W25640  12.225  11.984  11.108 -0.2063  0.4570 -0.0970
 9507W        W25641  16.918   0.489   0.052  0.1636  0.1228 -0.0723
 9508W        W25642  13.160   5.281   1.209 -0.2829 -0.2115  0.1897
 9509W        W25643   8.937  14.440  14.022 -0.1252 -0.1916 -0.1359
 9510W        W25644  15.121   7.733   0.878 -0.0881 -0.0560  0.0982
 9511W        W25645   0.843  16.745  14.829  0.0342 -0.3034  0.0149
 9512W        W25646  13.628   8.243  11.122 -0.0037  0.0189  0.0288
 9513W        W25647  10.445   5.838  10.639  0.1105  0.1389  0.0378
 9514W        W25648  16.635   4.327   1.068 -0.4046  0.0528 -0.1020
 9515W        W25649   1.519   6.611  12.657 -0.0748 -0.0131 -0.1695
 9516W        W25650  11.887  13.192  15.050  0.1869 -0.0086  0.0018
 9517W        W25651   8.796   8.864  11.371  0.0224  0.0375 -0.3079
 9518W        W25652   7.980  11.140   0.055  0.3276  0.3758 -0.3126
 9519W        W25653   0.829  18.102  11.043 -0.0937  0.2449 -0.1159
 9520W        W25654  15.561  15.901  10.257 -0.0690  0.2571  0.0579
 9521W        W25655   9.159  15.073   2.170 -0.0067  0.0931  0.0484
 9522W        W25656   0.662   3.848   0.463  0.3649 -0.1303 -0.0834
 9523W        W25657  10.409  13.323  14.550  0.0357  0.0072 -0.2449
 9524W        W25658   8.732  13.848   4.190 -0.1537  0.0140  0.1028
 9525W        W25659   0.903   6.552  14.888  0.1303  0.0141  0.1637
 9526W        W25660   7.842  18.753   4.233  0.2965 -0.1354  0.1377
 9527W        W25661  10.850   5.843   0.617  0.1538  0.3973 -0.0677
 9528W        W25662   6.765   6.564  14.049  0.2013 -0.3166 -0.2913
 9529W        W25663  13.101   4.517   0.537 -0.0471  0.0967 -0.0148
 9530W        W25664  11.232  10.549   3.349 -0.1423  0.2975  0.1517
 9531W        W25665   8.443  18.587  11.149  0.0693 -0.2722 -0.1111
 9532W        W25666   8.797  18.055  13.144  0.1722 -0.0157 -0.0611
 9533W        W25667   8.495  12.589   1.690  0.2874 -0.2313  0.1588
 9534W        W25668  15.185   5.534   3.528 -0.3261 -0.0595 -0.4268
 9535W        W25669   6.679   7.973   1.189 -0.0510 -0.1092  0.5108
 9536W        W25670  16.438  12.584   0.174  0.1137 -0.0466  0.3828
 9537W        W25671   8.041  12.154   0.868 -0.0888 -0.1646  0.1983
 9538W        W25672   6.557   0.645   3.689  0.0018  0.1115 -0.2818
 9539W        W25673   7.067  11.871  10.588  0.0511 -0.2392  0.3095
 9540W        W25674  18.437   4.520  11.419 -0.2315  0.2188  0.1054
 9541W        W25675  17.059  12.217  13.339 -0.2500 -0.0464  0.1697
 9542W        W25676   9.863   6.014   4.134  0.2452  0.1059 -0.1467
 9543W        W25677  14.303  14.169  12.851  0.1292 -0.0850  0.0195
 9544W        W25678   4.246  17.832   2.881  0.4403  0.0356 -0.0315
 9545W        W25679   1.280   9.637   3.444  0.0802 -0.1251  0.0459
 9546W        W25680   7.329  12.482   4.695  0.2465 -0.0639  0.0365
 9547W        W25681  17.078  17.339   0.863 -0.1884  0.3137  0.1046
 9548W        W25682   0.701  16.153  12.351 -0.1684  0.1449 -0.0408
 9549W        W25683   1.806   2.663   3.454  0.4160 -0.0620 -0.0767
 9550W        W25684  12.381  18.133  11.120  0.0482 -0.0731  0.2841
 9551W        W25685   5.326  15.947  14.925 -0.1158  0.4069  0.0420
 9552W        W25686  12.846   3.132   0.419  0.0083 -0.1635 -0.5013
 9553W        W25687   2.933   5.909   0.335  0.1247  0.0019  0.0748
 9554W        W25688   6.600   4.254   3.632  0.1500  0.0112  0.0415
 9555W        W25689   7.172  13.835   2.099 -0.0494  0.3586 -0.0831
 9556W        W25690   4.351   9.434  14.348 -0.1011  0.3840 -0.0314
 9557W        W25691   6.291  11.757   1.122  0.1280 -0.0594 -0.2737
 9558W        W25692   6.608   3.154  11.320 -0.1224  0.0894 -0.2114
 9559W        W25693   9.089  10.542   1.766 -0.1513  0.0034  0.0780
 9560W        W25694  11.693  12.176  14.857 -0.3530  0.1056  0.0331
 9561W        W25695   1.185  13.875   2.069  0.1001  0.3260  0.1952
 9562W        W25696  13.083   4.736  10.783 -0.0160  0.1616 -0.2274
 9563W        W25697   0.601  12.147   4.997 -0.3883 -0.0374  0.1043
 9564W        W25698   5.779   1.513   2.867 -0.0956  0.0260  0.0433
 9565W        W25699  10.061   1.609  14.031 -0.0650 -0.1004 -0.0407
 9566W        W25700   0.811  16.024  13.724  0.1615  0.0256  0.1298
 9567W        W25701  14.001  12.582  14.415 -0.0345  0.1163  0.0188
 9568W        W25702   0.103  18.498   1.417 -0.1189  0.1323 -0.2213
 9569W        W25703  15.956  18.001  11.811 -0.2709  0.0237  0.1710
 9570W        W25704   3.728   3.283   1.328  0.1976  0.0235 -0.4403
 9571W        W25705   7.973   8.638   3.097 -0.1167 -0.2214  0.0912
 9572W        W25706  16.633  18.799   1.764 -0.0890  0.2414 -0.0916
 9573W        W25707   4.511   8.529   0.746 -0.0140  0.1820  0.1271
 9574W        W25708   4.971  14.405  14.693  0.0283 -0.1048  0.1359
 9575W        W25709   1.062   0.535  12.910 -0.1190  0.2457  0.0837
 9576W        W25710  10.157  10.052  11.394  0.0636 -0.0285 -0.0643
 9577W        W25711  11.080   8.704   3.452 -0.1579 -0.1086  0.0038
 9578W        W25712   9.470   1.736  11.098 -0.0324  0.0131 -0.1324
 9579W        W25713   9.810   0.079  14.121  0.2411 -0.1060  0.0182
 9580W        W25714   2.089  18.041   9.921  0.1255 -0.0397  0.1910
 9581W        W25715   3.799  17.853   0.185 -0.0005  0.0241 -0.2132
 9582W        W25716  12.430   2.997  13.227  0.1096 -0.1661  0.2353
 9583W        W25717  17.669   5.542   1.737 -0.3161  0.2200  0.0292
 9584W        W25718  16.760   0.456   0.628  0.2052 -0.1708 -0.1240
 9585W        W25719  11.516   9.248  11.553  0.1159 -0.1564  0.1837
 9586W        W25720  15.703   1.353  14.185 -0.2314  0.1931  0.0526
 9587W        W25721   4.404   3.160  10.452 -0.2964 -0.1045 -0.2005
 9588W        W25722  11.312  17.591  14.217 -0.0688  0.2208 -0.0413
 9589W        W25723   1.274   5.011  13.505  0.1527  0.0290  0.0117
 9590W        W25724  11.704   7.094  10.972 -0.0968  0.3093  0.2205
 9591W        W25725   1.021   6.714  11.781 -0.0200 -0.1210  0.0094
 9592W        W25726   7.321   2.197  14.282 -0.1517 -0.0799  0.0392
 9593W        W25727   3.414  16.424   2.375  0.4085 -0.0361  0.1126
 9594W        W25728  16.751   4.138   5.474  0.0110  0.3474  0.1009
 9595W        W25729  12.964  12.171  13.700  0.0349  0.0848 -0.3390
 9596W        W25730  14.734  12.762   3.183  0.1587 -0.1110  0.1440
 9597W        W25731   3.656  12.681  12.725  0.2219  0.0690 -0.4087
 9598W        W25732  17.856   5.147   1.436  0.0017  0.1862  0.2667
 9599W        W25733   7.385  16.778   0.076 -0.1269 -0.1608  0.2026
 9600W        W25734  10.333   3.609  10.930 -0.3443  0.0688 -0.0181
 9601W        W25735  18.746  14.931   3.610  0.0836  0.1602 -0.1896
 9602W        W25736   7.083   3.102  11.564 -0.3494 -0.1085  0.1310
 9603W        W25737   8.750  11.925  14.933 -0.3732 -0.4605 -0.2322
 9604W        W25738   1.542  12.063   2.369  0.1026  0.1271  0.1089
 9605W        W25739   7.473   8.758   1.526  0.0238 -0.0092  0.1617
 9606W        W25740   5.769   9.124   4.635  0.1141  0.3842  0.1384
 9607W        W25741  17.239  17.599   9.906 -0.2094 -0.0067 -0.2427
 9608W        W25742  10.779   5.466  11.719  0.0449 -0.1488 -0.0321
 9609W        W25743   7.530   9.500   0.726 -0.1514 -0.2073  0.1926
 9610W        W25744   5.248  13.916   4.973  0.1073 -0.0943 -0.0213
 9611W        W25745   2.356   3.679  14.130  0.1340 -0.3334  0.1320
 9612W        W25746   4.238  18.758  14.212  0.0775  0.2839  0.1630
 9613W        W25747   0.060   4.123  11.979 -0.0890 -0.0270  0.1820
 9614W        W25748  16.269  16.379   3.289  0.1639 -0.0329  0.1239
 9615W        W25749   6.010   0.492  14.264  0.0553  0.0856  0.2018
 9616W        W25750   4.459  17.967   2.431  0.1948 -0.1681  0.4284
 9617W        W25751  10.633  17.729   0.049 -0.0880  0.3402 -0.0849
 9618W        W25752  15.089  18.329   0.759 -0.2188 -0.1339 -0.1724
 9619W        W25753  14.663  13.076  12.141  0.1503  0.2280 -0.0523
 9620W        W25754   8.678   5.193   9.188 -0.0885  0.4500 -0.3305
 9621W        W25755  12.930  16.170  12.456  0.2759 -0.1081 -0.0124
 9622W        W25756   5.138  12.423  15.028  0.2588 -0.1099  0.0757
 9623W        W25757   2.047   5.801   5.074  0.1681 -0.0158  0.0728
 9624W        W25758   4.562  10.482  12.707  0.0871  0.2799  0.3185
 9625W        W25759  18.791   1.925  13.700  0.4513 -0.1361 -0.1666
 9626W        W25760   6.812   9.149  11.566  0.1960 -0.0356  0.2624
 9627W        W25761  15.985   5.076  10.820 -0.0219  0.1076 -0.3259
 9628W        W25762   7.047   2.404  14.751  0.2746 -0.0398 -0.1318
 9629W        W25763   9.306   6.082  13.163 -0.1513  0.3089  0.0862
 9630W        W25764  17.129   0.131  11.967  0.1291 -0.1819  0.0202
 9631W        W25765  10.172  10.619  10.121  0.1475  0.0078  0.0411
 9632W        W25766   6.615   2.614  14.738  0.0051 -0.0289  0.1229
 9633W        W25767  11.514   5.889   2.644  0.0820 -0.0089  0.0911
 9634W        W25768  14.234  12.358   4.004 -0.2614  0.0277 -0.3012
 9635W        W25769   5.598  17.255   0.543 -0.1621 -0.4285  0.0555
 9636W        W25770   4.976   4.513   4.956  0.2890 -0.1044 -0.0363
 9637W        W25771   4.714  10.407  13.682 -0.1610 -0.2912  0.1017
 9638W        W25772   1.020   4.288  11.735 -0.1888  0.1670  0.1520
 9639W        W25773  10.124   4.138  13.495  0.1791 -0.2280  0.1298
 9640W        W25774  15.560  10.545   1.047  0.1337  0.1001  0.0180
 9641W        W25775  13.341   3.743   1.008 -0.3777 -0.0502  0.1607
 9642W        W25776   7.734  11.431  11.360 -0.2289  0.2999  0.2533
 9643W        W25777  13.963   7.224  14.621 -0.2237  0.0849  0.2170
 9644W        W25778  11.023  10.894  13.387 -0.0719  0.3575  0.1076
 9645W        W25779   8.981  14.614   3.606  0.0071  0.1101  0.2221
 9646W        W25780   4.934   2.087   1.147  0.0415 -0.0414 -0.0929
 9647W        W25781  16.168  18.750  10.829 -0.0712  0.0158 -0.0260
 9648W        W25782   0.646   0.730  12.637  0.1978 -0.3224 -0.2147
 9649W        W25783  10.321   3.828  11.931 -0.0376  0.2431 -0.0619
 9650W        W25784   5.295  12.190   4.674  0.0962 -0.1155 -0.0394
 9651W        W25785   7.438   5.443  13.304  0.1889  0.2012  0.0038
 9652W        W25786   1.620   0.854   9.635 -0.1290 -0.1956  0.1683
 9653W        W25787  16.865   7.351  11.846  0.0766 -0.0780 -0.0719
 9654W        W25788  15.746   8.978  15.028  0.2186  0.0828  0.3591
 9655W        W25789   9.346  14.355   5.923  0.1057  0.1102  0.0466
 9656W        W25790  11.095   4.574   2.740  0.2873  0.1148 -0.0488
 9657W        W25791  13.125  17.430   0.711 -0.0322  0.2498  0.1062
 9658W        W25792   3.073  17.677   5.423 -0.0017 -0.1131  0.0402
 9659W        W25793  15.926  16.989  11.688 -0.0913 -0.0603  0.1350
 9660W        W25794   2.630   0.773   0.951 -0.2501 -0.0375  0.3310
 9661W        W25795   9.924   7.666   2.303 -0.0072  0.0454 -0.1879
 9662W        W25796  13.557  12.247  12.406 -0.3768 -0.1746  0.0365
 9663W        W25797  14.644  16.765  13.913 -0.0616  0.0970  0.3101
 9664W        W25798  17.121   9.999  13.399  0.1229  0.1454  0.0017
 9665W        W25799   7.967   9.428  14.819  0.1390 -0.2861  0.1195
 9666W        W25800  17.047   2.271  11.177  0.2490  0.3692  0.0326
 9667W        W25801   1.700  14.726   2.228 -0.3371 -0.1732 -0.2241
 9668W        W25802  18.481  12.775   0.777  0.1747  0.4032  0.3204
 9669W        W25803   9.609   5.022   4.133  0.1684 -0.0990  0.0769
 9670W        W25804  17.788   9.148  11.899 -0.0458  0.0243  0.2632
 9671W        W25805  11.109   3.356  12.510  0.2669 -0.0913  0.1412
 9672W        W25806   5.492  10.075   3.353 -0.1858  0.3696  0.0916
 9673W        W25807   0.553   6.548   0.586  0.0462  0.1244  0.3153
 9674W        W25808  14.142   2.930  14.738  0.0756  0.2266 -0.2076
 9675W        W25809  15.526  11.267  14.453 -0.2091 -0.2760 -0.1211
 9676W        W25810  14.669   7.988   1.095  0.1041  0.1649 -0.0915
 9677W        W25811   1.741  12.544  13.788 -0.2579  0.0932  0.1322
 9678W        W25812   4.494   5.010   2.923  0.0630 -0.2589 -0.1998
 9679W        W25813  14.467   9.911  14.344  0.0701  0.1633 -0.0400
 9680W        W25814  12.808   0.997  10.135 -0.0742  0.5240 -0.0667
 9681W        W25815  16.720   5.490  14.734  0.0979 -0.1050  0.0723
 9682W        W25816  18.630   6.127   4.906  0.0245 -0.5297 -0.2736
 9683W        W25817   9.268   1.740  13.599 -0.0732  0.1201  0.0614
 9684W        W25818  16.542   8.376   4.797 -0.2137  0.0690 -0.0761
 9685W        W25819   3.844   9.217   4.580  0.3789 -0.1474 -0.1288
 9686W        W25820   8.854   6.217   3.044  0.0010 -0.0398  0.0209
 9687W        W25821   7.268   5.027  11.410  0.1158 -0.1341  0.1988
 9688W        W25822  11.207   9.965  14.620 -0.1580 -0.0710 -0.0844
 9689W        W25823  10.195   5.637  15.133  0.0263 -0.0173  0.1589
 9690W        W25824  12.251  18.777  13.694  0.1437  0.1206  0.0704
 9691W        W25825  15.966   2.940   0.568  0.1361 -0.0227  0.1172
 9692W        W25826  17.145  11.364   2.701 -0.0045  0.0838  0.2139
 9693W        W25827   1.744  16.600  14.906  0.1065 -0.5076 -0.1193
 9694W        W25828   5.762  11.809   3.195 -0.1697 -0.3524 -0.1137
 9695W        W25829   2.255  10.375   3.178 -0.1264  0.0527 -0.0873
 9696W        W25830   4.933   8.654  14.712  0.1102 -0.0029  0.2524
 9697W        W25831  13.369  12.772   2.217  0.0407 -0.3154 -0.1887
 9698W        W25832  11.678   3.983  11.411  0.0651  0.2965  0.0717
 9699W        W25833  12.987  17.009   1.605  0.2451  0.1212 -0.0321
 9700W        W25834   5.836   6.009  14.256  0.0347  0.0978  0.3034
 9701W        W25835  12.177   0.298  10.782  0.2091 -0.2907  0.1486
 9702W        W25836   8.439   1.964  15.154  0.0562  0.1965 -0.0102
 9703W        W25837   4.529   1.634   2.301  0.1493  0.2634  0.1409
 9704W        W25838   2.755  15.758  13.878  0.1136  0.3966  0.0166
 9705W        W25839  13.804  11.352   1.225 -0.0863 -0.1536 -0.0523
 9706W        W25840   7.709   2.506   0.907 -0.0955  0.2018  0.1751
 9707W        W25841   8.611   8.666  11.789 -0.1981  0.1818 -0.3557
 9708W        W25842  12.200   1.722   2.698 -0.0008 -0.1662  0.2153
 9709W        W25843   6.851   4.690  14.412  0.2146  0.0324 -0.0666
 9710W        W25844  18.852  12.529   5.184  0.2252 -0.0016 -0.0317
 9711W        W25845   8.604   9.228  11.685 -0.0086 -0.0816  0.5044
 9712W        W25846  16.796  16.101   2.169  0.1563  0.0269 -0.0578
 9713W        W25847  17.782  16.597  14.599  0.0095 -0.1678 -0.3305
 9714W        W25848  12.060   2.032  12.596  0.0021  0.3120  0.1658
 9715W        W25849   8.712   8.504   5.168  0.3362  0.0515 -0.1880
 9716W        W25850   6.879   8.624   3.386  0.0483  0.3172 -0.2803
 9717W        W25851   0.041  10.622   4.250 -0.0117  0.2157  0.1546
 9718W        W25852   2.997   4.832  10.889 -0.1253 -0.0155 -0.1968
 9719W        W25853  10.281  18.546  15.105  0.0737 -0.0304 -0.1375
 9720W        W25854  12.385  10.536   4.007  0.0736  0.0851  0.0188
 9721W        W25855   2.805  16.924  10.877 -0.1548  0.0110 -0.3669
 9722W        W25856   2.109  13.730  10.718 -0.2019  0.0449 -0.0854
 9723W        W25857   2.710  12.556   1.175  0.0257  0.1346 -0.0223
 9724W        W25858  13.165   5.815   1.280 -0.0663  0.0149  0.4089
 9725W        W25859  18.873  10.779   3.199  0.2043  0.0257 -0.0853
 9726W        W25860  17.092  15.537   2.941  0.1366 -0.0820 -0.0788
 9727W        W25861   7.400  11.018   3.757 -0.1996  0.0828  0.2202
 9728W        W25862   1.679  15.418  14.833  0.2359 -0.0839 -0.1744
 9729W        W25863   9.944  17.101   3.578  0.2481  0.1929 -0.0664
 9730W        W25864   9.896   5.557   3.297  0.1693  0.0416 -0.2518
 9731W        W25865  16.675  14.345  10.681  0.3216 -0.4875 -0.1762
 9732W        W25866   0.905  13.086   2.531  0.3415  0.0826 -0.3717
 9733W        W25867  10.751  14.292   4.147 -0.2949  0.1229 -0.0367
 9734W        W25868   3.873   5.043  13.841  0.0034  0.1068 -0.1106
 9735W        W25869  14.912   9.244  13.652  0.1360 -0.2290  0.2063
 9736W        W25870  18.490   1.902   3.304 -0.1792  0.2333 -0.2573
 9737W        W25871   6.659  14.364   4.677 -0.0252 -0.0374 -0.0134
 9738W        W25872  14.496  11.024  13.529  0.5122 -0.1429  0.0811
 9739W        W25873   6.150  14.940   3.159 -0.0117 -0.4272 -0.0247
 9740W        W25874   7.347   2.372  13.305  0.0853  0.2730  0.0713
 9741W        W25875   4.626  12.487  15.133 -0.0794  0.1866 -0.2842
 9742W        W25876   7.195  13.662   5.366  0.1224  0.0264 -0.1164
 9743W        W25877  17.588   1.520  13.069 -0.1809  0.2244  0.1863
 9744W        W25878   9.085  10.972   5.247 -0.0901 -0.0775  0.2051
 9745W        W25879  18.109  17.234   2.298 -0.6429  0.0918  0.2421
 9746W        W25880  16.967  17.746   3.296 -0.1840 -0.2583  0.0063
 9747W        W25881  10.380   9.007  12.498 -0.2423 -0.2507  0.1336
 9748W        W25882   0.262   9.820   3.208  0.2448  0.1023  0.1050
 9749W        W25883   2.096   9.756  10.452 -0.4823 -0.2737 -0.0106
 9750W        W25884  12.051  15.010   5.476 -0.1590 -0.1172 -0.1938
 9751W        W25885   0.990   5.303   5.455 -0.1909 -0.0340  0.1305
 9752W        W25886   4.904   7.664   0.255  0.0783 -0.1049 -0.0949
 9753W        W25887  16.181   7.265   1.412  0.1442 -0.0885  0.2169
 9754W        W25888   7.561  12.273   3.119 -0.1269 -0.0533 -0.3593
 9755W        W25889   2.286   6.498  12.885 -0.3186 -0.3401  0.0168
 9756W        W25890  13.443   3.990   2.944  0.1250  0.4105 -0.1557
 9757W        W25891  11.402  12.303  10.767  0.0416  0.1603 -0.0943
 9758W        W25892   6.123  18.242   1.109 -0.4551  0.1449  0.1137
 9759W        W25893  16.500  11.336   2.110 -0.2778  0.1207  0.0519
 9760W        W25894   7.100   5.547   4.859  0.1862 -0.1824  0.1054
 9761W        W25895   3.901   9.996   4.609 -0.0559  0.1848  0.0429
 9762W        W25896   5.345  16.396   2.810 -0.2876  0.2765  0.1245
 9763W        W25897  18.293   7.054   0.339  0.0058 -0.2630 -0.2390
 9764W        W25898   9.266  17.741  13.700  0.0519  0.1279  0.1368
 9765W        W25899  13.594  13.606  13.542  0.2119 -0.0911  0.2256
 9766W        W25900  14.159  18.514   5.317  0.0322 -0.1965  0.0680
 9767W        W25901  12.495  18.825   5.117  0.3658  0.0982 -0.2282
 9768W        W25902   5.160   7.101  11.546  0.1348  0.1264  0.0547
 9769W        W25903   9.532   0.397  11.102 -0.1558 -0.0530  0.0771
 9770W        W25904   1.251  13.425   0.063  0.2368  0.1828  0.1572
 9771W        W25905  18.860   2.966   3.602 -0.3041  0.1886 -0.2551
 9772W        W25906  17.843   3.150  13.947 -0.1237 -0.1476  0.2210
 9773W        W25907  12.394  13.939   2.444 -0.1248 -0.0194  0.1757
 9774W        W25908   8.340  10.034   2.509 -0.0902  0.0028  0.1276
 9775W        W25909   9.098  13.898   3.439 -0.0708 -0.1778  0.2060
 9776W        W25910  11.182   8.522  12.793 -0.2798  0.1538  0.1139
 9777W        W25911   9.210  13.771  15.194 -0.2006  0.4680 -0.2318
 9778W        W25912  16.646   7.356   1.686  0.4447  0.0624  0.1541
 9779W        W25913  16.778  12.657  11.234  0.2673 -0.3446 -0.0337
 9780W        W25914   3.631  11.491   4.167  0.1806 -0.2047 -0.3168
 9781W        W25915  14.289   2.650  15.151 -0.1996 -0.0759  0.2316
 9782W        W25916  16.259   0.938   1.686  0.1233  0.3376  0.0223
 9783W        W25917   5.518  17.013   2.249 -0.0038  0.2371 -0.0829
 9784W        W25918   3.354   9.713  12.017 -0.2128  0.3109 -0.1369
 9785W        W25919  18.359   1.787  11.659 -0.0468 -0.0214  0.1128
 9786W        W25920   2.068  15.228  10.699  0.1751 -0.0681 -0.2181
 9787W        W25921   9.001   8.754  12.508  0.0465  0.1929  0.0926
 9788W        W25922  13.323   3.116   2.715 -0.1325 -0.2251 -0.4832
 9789W        W25923  13.692   6.372  12.373 -0.1091  0.1753  0.0357
 9790W        W25924  14.076   6.079  12.432 -0.1876  0.0465 -0.2155
 9791W        W25925  14.575  13.213   3.133 -0.1323  0.3028  0.0266
 9792W        W25926   3.674   1.269  13.236 -0.1014  0.2914  0.0414
 9793W        W25927   5.617   4.993  14.635 -0.1576  0.0843 -0.1973
 9794W        W25928  16.159   4.108  13.619 -0.2716 -0.1053  0.1642
 9795W        W25929   4.731  17.616  10.669  0.0643  0.4799 -0.0971
 9796W        W25930  13.088   3.169  13.282  0.0858  0.0447 -0.0799
 9797W        W25931   9.774  10.642  14.810  0.2678 -0.2014  0.1554
 9798W        W25932   7.143   5.931  13.274  0.0528  0.0822 -0.3305
 9799W        W25933  16.959  14.197   0.767  0.1016  0.1071  0.0886
 9800W        W25934   4.971   1.517   1.545 -0.2606 -0.0344 -0.3037
 9801W        W25935  17.843   9.580  11.107 -0.0795 -0.0161  0.0499
 9802W        W25936   4.853  15.607   4.932  0.2577 -0.2087  0.2248
 9803W        W25937  11.549  16.802   2.018  0.2929 -0.0804  0.1854
 9804W        W25938   4.387   8.435  13.690 -0.4499 -0.0440 -0.1010
 9805W        W25939  11.571   8.540  14.428  0.2206 -0.3035  0.1081
 9806W        W25940  15.876  15.828   1.805  0.0918 -0.0904  0.0954
 9807W        W25941   3.126   5.671   5.564  0.0453 -0.2888 -0.1386
 9808W        W25942  14.877  11.902  13.456 -0.0663  0.1537  0.2527
 9809W        W25943  17.634   2.435   1.563  0.0695 -0.0324 -0.0094
 9810W        W25944   7.843   3.049  14.270  0.0493  0.1586  0.3133
 9811W        W25945  10.762   9.648   3.181 -0.1514 -0.1806  0.0055
 9812W        W25946   1.406  14.339   0.084  0.0343  0.2373 -0.3454
 9813W        W25947   9.927  11.277  14.748 -0.0431 -0.0175  0.2384
 9814W        W25948   1.803   8.639   0.789 -0.3337 -0.1010 -0.0345
 9815W        W25949  15.828  14.214   3.717  0.2094 -0.1449 -0.1428
 9816W        W25950  12.592  17.729   4.630 -0.5352 -0.2442  0.2515
 9817W        W25951   1.638  10.174   1.329  0.1122  0.2222  0.2667
 9818W        W25952   8.530   6.223  11.785  0.0505  0.1987  0.0084
 9819W        W25953   9.964  14.412  11.768 -0.0019 -0.2650  0.0637
 9820W        W25954  18.595   0.670   2.115  0.3014 -0.2981 -0.1599
 9821W        W25955  15.239  16.696  14.489  0.2015 -0.0524 -0.2429
 9822W        W25956   8.024  16.618  14.766 -0.1478 -0.1338 -0.1372
 9823W        W25957  13.889  13.304  11.115  0.2455 -0.0912 -0.3640
 9824W        W25958   7.836   1.520  13.726 -0.1867  0.1530 -0.3230
 9825W        W25959  16.889  12.695  11.739  0.0454  0.1914  0.0782
 9826W        W25960  13.381  13.229   5.624  0.0483  0.2493  0.1068
 9827W        W25961   1.609  17.207  11.142  0.0699  0.1456 -0.2749
 9828W        W25962   4.329  12.252   0.358 -0.3300  0.1689  0.0812
 9829W        W25963   1.305  17.631  11.671  0.0689 -0.0130  0.0296
 9830W        W25964  18.579  17.744  11.235  0.0193  0.1809 -0.1745
 9831W        W25965  12.801   7.654   3.417  0.3430 -0.2161  0.3175
 9832W        W25966   0.766   6.038  12.313 -0.1538 -0.2320  0.2008
 9833W        W25967  11.489   7.392  13.890  0.1235  0.2949 -0.2517
 9834W        W25968   6.314   0.530   4.132 -0.1924 -0.1112 -0.1376
 9835W        W25969   0.417  12.631  13.357  0.1037  0.3226 -0.2944
 9836W        W25970  16.368  16.032   0.644  0.0027 -0.2044  0.1628
 9837W        W25971   6.104   4.867   1.541  0.2321  0.1459  0.1358
 9838W        W25972  16.848   5.469  14.081 -0.2960 -0.0326  0.0186
 9839W        W25973  17.547  10.675  14.717 -0.2469  0.3601  0.0390
 9840W        W25974   9.245   5.496   2.747 -0.4058 -0.2523 -0.0360
 9841W        W25975  14.139  17.812   2.619  0.1424  0.1175  0.1541
 9842W        W25976  18.579  17.995   5.155 -0.2411 -0.0888  0.0745
 9843W        W25977  15.245   8.864  13.729  0.2323  0.1170  0.2302
 9844W        W25978  11.256  15.151  13.392  0.0477 -0.2170 -0.1029
 9845W        W25979   2.333  12.572   1.558  0.2716  0.2094  0.2148
 9846W        W25980   7.681  17.175  11.303  0.2055  0.1111 -0.2476
 9847W        W25981   6.477   0.049  11.945  0.0533 -0.0370  0.2584
 9848W        W25982   2.559   6.878  14.430  0.0670 -0.1371  0.1133
 9849W        W25983  18.252  11.700   3.732 -0.2280  0.2785 -0.1177
 9850W        W25984  15.898  10.394  14.553 -0.1551  0.1200 -0.1030
 9851W        W25985   6.899   3.120   3.519  0.0374 -0.0907 -0.3054
 9852W        W25986   6.414   2.174   3.252  0.3025 -0.3191  0.0776
 9853W        W25987  15.378   3.934   0.724 -0.0323  0.0072 -0.1452
 9854W        W25988   2.036  12.464  14.913  0.1012 -0.0355  0.0695
 9855W        W25989  12.753   1.600  12.063 -0.1876 -0.1492  0.0477
 9856W        W25990  13.187  16.800  15.065 -0.1592  0.2077 -0.2822
 9857W        W25991   1.802  17.640  14.674  0.3257 -0.3107 -0.0422
 9858W        W25992   4.750  10.054   0.839  0.0864 -0.1853  0.1796
 9859W        W25993  10.473   5.918  10.034  0.0533 -0.2725  0.1906
 9860W        W25994   3.749   9.425  12.866 -0.1543 -0.3101  0.0166
 9861W        W25995   0.034  13.499   5.217  0.0326  0.2109  0.0034
 9862W        W25996   3.510   0.463  11.610 -0.0911 -0.3212 -0.2493
 9863W        W25997   3.203   0.323  13.402  0.0086 -0.1273  0.0928
 9864W        W25998  14.964  11.649  10.475 -0.2654 -0.0242 -0.3297
 9865W        W25999  15.833   3.202   2.391  0.3177 -0.2232 -0.0500
 9866W        W26000  13.619  12.407   3.859  0.0900 -0.3307  0.1782
 9867W        W26001   5.531  10.903  12.945  0.1938 -0.0349  0.1058
 9868W        W26002   7.933   7.856   0.009 -0.0133 -0.2173 -0.0007
 9869W        W26003   1.948  14.806  11.219 -0.1720 -0.2247  0.0035
 9870W        W26004   9.765   8.907  13.450  0.1722 -0.0569  0.1110
 9871W        W26005   1.985   6.741  12.504  0.1764 -0.3752 -0.0701
 9872W        W26006   3.545   3.889   3.304 -0.1243  0.1313  0.1035
 9873W        W26007  18.619   4.576   4.471 -0.0213 -0.0308 -0.2768
 9874W        W26008  11.068  18.400  14.632  0.1407  0.1053  0.0659
 9875W        W26009   5.878  16.388  12.355  0.0129 -0.0361 -0.1852
 9876W        W26010   4.355   6.344   1.816  0.0386  0.1914  0.0408
 9877W        W26011  12.054  18.213   3.115 -0.1135  0.2926  0.0391
 9878W        W26012  11.109   1.826   9.437  0.0396  0.0562  0.1059
 9879W        W26013   9.080  16.061   3.967 -0.0392  0.2436  0.0280
 9880W        W26014   7.739   2.910   4.968 -0.2019 -0.0958  0.0656
 9881W        W26015  14.004   2.017  13.263  0.0683 -0.0636  0.1438
 9882W        W26016   4.967   3.317   2.965 -0.0344 -0.3393 -0.1574
 9883W        W26017   2.128   6.240  12.216 -0.1114  0.1284  0.2237
 9884W        W26018   8.585  14.801  14.268  0.1088  0.1555 -0.2204
 9885W        W26019   6.698   6.579  12.789 -0.0951 -0.0777  0.2132
 9886W        W26020   1.746  16.822   5.026  0.0512  0.1254 -0.0772
 9887W        W26021   2.724  15.603   5.969  0.1697 -0.0998 -0.2092
 9888W        W26022  12.935  12.549   4.963  0.1738  0.1130 -0.1010
 9889W        W26023  12.900  15.374  12.096  0.2375 -0.0748 -0.1398
 9890W        W26024   0.446  14.086   3.852 -0.2056  0.3129  0.2428
 9891W        W26025   3.029   9.662  13.299 -0.1505  0.1141 -0.1349
 9892W        W26026  15.435  15.733   5.585  0.0169 -0.0311 -0.1925
 9893W        W26027  14.366  13.279   5.236 -0.2004 -0.0195 -0.1861
 9894W        W26028   5.903   0.691  14.818 -0.0209  0.0562 -0.3069
 9895W        W26029  13.718   3.030  14.446  0.2149 -0.0801 -0.1598
 9896W        W26030   9.020  12.041   0.665  0.2070 -0.0999 -0.0124
 9897W        W26031   9.959  14.044  12.158  0.1371 -0.2726  0.0278
 9898W        W26032   4.447   8.932  10.732 -0.0105 -0.4387  0.1310
 9899W        W26033  15.497  15.242   5.609 -0.1843 -0.2435  0.3539
 9900W        W26034  16.068  16.663   1.328  0.1434  0.0383 -0.1091
 9901W        W26035  11.128   9.173   2.809 -0.0036 -0.0740 -0.1163
 9902W        W26036   4.392   6.674  11.195 -0.0368 -0.1581 -0.3146
 9903W        W26037   6.296  10.537  12.788 -0.1448  0.2315 -0.2156
 9904W        W26038  18.717  14.645  11.456  0.2712  0.0477 -0.1138
 9905W        W26039   8.734   7.265  14.489 -0.0172 -0.0708  0.2359
 9906W        W26040  18.025   3.930   3.427  0.3290  0.0831  0.0866
 9907W        W26041   7.720   8.367  10.608 -0.0700  0.2584 -0.1098
 9908W        W26042  16.608   5.123  12.310 -0.0285  0.0867  0.1155
 9909W        W26043   5.497   8.284   3.157  0.1504  0.2931  0.0296
 9910W        W26044   8.800  12.276   0.198  0.0827 -0.0635  0.1306
 9911W        W26045  14.334  12.686  13.400 -0.0198  0.1299 -0.2384
 9912W        W26046  13.772  18.085   3.520  0.0208  0.1549  0.1740
 9913W        W26047   4.317   3.299  14.334 -0.0676 -0.3614  0.1101
 9914W        W26048   0.043   4.142  13.393 -0.0641 -0.0285 -0.1861
 9915W        W26049   3.951   2.932   4.220 -0.2424  0.1268  0.0419
 9916W        W26050   6.892  13.551   1.343  0.3636  0.1568  0.0353
 9917W        W26051   5.905   1.083   4.413 -0.3716 -0.0166  0.1733
 9918W        W26052  18.272   8.958  14.903  0.1821 -0.0478 -0.1276
 9919W        W26053   0.346   1.825  11.387  0.0255  0.2618  0.1626
 9920W        W26054  16.512  17.835   3.231  0.0152  0.1802  0.1482
 9921W        W26055   5.547  14.220   1.030 -0.1655  0.1953  0.1377
 9922W        W26056  11.968   9.260  10.719 -0.0436 -0.1166  0.1639
 9923W        W26057   2.767  11.630   3.844 -0.0008 -0.1805  0.1641
 9924W        W26058  13.693   5.048  13.050  0.0911  0.2081  0.1362
 9925W        W26059  15.518   9.049   1.036 -0.2702 -0.3472  0.1394
 9926W        W26060   6.364   2.356   3.875 -0.1490  0.2051  0.0121
 9927W        W26061   2.506  11.003   2.515 -0.2176 -0.1283 -0.3237
 9928W        W26062  11.822   1.425  12.535  0.0518  0.0176 -0.4254
 9929W        W26063   0.213  11.091   1.775  0.0124 -0.1037 -0.0947
 9930W        W26064   4.158   2.990  12.954 -0.1558 -0.1268  0.0082
 9931W        W26065   4.278   3.214  14.800 -0.1348  0.0734  0.4220
 9932W        W26066  15.460  13.464  15.257  0.1783 -0.1141 -0.0020
 9933W        W26067   9.824   1.560  11.436 -0.0451 -0.2123 -0.0708
 9934W        W26068   3.921   4.354  13.283 -0.0027 -0.3842  0.1273
 9935W        W26069   7.082   9.099   5.119 -0.1692  0.0769  0.2699
 9936W        W26070   2.246   2.316   2.014 -0.1435  0.1835 -0.0002
 9937W        W26071   5.602  13.819  12.483  0.1570  0.0586 -0.0885
 9938W        W26072  10.448  17.109   3.501 -0.0335  0.0435  0.1864
 9939W        W26073   2.107   0.993   2.189  0.1404  0.0812  0.1238
 9940W        W26074  17.093  12.452   1.740  0.2882  0.0170 -0.1392
 9941W        W26075  11.777  12.218   1.464  0.0953 -0.0006 -0.2244
 9942W        W26076   5.678   1.560   0.820 -0.0691 -0.1535 -0.0466
 9943W        W26077   1.524   1.327  12.552  0.0383 -0.0995 -0.3090
 9944W        W26078  16.565  12.065   5.230  0.1498  0.2014 -0.0695
 9945W        W26079  18.142   9.896   5.216  0.1628  0.1489 -0.1725
 9946W        W26080   3.045  10.329   2.592 -0.0275 -0.1620  0.2121
 9947W        W26081   3.413  14.008   4.919  0.1282 -0.1165 -0.1507
 9948W        W26082  10.579  16.471   0.424 -0.5293  0.1659  0.0017
 9949W        W26083   1.588   4.786  14.889  0.3027  0.0081  0.1140
 9950W        W26084  11.680  10.044   4.537  0.0892 -0.2562 -0.3729
 9951W        W26085   9.793   2.746   3.190  0.2921 -0.2663 -0.2134
 9952W        W26086  11.033  13.091   2.451 -0.0864 -0.0358 -0.0466
 9953W        W26087   9.361  12.283   0.991 -0.2258  0.0935  0.1480
 9954W        W26088   2.086   8.813  10.551 -0.0405 -0.0414  0.2175
 9955W        W26089  10.475   0.071   2.846 -0.3625  0.1584 -0.0057
 9956W        W26090   3.447   4.269  13.191 -0.0800 -0.2219 -0.1938
 9957W        W26091  16.513   6.001   5.214 -0.1743  0.2677 -0.0415
 9958W        W26092   9.172   3.345   2.781 -0.1129  0.0361 -0.0423
 9959W        W26093  15.992   4.750  10.383 -0.1842  0.1032 -0.2748
 9960W        W26094  17.155  15.423  14.797 -0.0087  0.1630 -0.4521
 9961W        W26095   2.229   1.352  13.193 -0.0636  0.1087 -0.1881
 9962W        W26096   2.583  16.049   0.789  0.0421 -0.0137  0.0241
 9963W        W26097  12.455   2.146   4.894 -0.2628 -0.2097  0.0091
 9964W        W26098   4.819  11.730  13.503 -0.0988 -0.0482  0.2677
 9965W        W26099   7.261  12.749  10.441  0.2268 -0.1518 -0.3068
 9966W        W26100  16.045   6.104   4.514 -0.1098  0.2877 -0.0125
 9967W        W26101   4.984   7.895  15.120  0.2869  0.0211  0.4372
 9968W        W26102  15.575  16.474  13.825 -0.0729 -0.3180 -0.0676
 9969W        W26103   7.324   1.590  13.779  0.1865  0.2122  0.0962
 9970W        W26104  14.480  13.439  14.067 -0.0088  0.3255  0.1812
 9971W        W26105   6.598  18.830   1.056 -0.2171  0.1650 -0.2808
 9972W        W26106  14.327  13.786   3.625 -0.3637  0.0554 -0.2375
 9973W        W26107   7.550   3.197   2.510 -0.1133 -0.0787  0.0175
 9974W        W26108  16.803   1.127   3.304 -0.1602 -0.3069 -0.1846
 9975W        W26109  12.945   5.542   4.365 -0.3048 -0.3148  0.0231
 9976W        W26110   3.322   8.141   2.003  0.0722  0.0206  0.5617
 9977W        W26111   6.937  16.806   2.396 -0.1380 -0.1412 -0.2366
 9978W        W26112  10.168  13.631  12.287  0.1079  0.0437  0.0026
 9979W        W26113  14.048  17.252  12.621  0.2429  0.0418  0.2626
 9980W        W26114   7.402   1.542  12.432 -0.1166 -0.0265 -0.0704
 9981W        W26115  16.208  16.973  12.561  0.1136 -0.0850 -0.0008
 9982W        W26116  14.273   4.676   0.281  0.1112  0.1334  0.0873
 9983W        W26117  12.339   6.684  14.707  0.0909  0.3359 -0.2078
 9984W        W26118   9.877   8.937  11.309 -0.3010  0.1653 -0.1728
 9985W        W26119  17.409  13.914   3.075  0.2582  0.0958 -0.1349
 9986W        W26120   3.035  14.109  13.256  0.1178 -0.1730  0.1747
 9987W        W26121  11.739  13.500  10.499  0.3000  0.1145 -0.3415
 9988W        W26122  15.086  14.173   4.469 -0.0195  0.2607 -0.1306
 9989W        W26123  12.658   7.040  13.294  0.1690 -0.1532 -0.2451
 9990W        W26124   2.295   7.920   1.643 -0.1443 -0.0158  0.0948
 9991W        W26125   0.195   7.397  14.235 -0.3250  0.2329 -0.2206
 9992W        W26126   9.423  13.559   0.327 -0.2957  0.3566  0.1094
 9993W        W26127  16.164   6.605   0.909  0.1444 -0.1684 -0.1092
 9994W        W26128   7.595  17.252   0.264 -0.0706  0.0453  0.3047
 9995W        W26129   2.438   7.085   1.700  0.1139 -0.1665  0.0301
 9996W        W26130  11.955  18.619  13.117  0.4294 -0.3572 -0.1249
 9997W        W26131  10.230   5.470  11.536  0.2633  0.4795  0.2659
 9998W        W26132   8.670  15.177  14.601 -0.1579 -0.0309  0.0522
 9999W        W26133   1.235  16.679   3.898 -0.0916 -0.1773  0.1037
10000W        W26134  17.756   0.554   2.531  0.0421 -0.1896 -0.0319
10001W        W26135   1.732  18.315   3.427 -0.0639 -0.0934 -0.0570
10002W        W26136   5.628  18.001  10.616  0.1422 -0.0803  0.1701
10003W        W26137  13.465  15.556   1.533 -0.1650  0.2159  0.0277
10004W        W26138   5.873  12.331  14.090 -0.0350 -0.0925 -0.0034
10005W        W26139   4.002   0.554  11.016  0.0639  0.2899  0.4120
10006W        W26140   1.216   7.129  13.011  0.0775 -0.3179  0.2361
10007W        W26141   4.975  16.276   2.415  0.0289  0.0220  0.1606
10008W        W26142   0.112  10.082   4.325 -0.1752 -0.3419 -0.1067
10009W        W26143   6.907  11.299   2.834  0.1580 -0.1102  0.1232
10010W        W26144   7.839   9.853  14.091 -0.0124 -0.4455  0.1068
10011W        W26145  12.879   3.514   0.034 -0.0487 -0.0057  0.0961
10012W        W26146   5.628   4.675  14.161  0.2002  0.1183  0.1655
10013W        W26147  17.937   1.703   9.922 -0.1012  0.0228  0.2986
10014W        W26148   3.985   1.416  14.238 -0.0549 -0.0525  0.1097
10015W        W26149  18.922  16.039   2.392 -0.2528 -0.1103  0.1438
10016W        W26150  10.168   3.091   4.771  0.2613 -0.5620 -0.1089
10017W        W26151  15.690  16.565  15.177  0.0387  0.1545 -0.4943
10018W        W26152  15.720  10.095   1.844  0.0948 -0.2938 -0.2847
10019W        W26153   2.295   5.699   0.221  0.2893  0.2971  0.0066
10020W        W26154  17.828   4.726   3.069  0.1569 -0.1348 -0.2650
10021W        W26155   1.599  13.276  11.531  0.2808  0.2024  0.0998
10022W        W26156  15.833  14.711  14.705 -0.1153 -0.5151  0.1212
10023W        W26157  12.295  15.263  14.581 -0.2107  0.0448 -0.0796
10024W        W26158  11.919  10.692  13.340  0.0037 -0.2872 -0.0853
10025W        W26159   7.017  12.043   4.522  0.0387 -0.1109  0.2665
10026W        W26160  15.501   4.363   2.574 -0.2573  0.1479 -0.2495
10027W        W26161   3.067   2.143  13.193  0.0154  0.0983  0.0048
10028W        W26162   6.487   3.658  11.141 -0.2467 -0.0256 -0.1239
10029W        W26163  16.932   0.150  14.468 -0.0366 -0.4670  0.0852
10030W        W26164   3.064   0.011   3.889 -0.2071  0.0116 -0.1321
10031W        W26165  11.910   1.346   0.884 -0.2466  0.2191  0.0487
10032W        W26166  16.290  12.254  13.957 -0.1880  0.0204  0.2216
10033W        W26167  11.687  13.829   2.024 -0.0686  0.1235  0.0128
10034W        W26168  12.659   5.333  13.209  0.3285  0.1937  0.0633
10035W        W26169  10.363   8.629   4.656 -0.1659 -0.0865 -0.0436
10036W        W26170  13.080   5.671  13.090 -0.1239 -0.1111  0.1237
10037W        W26171  12.903   3.890   2.930 -0.1336  0.0368  0.0422
10038W        W26172   3.393   5.252  10.123  0.2013  0.2142  0.0835
10039W        W26173  12.558  10.768  11.641  0.1944  0.0412  0.3635
10040W        W26174  14.295   1.904  10.839 -0.1082  0.5457 -0.2987
10041W        W26175   0.392   5.537  11.754  0.1084  0.0010 -0.0727
10042W        W26176  10.243   2.742   0.838  0.0700 -0.0983 -0.0734
10043W        W26177  16.861  16.478  10.865 -0.1863  0.0738 -0.2981
10044W        W26178   9.155   4.695   4.978 -0.2167  0.1283 -0.1680
10045W        W26179   9.190   2.557  13.964 -0.1936  0.0072  0.1524
10046W        W26180  10.925  11.717  14.455 -0.1456  0.1460  0.0883
10047W        W26181   5.135   3.354   1.569  0.1003  0.0907 -0.1540
10048W        W26182   5.039  18.897  13.602  0.2759  0.0683 -0.0013
10049W        W26183  13.552  13.207   3.677 -0.2645  0.0960 -0.2671
10050W        W26184  13.273   1.346  12.329 -0.2913 -0.0164 -0.1226
10051W        W26185   6.783   4.207   0.344  0.1185  0.1117  0.3843
10052W        W26186  18.192  10.549   4.742  0.0173 -0.0517  0.0817
10053W        W26187  18.783   8.911   0.088  0.0562  0.0333  0.2757
10054W        W26188  15.906   8.974  14.555  0.0920  0.1659  0.0659
10055W        W26189  16.064   0.978  12.167 -0.0461 -0.0938 -0.1150
10056W        W26190   2.700   1.555   1.323 -0.0226 -0.0587  0.0175
10057W        W26191   2.611   6.695  10.530  0.0147  0.0916  0.1767
10058W        W26192  16.871   6.876   4.967  0.1524  0.0869  0.0069
10059W        W26193   3.592  16.955  12.196 -0.1441 -0.2971 -0.2228
10060W        W26194  16.872  16.596  10.096  0.2582  0.0574 -0.3589
10061W        W26195  18.510  18.648   2.635 -0.0547 -0.2669 -0.0576
10062W        W26196  11.908   2.534  12.508 -0.0999 -0.1590 -0.1692
10063W        W26197  10.369   5.929   2.054  0.0362  0.4033  0.0243
10064W        W26198  15.856   1.300   1.534  0.4366 -0.0033  0.1015
10065W        W26199   7.655   2.133   1.653 -0.2076 -0.2251  0.0361
10066W        W26200   9.740   1.828   0.329  0.1442  0.2206 -0.0382
10067W        W26201  13.172   4.167  13.889  0.0719 -0.0966  0.0435
10068W        W26202   0.894  14.586  13.356 -0.0434 -0.2884 -0.1395
10069W        W26203  16.143   2.702  12.714 -0.3341 -0.0741 -0.0396
10070W        W26204  13.762  10.665  13.753  0.0872 -0.1948  0.4329
10071W        W26205   4.224   9.166  15.270 -0.0066  0.0278 -0.1208
10072W        W26206   9.358   7.626  12.232  0.3480  0.2918 -0.1143
10073W        W26207  16.365   6.498   2.806 -0.0787 -0.1125  0.0389
10074W        W26208   4.892  13.769   4.610 -0.1957  0.3707  0.2805
10075W        W26209   4.366   9.026   3.010 -0.3118  0.0699 -0.2758
10076W        W26210   3.441  14.978  12.720 -0.1724  0.0406  0.2303
10077W        W26211   8.645   4.293  11.307 -0.4019 -0.2934 -0.3159
10078W        W26212   9.466  13.575  12.917 -0.3444 -0.0298  0.0500
10079W        W26213  16.268  14.262   0.208 -0.1029  0.1129  0.1383
10080W        W26214   0.341   3.467   0.594  0.0076  0.1322  0.0081
10081W        W26215   3.347   5.226   4.476 -0.1364  0.1330  0.0022
10082W        W26216   6.387   0.687  15.134 -0.1681 -0.1072  0.2239
10083W        W26217   0.984  18.350   1.803  0.1079 -0.2672  0.3081
10084W        W26218  15.127   4.821   1.948  0.3956 -0.0350 -0.0831
10085W        W26219   6.150   0.078  15.153  0.0745  0.2544 -0.1572
10086W        W26220  11.805  15.140   3.571  0.0123  0.4302  0.2065
10087W        W26221   9.265   9.650  11.387  0.2134  0.1813  0.0970
10088W        W26222   1.057   9.335   0.107  0.1931  0.2843  0.0602
10089W        W26223  16.366   8.155  10.852  0.1264  0.0286 -0.0754
10090W        W26224   2.087   0.048  11.196  0.0651  0.1722  0.1035
10091W        W26225   5.661   5.439   2.248 -0.2299  0.0157 -0.3076
10092W        W26226  16.221   0.231   4.749  0.2626 -0.0136  0.0231
10093W        W26227   5.337  15.477   3.125  0.1261  0.1795 -0.0648
10094W        W26228  14.094  10.675   5.342  0.0179 -0.2815 -0.2131
10095W        W26229  11.356   0.537  11.949 -0.1185  0.1677 -0.0890
10096W        W26230   6.274   8.037  12.128 -0.2837  0.1948  0.2466
10097W        W26231  16.416   3.918  11.045 -0.1611 -0.3550  0.1731
10098W        W26232   9.442  17.888   3.741  0.0640 -0.1213  0.0205
10099W        W26233  11.848   2.063   0.609  0.0019  0.1675  0.1054
10100W        W26234   2.032  11.467  12.962  0.2371  0.1790  0.0547
10101W        W26235  16.246  18.025  12.481  0.3290  0.1927  0.2721
10102W        W26236   3.240   6.438  11.464 -0.2551  0.1897 -0.1284
10103W        W26237   0.723  12.616  12.767 -0.3730 -0.2264 -0.3352
10104W        W26238  10.023   0.506  11.328  0.0468 -0.2429 -0.2178
10105W        W26239  16.810   8.995   4.210  0.0129 -0.0701  0.0396
10106W        W26240  17.616   3.880   0.112  0.1009  0.0277 -0.3176
10107W        W26241  16.453   0.074  12.628 -0.2715  0.0284  0.2624
10108W        W26242   9.377   7.768   1.933 -0.2415 -0.0729  0.0239
10109W        W26243   8.776  13.984   1.037 -0.3155  0.0502 -0.1034
10110W        W26244   2.362   6.937  10.949 -0.1206  0.1990  0.0656
10111W        W26245   1.817  10.691  14.893 -0.3797  0.1191 -0.0359
10112W        W26246   6.939  10.509   0.226 -0.0117  0.0750  0.2668
10113W        W26247   7.571  12.188   1.289 -0.1655  0.2859  0.0814
10114W        W26248  17.501   2.289   3.192  0.0670  0.0555 -0.3238
10115W        W26249   9.779   4.971   3.690 -0.0913  0.0807 -0.3701
10116W        W26250  14.074   9.407   5.407  0.1616  0.1373 -0.0295
10117W        W26251   9.536  15.505  15.179  0.0264  0.2541 -0.0495
10118W        W26252  15.664  14.890   3.940 -0.1496 -0.1120 -0.2224
10119W        W26253   4.286  15.439  14.729  0.1481 -0.1356 -0.3236
10120W        W26254   3.434   4.338  14.109  0.1456  0.0736 -0.1727
10121W        W26255  10.139   5.086   4.226 -0.5498  0.0566  0.0622
10122W        W26256  13.827  12.021   2.006 -0.0812  0.0935  0.2878
10123W        W26257  10.177  16.938  13.743  0.0726 -0.0582 -0.3133
10124W        W26258   6.115  16.570   3.321  0.1317  0.0909  0.1635
10125W        W26259   2.262   7.005   0.439 -0.0891  0.0237  0.0929
10126W        W26260  12.878  12.262   0.071  0.1523  0.2574 -0.1397
10127W        W26261  11.747  17.529  10.711  0.0191  0.1763  0.1227
10128W        W26262  10.832   1.038   9.965 -0.1119 -0.2498 -0.0399
10129W        W26263   4.809  16.829   1.473  0.1659 -0.0513 -0.0278
10130W        W26264  16.738   4.484   0.573 -0.2882  0.0081  0.1134
10131W        W26265  11.436   6.499  14.940  0.3196  0.1221  0.0225
10132W        W26266  14.176  11.058  11.004 -0.1947  0.6709 -0.1160
10133W        W26267   1.372   8.895  12.533 -0.0436  0.0560 -0.1073
10134W        W26268   9.632   2.488  10.554 -0.1381 -0.2685 -0.0270
10135W        W26269  17.217  15.890   1.927  0.0194  0.0312 -0.2263
10136W        W26270   5.689   1.038  12.955 -0.0247  0.1733  0.1100
10137W        W26271  12.832   3.128   3.698  0.2935  0.2338 -0.0194
10138W        W26272   6.886  14.879  14.505 -0.2270  0.1078 -0.1936
10139W        W26273  12.780   8.678  11.802 -0.2010 -0.1830 -0.0032
10140W        W26274  14.790   3.224  13.575 -0.1288 -0.1497 -0.1658
10141W        W26275   2.885  17.731  12.861  0.0920  0.0746 -0.1163
10142W        W26276   5.269   6.099   0.242 -0.1209  0.2610 -0.0357
10143W        W26277  14.972  18.218   0.262 -0.0334  0.1954 -0.0530
10144W        W26278   9.196   5.202   3.845 -0.1343  0.2767 -0.2209
10145W        W26279  10.951  16.572   1.804  0.0060 -0.2900  0.0173
10146W        W26280  10.181   7.328   2.016 -0.3347 -0.0532  0.1250
10147W        W26281   1.785  15.332  11.127  0.3185 -0.1586  0.0046
10148W        W26282   3.095   6.334  13.393  0.1359  0.1742  0.0137
10149W        W26283   6.443  18.550   4.219  0.1235 -0.0209  0.1225
10150W        W26284  16.673  15.683  13.502 -0.0583  0.1262 -0.2329
10151W        W26285  13.660   9.742  10.606 -0.1235 -0.1309  0.3567
10152W        W26286  12.271   8.936   1.789  0.0549  0.0397 -0.2164
10153W        W26287   1.547   3.705   1.009 -0.1209  0.2795  0.0856
10154W        W26288  12.174   7.320   0.576  0.0366 -0.1984 -0.2357
10155W        W26289  16.588   7.511   1.207 -0.0803 -0.5470 -0.2536
10156W        W26290  11.286  17.397   2.078 -0.3355 -0.2014 -0.4030
10157W        W26291  12.218   3.161   0.330  0.2225  0.2011  0.0285
10158W        W26292   5.538  10.781  11.352  0.0847  0.0420 -0.2443
10159W        W26293   8.611   5.778  10.627 -0.0048 -0.0347  0.1639
10160W        W26294  18.655   1.941   9.828  0.1438  0.0915 -0.0067
10161W        W26295  15.934  12.764  12.904  0.2233 -0.0212 -0.2127
10162W        W26296  18.903   9.373   1.096  0.2306 -0.0064  0.0678
10163W        W26297   1.332  15.074   5.380 -0.1830 -0.3610 -0.0096
10164W        W26298  12.122  14.734  11.777  0.0456  0.0756  0.3436
10165W        W26299  13.669  17.944   4.568 -0.0086  0.0780  0.0856
10166W        W26300   3.584   3.392  11.637 -0.0582 -0.1093 -0.0920
10167W        W26301  17.766  18.961   4.157  0.2381 -0.2879  0.0913
10168W        W26302  16.650  16.549   0.008  0.4624 -0.0963 -0.1598
10169W        W26303  15.470   2.259   4.788  0.0873 -0.1245  0.1775
10170W        W26304   1.755  15.791  13.475  0.0741 -0.2767 -0.1510
10171W        W26305   5.842  18.479  11.717  0.1427  0.0760  0.1602
10172W        W26306   3.257  17.249   0.415  0.1281  0.0970  0.3172
10173W        W26307  12.966  12.204  11.777  0.1888 -0.2686 -0.0478
10174W        W26308   0.911  10.671  14.209 -0.0250  0.0371 -0.0498
10175W        W26309  13.231   1.187   0.354  0.2415 -0.3712  0.0207
10176W        W26310  10.626  18.061   4.075  0.2012  0.0373 -0.1576
10177W        W26311   2.719  18.342  10.983  0.1636  0.2152  0.0276
10178W        W26312  17.182   8.877  11.826 -0.1279 -0.2686  0.0406
10179W        W26313   1.382   0.062   3.438  0.1137 -0.1306  0.0547
10180W        W26314  13.493   2.540  14.539 -0.0434  0.2105 -0.1637
10181W        W26315  14.846   1.836  12.786 -0.0232  0.0114  0.1788
10182W        W26316   0.073   9.147  12.701 -0.2142 -0.0285  0.2495
10183W        W26317   1.966  14.306  13.329 -0.3338 -0.3228  0.0913
10184W        W26318   6.880   5.712   0.300 -0.1103  0.0830 -0.1452
10185W        W26319   8.474   6.619   4.902 -0.0586 -0.0245 -0.0405
10186W        W26320   1.968   1.662  15.165 -0.0357 -0.3211  0.2236
10187W        W26321  16.606  10.994   3.232  0.0015  0.2282 -0.0356
10188W        W26322   5.963  17.305  14.715 -0.1720 -0.0625  0.2479
10189W        W26323   5.124  17.320   1.318 -0.0944  0.0332  0.1152
10190W        W26324  16.200   7.678  11.246 -0.0601 -0.0360 -0.0731
10191W        W26325   7.587   3.639   1.946  0.2256 -0.0225 -0.1293
10192W        W26326  13.960   6.644  14.413 -0.2635 -0.1201 -0.1619
10193W        W26327   1.114   3.841  14.099 -0.0143 -0.0717 -0.0512
10194W        W26328  13.386  17.425   1.767  0.0556 -0.0360  0.2418
10195W        W26329   4.226  10.554  10.677 -0.3811  0.0483 -0.1527
10196W        W26330  10.077   8.437   2.694  0.1257  0.3090 -0.1152
10197W        W26331   5.217  10.250  12.724  0.1547  0.1625 -0.0223
10198W        W26332  14.014  14.598  14.286  0.1300 -0.2003  0.1650
10199W        W26333   8.716   0.453   3.857  0.0170 -0.0830  0.1828
10200W        W26334   1.449   6.720   1.217 -0.2439  0.0866 -0.1357
10201W        W26335   1.979   4.933  13.956  0.0058 -0.1054 -0.3416
10202W        W26336   8.733  12.751  12.612  0.1633  0.1469 -0.0349
10203W        W26337  15.026   3.025  12.108 -0.4528 -0.4795  0.4403
10204W        W26338   9.911  14.596   0.649 -0.2481  0.1955 -0.0691
10205W        W26339   6.307  18.894   3.896 -0.2363  0.0455  0.4175
10206W        W26340  13.553   8.349   0.410  0.2146 -0.2373  0.2693
10207W        W26341   7.892   8.685  10.167  0.0304  0.1714 -0.0835
10208W        W26342   6.458   7.813   3.133 -0.0287  0.1157  0.1526
10209W        W26343  12.080   7.208   1.112  0.1925 -0.2966 -0.0434
10210W        W26344   5.517   5.727  12.660 -0.0741  0.1609 -0.1872
10211W        W26345   3.100   4.356   3.185  0.1238 -0.0603  0.1204
10212W        W26346   0.162  12.530  11.087  0.0535 -0.0944 -0.0789
10213W        W26347  17.942   4.747  11.854 -0.0775  0.1353 -0.2356
10214W        W26348   0.134   2.704  12.080  0.1915 -0.0237  0.0627
10215W        W26349  13.849  14.349  11.330  0.0898  0.1484  0.1810
10216W        W26350   8.743  10.947  10.484 -0.1098  0.1295 -0.2522
10217W        W26351  10.859   3.257   0.956  0.1022  0.0241  0.5112
10218W        W26352   2.796  17.295  13.136 -0.0118  0.0493  0.1042
10219W        W26353   4.802   9.319  15.136  0.1456 -0.0649  0.0931
10220W        W26354   1.603  17.921   5.284 -0.5421 -0.2406  0.0198
10221W        W26355   5.728   6.680  10.972  0.1787 -0.3885 -0.1153
10222W        W26356  16.121  16.567   4.420 -0.1198 -0.2168 -0.0670
10223W        W26357  12.618   4.007  11.988  0.2028  0.0485 -0.2755
10224W        W26358   8.827  18.136  12.575  0.2237  0.0755 -0.3090
10225W        W26359   1.916  12.336   4.795 -0.0308 -0.0237  0.3628
10226W        W26360   9.181   7.615   4.232 -0.0161 -0.0810  0.1544
10227W        W26361   9.149   9.851  14.703  0.0634  0.1189 -0.0825
10228W        W26362  12.751   0.451  10.860 -0.0443  0.0157  0.0499
10229W        W26363   5.858  10.191   3.016  0.1306  0.3939  0.0073
10230W        W26364   0.835   2.478  13.900  0.1036  0.3440 -0.1153
10231W        W26365  17.683  18.683  11.751 -0.1289  0.0397 -0.0482
10232W        W26366  13.993   0.472  11.156 -0.2131 -0.0801  0.0862
10233W        W26367  12.360   6.786  10.248  0.0628  0.2660  0.0120
10234W        W26368  13.409   4.568  10.413 -0.2792 -0.1173 -0.2935
10235W        W26369  10.839   0.672   5.081 -0.0717 -0.2734 -0.0929
10236W        W26370   2.977  10.265   4.145 -0.0423  0.1063  0.0099
10237W        W26371  10.279  11.574   4.081  0.2815 -0.2942  0.1120
10238W        W26372  12.676  18.033  14.569  0.0186 -0.2074  0.3040
10239W        W26373  12.139  13.410   3.971 -0.3430 -0.3143 -0.1475
10240W        W26374   6.813  16.730   0.916 -0.0270  0.0242 -0.1431
10241W        W26375   9.533  16.848  12.302 -0.0763 -0.1191 -0.0094
10242W        W26376   7.344   0.344   3.922 -0.3322 -0.0967  0.0667
10243W        W26377   2.055  11.103  11.826  0.1812  0.1286  0.1626
10244W        W26378  14.666  15.117   5.444 -0.1151  0.0347  0.1604
10245W        W26379  15.356   6.735   4.777  0.1420  0.1386 -0.0776
10246W        W26380  15.135  13.763  10.735 -0.0002  0.3050 -0.1605
10247W        W26381   6.929   6.318   3.427  0.2035 -0.0247 -0.3942
10248W        W26382  18.780   1.281  12.267 -0.0421 -0.0371 -0.0857
10249W        W26383   5.178  11.267   5.847  0.0810 -0.0246 -0.2691
10250W        W26384   7.350  15.001   2.711  0.2327 -0.0656  0.2878
10251W        W26385  17.879  16.950   4.575 -0.3330 -0.3288 -0.0845
10252W        W26386   0.760   3.907   3.930 -0.3561  0.2566  0.1957
10253W        W26387   7.946   4.546  13.080  0.1343 -0.0202 -0.1259
10254W        W26388   9.760   9.982   0.122 -0.0956 -0.0764 -0.1383
10255W        W26389   3.072   5.299   1.098 -0.1361 -0.1097  0.0733
10256W        W26390   4.424   8.469  10.750 -0.1369 -0.1450 -0.2386
10257W        W26391  10.334   5.787   9.349  0.0954 -0.1077 -0.3914
10258W        W26392   4.438   1.277   3.624  0.0776 -0.0677 -0.0610
10259W        W26393  11.201   8.974  13.134  0.2200  0.2931  0.1300
10260W        W26394   0.818   3.016   1.095  0.2147 -0.0788 -0.0328
10261W        W26395  14.621   3.106  12.409 -0.0298 -0.1102 -0.1327
10262W        W26396  13.988  12.376   4.960 -0.0170 -0.0428  0.1780
10263W        W26397   1.340   2.629  14.455 -0.2679  0.0750  0.3280
10264W        W26398   8.533  15.360  12.444 -0.0493 -0.1516  0.0554
10265W        W26399   1.554  13.893   0.577 -0.2925  0.3169  0.0832
10266W        W26400  10.364   9.077   0.456 -0.3491 -0.0826 -0.0356
10267W        W26401   0.135  11.952  14.384 -0.1524 -0.1303 -0.1903
10268W        W26402   3.903   4.553  14.290  0.0586  0.0600  0.0348
10269W        W26403   4.904   0.732   2.954  0.0890 -0.2156 -0.1037
10270W        W26404   2.782  13.579   5.018  0.1497  0.1949  0.0188
10271W        W26405   0.850  10.735   0.563  0.3865  0.0649  0.0788
10272W        W26406   9.215  11.810   2.438 -0.0229 -0.0813 -0.0596
10273W        W26407   8.638  16.792  11.352  0.2514 -0.2267 -0.0060
10274W        W26408  11.027  17.965  12.163  0.1084  0.2694  0.2304
10275W        W26409   6.811  18.679   2.130 -0.2005  0.0265 -0.0559
10276W        W26410   6.105   5.518  14.876 -0.3419  0.0139  0.1213
10277W        W26411   9.989  14.887  12.863 -0.0844 -0.0322 -0.4275
10278W        W26412   4.583  15.022   3.725  0.1649  0.0164 -0.1320
10279W        W26413   5.787  18.284   1.481  0.1854  0.0267  0.2568
10280W        W26414   2.088   9.976  12.848  0.2205 -0.1790 -0.0385
10281W        W26415   2.212  10.336   4.596 -0.2674  0.2927 -0.2972
10282W        W26416   2.275  12.175   3.357 -0.1776 -0.0872 -0.0999
10283W        W26417  11.738   5.742  12.021 -0.3362  0.0632  0.0869
10284W        W26418  13.046   1.424   3.690  0.1811 -0.1945 -0.1501
10285W        W26419  11.994   9.693  10.385 -0.0920 -0.0021 -0.4864
10286W        W26420  15.499   1.892   2.238  0.0982  0.2048 -0.1221
10287W        W26421  13.461  16.328   1.970  0.0645 -0.3547  0.2959
10288W        W26422   9.709  16.547  12.641  0.0717 -0.1642 -0.2969
10289W        W26423  18.040  13.747   2.291 -0.1749 -0.1081  0.1086
10290W        W26424   4.303  11.947   5.027  0.0314 -0.1253  0.0515
10291W        W26425  11.109   1.019   4.277 -0.0469 -0.2240 -0.2009
10292W        W26426   5.176   3.404  15.103  0.2124 -0.0126 -0.1364
10293W        W26427  10.944   9.173   3.308  0.3873 -0.0205  0.0577
10294W        W26428   9.519   5.703  12.832  0.1975  0.1260 -0.2242
10295W        W26429  10.733   9.416  13.212  0.1665 -0.0314 -0.4270
10296W        W26430  11.713  18.563   1.629  0.2732 -0.2287  0.1836
10297W        W26431  18.492   0.255   5.206 -0.1777 -0.0371 -0.4599
10298W        W26432   4.285   0.156  12.036 -0.1681 -0.5027 -0.4672
10299W        W26433  10.360   8.591  15.234  0.2911 -0.0323 -0.1634
10300W        W26434   5.638  14.565  11.258 -0.2242 -0.1806  0.1415
10301W        W26435   0.019   4.305  11.540 -0.2449  0.0402 -0.4056
10302W        W26436   8.606  12.998   4.316  0.1152 -0.3485  0.0538
10303W        W26437  17.405  18.142   4.625  0.3309 -0.2587  0.3218
10304W        W26438   7.007  18.632   0.765 -0.0759 -0.3451 -0.0928
10305W        W26439  11.881   5.167   2.798 -0.0054  0.1524  0.0498
10306W        W26440   8.142  15.726   2.879  0.0132 -0.0477 -0.1755
10307W        W26441  10.602   5.487   2.383 -0.0986 -0.1073  0.0259
10308W        W26442  14.516  16.253  13.992  0.1386 -0.0084  0.1210
10309W        W26443  10.264  13.945   5.096  0.0954 -0.1690  0.0896
10310W        W26444  14.526   3.642  13.914  0.4057 -0.4265 -0.0137
10311W        W26445   3.331   7.561  14.065 -0.0691  0.0560 -0.2020
10312W        W26446   7.439   8.699  10.982  0.3057  0.0431  0.2775
10313W        W26447  18.836   4.729  11.837 -0.2971  0.1845  0.0288
10314W        W26448  11.781   8.831  11.438  0.0152 -0.0399  0.1517
10315W        W26449  14.569  14.868  13.042  0.1178  0.1127  0.3571
10316W        W26450  18.601  16.526   3.684  0.1897 -0.0093 -0.0214
10317W        W26451   0.553  16.096  14.904  0.1175 -0.1027 -0.1132
10318W        W26452   7.905  18.219  11.914  0.1535  0.1253 -0.1849
10319W        W26453   1.396  17.488   3.041 -0.0404  0.1457 -0.1992
10320W        W26454   3.636  18.693   2.052 -0.2171 -0.1303 -0.0239
10321W        W26455  11.388  17.576   3.604 -0.0693 -0.0801  0.0723
10322W        W26456   2.387   7.871   2.265  0.2065  0.5242 -0.1894
10323W        W26457  18.866   3.334  12.723 -0.0172 -0.4731 -0.0706
10324W        W26458   6.982  16.656   0.390  0.0252  0.4564 -0.1497
10325W        W26459  16.950   5.689   2.597 -0.1011 -0.1538 -0.0228
10326W        W26460   7.656  16.531   4.362  0.3640  0.1081  0.2244
10327W        W26461   2.249   9.493   0.612  0.3859  0.1630  0.1984
10328W        W26462  17.711   0.744   0.077  0.0019  0.1941 -0.2165
10329W        W26463  17.544  12.900  10.957  0.1541 -0.0261  0.4208
10330W        W26464  13.359  18.943  10.170  0.3815 -0.0262 -0.1685
10331W        W26465  13.252   3.001   0.219  0.2875 -0.0923 -0.1629
10332W        W26466  13.867   0.475   0.543 -0.0530 -0.0878 -0.0886
10333W        W26467  16.784   2.560  13.550 -0.0034  0.0890  0.0720
10334W        W26468   5.890   4.452  14.586 -0.0623 -0.3686  0.4886
10335W        W26469  10.171   7.172  10.208  0.0280 -0.2435  0.2285
10336W        W26470  14.296  12.820   5.016  0.0857  0.2722  0.1251
10337W        W26471   9.015   8.163  13.362  0.0232 -0.1831 -0.1387
10338W        W26472   3.465   3.744   1.149  0.0880 -0.2371  0.2507
10339W        W26473   0.949   7.634  11.518 -0.0019 -0.0881 -0.0137
10340W        W26474  16.434   2.077   2.238  0.0820  0.0372 -0.1049
10341W        W26475   3.719  16.699   2.075  0.2372  0.1944  0.0710
10342W        W26476  17.639   0.478  12.693 -0.2025 -0.1170  0.0097
10343W        W26477   5.991  15.549   1.095  0.0105 -0.0467  0.2943
10344W        W26478  16.294  12.920  11.202  0.1918  0.2315  0.1033
10345W        W26479   7.088  11.221   9.730  0.1806  0.1143  0.1830
10346W        W26480  18.613   3.053   0.333 -0.2724 -0.1142 -0.1491
10347W        W26481   9.588  11.213  12.389  0.0729  0.1281 -0.1552
10348W        W26482   9.756   5.016  13.913 -0.1063 -0.1127 -0.0753
10349W        W26483  10.386  12.803   0.070 -0.1152  0.1088  0.0864
10350W        W26484   0.231   1.734  13.502 -0.1023 -0.1380 -0.0008
10351W        W26485   3.063   0.469   3.662 -0.3037  0.0505  0.2137
10352W        W26486  18.931  18.426   3.798 -0.0607  0.1036 -0.2018
10353W        W26487  12.935  17.386  14.620 -0.1002  0.0304  0.3779
10354W        W26488   0.472   2.388  11.261  0.1921  0.3004 -0.0193
10355W        W26489   8.457   8.762  12.364 -0.0620 -0.4243 -0.1872
10356W        W26490   8.226  15.224  13.958  0.2317 -0.2384 -0.5438
10357W        W26491  15.003  15.076   3.318 -0.0174 -0.0409  0.1273
10358W        W26492   7.602   5.437   3.349 -0.0847 -0.0351 -0.1783
10359W        W26493  12.520   5.868   4.400 -0.2588  0.0687  0.1650
10360W        W26494  17.478   9.014   5.397  0.1815 -0.0828 -0.6111
10361W        W26495   9.420   8.927  11.887 -0.0161  0.2101  0.3380
10362W        W26496   2.317   1.058  12.014 -0.2120 -0.1591  0.1850
10363W        W26497  18.166   0.020   0.709  0.0931  0.2999  0.2320
10364W        W26498   6.654   7.342  10.228 -0.2243 -0.2499 -0.4063
10365W        W26499  17.139   6.526  15.005  0.1131 -0.1245 -0.1348
10366W        W26500  15.634   1.040   5.184  0.2970 -0.1545 -0.0150
10367W        W26501  12.888   7.524  13.712 -0.3345  0.1437 -0.3530
10368W        W26502  16.910   3.972  11.141 -0.0376 -0.3858 -0.1168
10369W        W26503  14.450   5.727   4.208 -0.0611 -0.2989  0.0972
10370W        W26504  18.332  18.200  13.778  0.0100 -0.2293 -0.1129
10371W        W26505  12.911   7.000  11.255  0.3052  0.1320 -0.0163
10372W        W26506   5.476   2.279   2.627  0.2841  0.1888  0.1105
10373W        W26507   2.904  10.347  14.263 -0.2800  0.2224 -0.1899
10374W        W26508   1.801  12.047   3.579  0.0770  0.3801 -0.1271
10375W        W26509   5.580   8.641   2.332 -0.1418 -0.1858 -0.0613
10376W        W26510   0.819   1.534   1.439 -0.1839 -0.3022 -0.0995
10377W        W26511  15.822   1.790   5.700 -0.0689  0.1489  0.1509
10378W        W26512   8.315   6.468   1.461  0.0485 -0.1598 -0.2322
10379W        W26513   9.084  15.490   1.696 -0.1382  0.0045 -0.0149
10380W        W26514   0.485  12.910   9.904  0.4517  0.3484  0.3502
10381W        W26515  15.407  11.962  13.350  0.0734  0.0667 -0.1603
10382W        W26516   3.872   4.143   2.961  0.0588  0.0514  0.1559
10383W        W26517  15.819   8.002  11.137  0.0588  0.3585 -0.0988
10384W        W26518   3.483   9.665   4.667 -0.1910 -0.1099 -0.1128
10385W        W26519   2.949  12.784  13.972  0.0957  0.1945  0.2457
10386W        W26520   4.238   1.134  11.797  0.1049 -0.0369  0.0693
10387W        W26521   2.977   8.396  15.031 -0.3108 -0.0329  0.1760
10388W        W26522  10.884   7.156   4.464 -0.2472  0.0894  0.0041
10389W        W26523   4.622   5.372   0.582 -0.1086 -0.1251 -0.2187
10390W        W26524  17.377   3.676   1.450  0.1379  0.1703 -0.1235
10391W        W26525   5.092   4.553   2.282  0.1636  0.1926 -0.0929
10392W        W26526  18.095   4.698  12.372 -0.0945  0.2550  0.0571
10393W        W26527  18.610  17.230   0.383  0.0681 -0.0665 -0.0012
10394W        W26528  13.011   9.054  14.926 -0.1465  0.2510  0.0035
10395W        W26529   0.080   3.300  11.323  0.1907  0.1025  0.0661
10396W        W26530   8.196  13.407  11.855  0.2325 -0.2813  0.0524
10397W        W26531  15.550   8.244   4.433  0.0843  0.0083 -0.1212
10398W        W26532   8.052   5.872  10.563  0.2178  0.1851 -0.2047
10399W        W26533   7.179  12.666  13.577 -0.1206  0.2694  0.1704
10400W        W26534  12.598   3.540   3.946  0.0796 -0.2907  0.2937
10401W        W26535  17.743  18.318  13.624  0.1628 -0.1415 -0.4663
10402W        W26536   1.128   8.404   5.852  0.2033  0.0372 -0.1223
10403W        W26537  13.966   5.219  14.525  0.0426 -0.0712 -0.1544
10404W        W26538   2.569  17.298   3.686 -0.1244 -0.0789  0.2353
10405W        W26539  18.978   8.126  12.102  0.0707 -0.3991 -0.3149
10406W        W26540   9.333  12.075  12.512 -0.1582  0.3497  0.0352
10407W        W26541  15.557  13.564  12.676 -0.3730 -0.0541 -0.4225
10408W        W26542  18.988   6.902   3.374  0.1050  0.1875 -0.2103
10409W        W26543   1.520   2.614  12.381 -0.0232  0.2234  0.0700
10410W        W26544  10.229   7.727   4.669 -0.2739  0.1747  0.1809
10411W        W26545  16.890   4.900   1.931  0.0181  0.1690  0.0355
10412W        W26546  17.451  11.449  14.049  0.0857 -0.1355 -0.5727
10413W        W26547   9.397   4.031  12.146  0.0596 -0.1593 -0.0156
10414W        W26548   7.401  15.179  12.888 -0.3030 -0.0143 -0.1556
10415W        W26549  11.097  15.545  11.999  0.2258 -0.4525 -0.4080
10416W        W26550   7.173   3.403  11.964 -0.0720 -0.2448 -0.4481
10417W        W26551   9.940  13.862  10.988  0.3915 -0.2058  0.0353
10418W        W26552  14.725  12.749   9.306  0.0733 -0.3057 -0.0319
10419W        W26553   8.274   3.777   2.630 -0.2413 -0.1313  0.0443
10420W        W26554  11.518   1.961   1.462 -0.1402  0.1481 -0.2433
10421W        W26555   7.661  16.304  10.824 -0.0704  0.3642  0.0303
10422W        W26556  12.783  13.167  11.993 -0.0437 -0.2425  0.1023
10423W        W26557  13.451   2.020   2.521 -0.0934  0.1913  0.1585
10424W        W26558  16.668  15.477   1.338 -0.1726 -0.1014  0.1100
10425W        W26559   9.709  16.090   4.014 -0.1359 -0.3692 -0.0254
10426W        W26560  13.095  15.122   4.334  0.2381  0.1744  0.1571
10427W        W26561  13.391   1.448  11.335  0.4611  0.2256 -0.1296
10428W        W26562   4.718  18.276  12.055  0.2092  0.2725  0.0918
10429W        W26563   2.523   3.629  10.471  0.2003 -0.1429 -0.1691
10430W        W26564   6.421  12.727  11.095 -0.1257 -0.0630  0.4237
10431W        W26565  18.792   4.995   3.089  0.0261 -0.1926  0.1000
10432W        W26566  14.004  17.738  10.754  0.0163  0.0780 -0.1516
10433W        W26567  11.574   7.278  12.905  0.0657 -0.3413 -0.0623
10434W        W26568  12.488  11.317  12.495  0.1251 -0.2692  0.1026
10435W        W26569   9.833  16.291  13.938 -0.0570 -0.3276  0.3569
10436W        W26570  11.138   0.687   2.657 -0.4189  0.1355 -0.5257
10437W        W26571   5.995  12.662   0.948  0.3118  0.3236  0.1155
10438W        W26572  14.435  16.833  10.542 -0.1563  0.2357 -0.1818
10439W        W26573  16.432  14.098   9.597 -0.0983  0.4898 -0.1974
10440W        W26574   2.051   3.130  14.243  0.2757 -0.2836  0.1421
10441W        W26575  15.564   3.321  11.318 -0.0591 -0.0342 -0.0115
10442W        W26576   3.362  15.355   2.104  0.2568 -0.2400  0.2961
10443W        W26577   6.178  12.406   0.522  0.2170 -0.1633 -0.1408
10444W        W26578  17.643  18.488   3.214 -0.0047  0.1125  0.1627
10445W        W26579   9.159   2.473   2.443  0.0748 -0.0752 -0.1817
10446W        W26580   2.671   5.856  13.477  0.0808  0.3448 -0.1106
10447W        W26581  15.171  18.539   1.216  0.0464  0.2534  0.1599
10448W        W26582  10.259   4.429   1.672 -0.2969 -0.1216  0.2260
10449W        W26583   9.448   6.875   9.121  0.0319 -0.0314  0.1664
10450W        W26584  15.418   8.586   3.969  0.2010  0.3438 -0.1313
10451W        W26585   6.688   2.095   4.676  0.0274  0.0793 -0.3241
10452W        W26586  18.395   5.107  13.934  0.0081 -0.1977  0.1437
10453W        W26587   0.871   3.456   0.662  0.1896  0.2880 -0.0550
10454W        W26588   9.660   9.680   4.477  0.0072  0.1687  0.1937
10455W        W26589  16.072  10.413   3.987  0.0866 -0.0498  0.0884
10456W        W26590  11.592  13.833  14.629 -0.0502  0.1557 -0.0147
10457W        W26591   4.194   8.425  15.190  0.0081  0.1745 -0.1412
10458W        W26592   1.725   6.320   0.245 -0.3131  0.0710  0.0443
10459W        W26593  11.514   6.219  14.537 -0.0398  0.0348 -0.2513
10460W        W26594   3.876   7.267   3.005  0.1568  0.1042  0.2387
10461W        W26595  12.725  14.628  10.266 -0.0594  0.1649  0.1945
10462W        W26596  10.066   6.274   9.804  0.0527 -0.3307  0.1020
10463W        W26597   2.954   2.772  11.503 -0.2885  0.3883  0.1059
10464W        W26598  17.537   9.815   2.191  0.0399 -0.0307  0.0926
10465W        W26599  13.320  11.921  11.420  0.4378  0.0366  0.2650
10466W        W26600   3.871   8.226  13.001  0.0661  0.3051 -0.0942
10467W        W26601  18.572   0.666  13.067  0.2858  0.0877 -0.0197
10468W        W26602  14.941   5.690   2.271  0.0323 -0.0251  0.3070
10469W        W26603   3.149   5.029   1.564 -0.3103  0.1613 -0.0243
10470W        W26604   7.415   7.418   2.859  0.0648 -0.2479 -0.0133
10471W        W26605   0.216   9.823  13.327  0.1091  0.0597  0.0109
10472W        W26606   1.466   1.890   3.441 -0.0874  0.0446 -0.2311
10473W        W26607   1.612   9.796   4.795  0.1282 -0.2579 -0.2823
10474W        W26608  10.951  15.185  10.776 -0.2750 -0.0051 -0.1720
10475W        W26609   7.161  16.712   4.144  0.1364  0.2418  0.0489
10476W        W26610  10.055  17.780  10.977 -0.2031 -0.1746 -0.3404
10477W        W26611  14.036   4.776  13.869 -0.1465  0.2635 -0.2128
10478W        W26612   6.435   3.413   5.136 -0.3759  0.1138  0.0040
10479W        W26613   8.798   8.180  15.009  0.1694  0.1308 -0.1940
10480W        W26614  10.262  12.953   1.840  0.3095  0.1044  0.0342
10481W        W26615  12.118  12.347  14.193  0.2021 -0.0684 -0.1202
10482W        W26616  11.740  11.970  10.935 -0.4632  0.2046  0.3384
10483W        W26617   6.146  15.706   4.310 -0.2475  0.1165  0.0417
10484W        W26618   2.437   3.469  11.873  0.0771 -0.0505 -0.0495
10485W        W26619  16.191  15.120   3.660  0.0905 -0.0929  0.2830
10486W        W26620  13.358   9.375   2.893  0.2227  0.5153  0.1652
10487W        W26621  15.018   1.247  12.992 -0.1444  0.1008 -0.0939
10488W        W26622  18.861  14.180   1.288  0.1810  0.1645  0.0538
10489W        W26623   2.429  13.421   2.018 -0.0805  0.1537  0.1666
10490W        W26624   8.353  17.903   2.281 -0.4706 -0.1087  0.1247
10491W        W26625  13.657   2.288  11.412 -0.0546 -0.1614 -0.1648
10492W        W26626   5.813   2.068  14.859 -0.0680  0.0260  0.0928
10493W        W26627   2.177  17.783   5.916 -0.1114 -0.2198  0.1426
10494W        W26628   2.218  12.797   0.658 -0.1816 -0.3028  0.2210
10495W        W26629  11.267  18.152   5.334 -0.1224 -0.1325 -0.2247
10496W        W26630   4.098  18.133  14.959  0.0773 -0.1060  0.1939
10497W        W26631   7.615  13.760   5.161  0.1080 -0.0017  0.0858
10498W        W26632   5.714   1.792   3.905  0.1656 -0.0364 -0.1023
10499W        W26633   7.309  18.675  14.662  0.3169 -0.1646  0.3711
10500W        W26634   1.403  12.288  11.335 -0.0219 -0.0786  0.1203
10501W        W26635  15.465  14.708  11.221  0.2632  0.0258  0.0850
10502W        W26636  16.456  14.743  11.333 -0.0196  0.0725  0.0273
10503W        W26637   3.483   7.527  10.568 -0.0609  0.0767 -0.1827
10504W        W26638  14.862   6.942   3.763  0.0322  0.1296  0.3450
10505W        W26639   4.933   3.041  12.671  0.2585 -0.0661  0.1781
10506W        W26640   1.547  17.221   0.527 -0.0109 -0.1245  0.2812
10507W        W26641  17.298   1.059   1.184 -0.2392 -0.1474 -0.0105
10508W        W26642  13.195   9.589   1.073  0.2361 -0.0388 -0.3245
10509W        W26643   6.449  17.435   2.259 -0.1712 -0.0915 -0.0846
10510W        W26644  15.127  15.482  14.880 -0.2874 -0.0995  0.0575
10511W        W26645   5.934  17.841  15.107  0.2183  0.0987 -0.0895
10512W        W26646   2.825   1.390   3.747 -0.0945 -0.0368  0.0609
10513W        W26647  10.242   0.371  11.801 -0.3580  0.0328 -0.1384
10514W        W26648  12.991  13.353   2.871  0.2473 -0.1918 -0.0149
10515W        W26649   1.715  13.861   2.035 -0.0464  0.1271 -0.0622
10516W        W26650  12.371   9.023  12.273 -0.0207 -0.0380  0.2853
10517W        W26651  11.608  13.729   3.991  0.0842  0.0120 -0.0271
10518W        W26652   0.268   1.619  12.280 -0.1303  0.0231  0.0890
10519W        W26653   1.397   4.500  11.416 -0.2169 -0.0860  0.0344
10520W        W26654   0.420   3.708   1.975  0.0463 -0.0011  0.1330
10521W        W26655   8.373  10.035  12.330 -0.0809  0.0220  0.2863
10522W        W26656  11.399   2.404   1.246 -0.0011  0.5542 -0.2025
10523W        W26657   7.238  15.755   3.243 -0.1624  0.1051  0.5293
10524W        W26658   6.338  14.100  12.895  0.1678 -0.0687 -0.1604
10525W        W26659   3.677  18.223   3.406  0.0164 -0.0013 -0.0888
10526W        W26660   7.572   9.745  11.784 -0.3988 -0.2369 -0.2515
10527W        W26661   4.548   0.514   0.479 -0.1956  0.2014  0.0116
10528W        W26662   9.276   1.061  13.455  0.1459 -0.1995  0.4046
10529W        W26663   5.491   8.080  10.707  0.0253 -0.0416 -0.1366
10530W        W26664   7.294  10.562  15.082 -0.2084  0.1814  0.1859
10531W        W26665   5.650  17.455   2.456 -0.0782  0.3808 -0.0460
10532W        W26666  17.402   1.814   5.233 -0.1159 -0.0868 -0.1092
10533W        W26667   7.215   1.730  11.882 -0.1840  0.0668  0.2827
10534W        W26668  14.593   6.673   1.319 -0.1897 -0.0547 -0.3395
10535W        W26669  16.230   4.921  13.148 -0.0474 -0.1851 -0.1411
10536W        W26670   7.248   0.408   1.518 -0.0487 -0.1773  0.0531
10537W        W26671   4.155   4.782  14.703  0.3356 -0.1876  0.0503
10538W        W26672   1.530  12.809  12.443  0.2413  0.0697 -0.0037
10539W        W26673  12.643  15.469   2.730 -0.0665  0.0848  0.2021
10540W        W26674   8.777   9.792  14.380  0.0633  0.0020  0.0222
10541W        W26675  11.443  15.564   9.728  0.0034  0.2580 -0.3981
10542W        W26676  11.279   2.782   3.051 -0.0088  0.3972  0.0632
10543W        W26677   3.597  15.278  10.890  0.1342 -0.0514  0.0126
10544W        W26678  14.108   5.516   9.578 -0.1157 -0.1395 -0.1233
10545W        W26679   8.605   8.830  12.873  0.0354  0.2971  0.1252
10546W        W26680   9.302   8.936   1.508  0.1301 -0.2315  0.2919
10547W        W26681   1.238   7.358   2.380  0.3376 -0.0939 -0.1058
10548W        W26682  17.728   6.633   5.117 -0.4538  0.1503  0.0491
10549W        W26683   8.453   3.472  13.195  0.0280 -0.1500 -0.2936
10550W        W26684   0.166  15.407  11.582  0.1576 -0.0061 -0.1962
10551W        W26685   0.640  14.506  15.060  0.0236 -0.1589  0.1179
10552W        W26686   9.141  11.398  14.284  0.2232  0.1934  0.4863
10553W        W26687   0.733   0.558  11.164 -0.1045  0.1276 -0.0752
10554W        W26688   4.007  15.118   3.403 -0.1278  0.2338 -0.2394
10555W        W26689  15.518   8.475   1.151  0.1024 -0.4387  0.1733
10556W        W26690  18.819   2.672  12.428  0.1997  0.1286  0.0650
10557W        W26691  16.678  15.258   3.154 -0.1523 -0.0373  0.0061
10558W        W26692  10.976  11.566   1.115 -0.1086  0.0319  0.0333
10559W        W26693   8.787   9.761  12.589  0.0116  0.2518  0.0775
10560W        W26694   8.821   2.509   2.985 -0.1418 -0.0125  0.3007
10561W        W26695  14.918   7.612   4.264 -0.1093  0.0001 -0.0530
10562W        W26696   6.731  13.574  10.811 -0.2459 -0.0772  0.0176
10563W        W26697  15.766   4.760  11.947  0.1698 -0.0127  0.2875
10564W        W26698  11.731  10.381   0.646 -0.2170 -0.3232 -0.0695
10565W        W26699   5.681  15.811   5.479  0.1089 -0.3921  0.1833
10566W        W26700  15.409   6.170  10.733 -0.3302  0.0023 -0.0012
10567W        W26701  16.934   1.682   5.007 -0.2628  0.0010 -0.2358
10568W        W26702   6.312   8.137  14.484 -0.0727 -0.1325 -0.1636
10569W        W26703  11.598  12.298   3.496 -0.0708  0.0973  0.2802
10570W        W26704   7.801  12.128   9.872  0.1401 -0.0486 -0.2413
10571W        W26705  10.466  12.122  12.583 -0.0934  0.0612  0.0749
10572W        W26706   6.470   0.105  10.856  0.0417  0.0621  0.1063
10573W        W26707   7.470   3.766  13.634  0.4650 -0.1043  0.2658
10574W        W26708   5.873   7.548  12.255 -0.0793 -0.2040 -0.1397
10575W        W26709   3.730  17.962  11.956 -0.1373  0.0882 -0.0442
10576W        W26710   2.821  17.487   1.061 -0.0608 -0.1433  0.1929
10577W        W26711  17.527   6.144   5.224  0.0280  0.0336  0.0730
10578W        W26712  16.658  15.181  11.194 -0.0167  0.0683 -0.2576
10579W        W26713   9.329   6.229  15.050  0.0276  0.1893 -0.0435
10580W        W26714  18.624   7.413   3.753 -0.0295 -0.0482 -0.2283
10581W        W26715   3.011   9.140  10.976 -0.1706  0.3664  0.3990
10582W        W26716   7.503  14.752  10.432 -0.1844  0.0981  0.2663
10583W        W26717   4.363   8.016  14.291  0.2163  0.1741 -0.1277
10584W        W26718  14.948  13.293  14.342 -0.0152 -0.2207  0.1018
10585W        W26719   1.659   8.425  11.259  0.0289  0.0856  0.2768
10586W        W26720  15.090   4.027   5.569  0.1965 -0.1455  0.0637
10587W        W26721   4.578  13.003   0.471  0.1377 -0.2287 -0.1982
10588W        W26722   3.960  18.681  13.811  0.1205 -0.0037 -0.2453
10589W        W26723   5.441   2.616  11.557  0.2018 -0.2770 -0.2503
10590W        W26724   8.511  15.392   4.042 -0.1685 -0.0776  0.1056
10591W        W26725   1.130  11.904   2.605 -0.3806 -0.0819 -0.3455
10592W        W26726  15.718  16.721  12.433  0.0551  0.1169  0.0065
10593W        W26727   6.507   6.996  14.057 -0.0564 -0.1638  0.3820
10594W        W26728   0.830   7.554   0.864 -0.1869  0.2310 -0.2159
10595W        W26729   3.676   5.104   5.276 -0.1168 -0.1697 -0.1405
10596W        W26730   0.198   5.455   1.700 -0.1984  0.2023 -0.0934
10597W        W26731   6.348  18.407  11.686  0.0839 -0.2804 -0.4125
10598W        W26732   5.460   6.751   1.719 -0.1052 -0.2682 -0.0232
10599W        W26733  14.007   4.833  12.284 -0.0791  0.0824  0.2599
10600W        W26734   8.511   5.624   3.865  0.0154  0.0241 -0.1204
10601W        W26735  12.833  16.141   2.840 -0.2060  0.1096  0.2111
10602W        W26736   6.043  13.778   4.588 -0.3454  0.1399 -0.1264
10603W        W26737   1.697   6.989   3.683  0.0553 -0.1264  0.0966
10604W        W26738  12.423   6.041  11.075  0.1410 -0.0053 -0.2685
10605W        W26739   2.739  14.398   0.288  0.0086  0.2375 -0.4107
10606W        W26740   5.046   0.278  14.470  0.2717  0.1571 -0.0556
10607W        W26741   0.285   2.155   4.314 -0.2209 -0.0942 -0.0621
10608W        W26742  18.522   0.753   6.081 -0.1914 -0.1001  0.1188
10609W        W26743   7.289  11.213   2.469  0.2134 -0.0218 -0.1710
10610W        W26744   1.708   4.421  14.546  0.1122  0.3693  0.1836
10611W        W26745  12.040  15.827   4.238  0.0391 -0.0243  0.0270
10612W        W26746  13.071   1.289  10.993  0.0804  0.3081  0.2306
10613W        W26747  11.666   8.052  13.474  0.0103 -0.1723 -0.1086
10614W        W26748   9.331  10.383  11.122 -0.0439  0.0525  0.2312
10615W        W26749   6.689   7.454  15.242 -0.2414  0.1858  0.0906
10616W        W26750   1.976  18.468  15.232  0.2017 -0.2364 -0.1054
10617W        W26751   1.077  16.365  10.984 -0.1019  0.0881 -0.0173
10618W        W26752  14.119  14.359   4.580  0.1900  0.0695  0.0239
10619W        W26753   2.309  13.116   4.370 -0.0130 -0.0501 -0.1305
10620W        W26754   8.734  13.661   1.645  0.0426 -0.1018  0.0429
10621W        W26755  11.768  11.616   1.337 -0.1006 -0.1141  0.0675
10622W        W26756   1.777   5.507   5.344  0.1270 -0.4086  0.0950
10623W        W26757   6.785   3.242  12.905  0.0481 -0.1962 -0.0385
10624W        W26758  10.110  16.979  11.052  0.2121  0.0508  0.0635
10625W        W26759  11.001   7.028   1.483  0.2454  0.3379 -0.1449
10626W        W26760  12.013   6.084   1.317  0.0632 -0.2640 -0.1208
10627W        W26761   2.889   2.688  10.658 -0.2181 -0.0609 -0.3411
10628W        W26762  10.930   7.440   1.721 -0.0178 -0.1418  0.0723
10629W        W26763  14.923  14.630   4.022  0.0621  0.2766  0.0741
10630W        W26764  13.815  15.604   1.949 -0.1240  0.2610 -0.3411
10631W        W26765  15.510  15.928  15.263 -0.0054  0.0106  0.2712
10632W        W26766   6.612   4.827  13.278  0.0426  0.5183 -0.1162
10633W        W26767   1.773  18.782   3.703 -0.1430 -0.0518  0.1157
10634W        W26768   4.047  10.759  10.182 -0.3936  0.2730  0.0980
10635W        W26769  14.342  15.836   2.009 -0.1006  0.1331  0.2099
10636W        W26770   0.531  18.780   3.209 -0.1265 -0.0393  0.0913
10637W        W26771  13.165   4.666  13.852 -0.2424 -0.1852 -0.1396
10638W        W26772  16.330  15.584  12.447 -0.2137 -0.1310 -0.0954
10639W        W26773   5.052   0.641   1.344 -0.2122 -0.0839  0.2351
10640W        W26774  16.686  11.231   0.308  0.1368 -0.3649  0.0030
10641W        W26775  11.918  18.901  14.996 -0.1878 -0.1553 -0.2132
10642W        W26776  10.635   8.425  11.477  0.0339 -0.4397 -0.0390
10643W        W26777   6.878  12.449   9.861 -0.1498 -0.3333 -0.0772
10644W        W26778   5.236   2.128  10.614  0.1051  0.0176 -0.0769
10645W        W26779  11.614   1.158  15.089  0.0727  0.4663 -0.0401
10646W        W26780   8.340  17.423  14.590 -0.0950  0.0709  0.1073
10647W        W26781  17.168   8.539   2.474  0.1727 -0.1047  0.0733
10648W        W26782   2.247  14.253  15.224  0.0580  0.1040  0.1736
10649W        W26783  14.830   9.188   5.601 -0.1471  0.0530 -0.0375
10650W        W26784   5.034  11.574  10.242 -0.2560 -0.2906 -0.1009
10651W        W26785  13.887   8.059   5.894  0.2284  0.0435 -0.0682
10652W        W26786   5.307   6.497  10.708  0.1006  0.0016 -0.0169
10653W        W26787   2.424  13.664  12.745 -0.1386  0.0154  0.1865
10654W        W26788   9.086  12.928  12.271 -0.1916 -0.2662 -0.0635
10655W        W26789   1.475  13.028   5.173  0.1651  0.2409 -0.1751
10656W        W26790   1.805  14.053   4.376  0.2085  0.3144 -0.0749
10657W        W26791  17.503   9.237   0.515 -0.0866  0.2024 -0.2445
10658W        W26792   8.187  16.588   0.835 -0.2782 -0.2691 -0.1487
10659W        W26793  16.814  15.686  15.109 -0.1838 -0.1431  0.0717
10660W        W26794   6.824   3.466   1.309 -0.0412 -0.0917  0.2241
10661W        W26795   7.700  15.213  12.508  0.2422  0.1641 -0.2712
10662W        W26796   0.732   0.902  13.788 -0.1430 -0.2000 -0.0610
10663W        W26797  15.749   9.768   2.279  0.0572  0.0757  0.1212
10664W        W26798   0.105   2.929   2.760  0.0969 -0.1625  0.1872
10665W        W26799   3.750  16.146  11.557  0.0556 -0.2035 -0.1681
10666W        W26800  11.414   4.732  13.352  0.0450 -0.0438 -0.1589
10667W        W26801   9.161   2.999   0.649 -0.1230  0.2746 -0.1279
10668W        W26802   9.882   2.923  12.496  0.2253 -0.4763 -0.0393
10669W        W26803   1.405  18.470   5.190 -0.4293  0.0577 -0.0376
10670W        W26804  11.381   5.194  13.123 -0.3032 -0.0004  0.1762
10671W        W26805  17.823   3.096  10.196 -0.0087  0.1095 -0.1253
10672W        W26806   1.241   8.736  12.069 -0.2587 -0.3179  0.4317
10673W        W26807  16.588  16.155   3.645 -0.6084 -0.0991  0.3460
10674W        W26808  15.522  18.345  13.267  0.0676  0.2010 -0.0254
10675W        W26809   2.844   0.103   0.907  0.1487  0.0063 -0.3418
10676W        W26810   2.542  12.751  13.269 -0.0828 -0.1762 -0.0319
10677W        W26811   9.781   6.352   1.067 -0.2822  0.1015  0.0227
10678W        W26812   4.782   6.523   9.993 -0.0542 -0.0832 -0.0898
10679W        W26813  18.680  16.941  11.681 -0.0589  0.0972  0.3480
10680W        W26814  16.679   8.858   5.028 -0.0140  0.0971 -0.0069
10681W        W26815  10.994   1.852   1.926 -0.0891 -0.0636 -0.0842
10682W        W26816   1.204   4.725  14.617 -0.3743  0.2516 -0.0408
10683W        W26817   8.344  13.326   1.522 -0.0024  0.0349 -0.0863
10684W        W26818  17.052  14.749   3.390  0.0319  0.1242  0.2161
10685W        W26819  18.017   6.233   4.163  0.0460 -0.3919  0.0632
10686W        W26820  13.855  15.907   0.636 -0.1497 -0.1779  0.1451
10687W        W26821  13.911  18.840   1.399 -0.0669 -0.1599 -0.1913
10688W        W26822  11.026   1.119   1.602  0.1859  0.2279  0.3983
10689W        W26823   0.273   8.642   2.650  0.2977 -0.2993 -0.0046
10690W        W26824  15.218   6.048  12.174  0.1327  0.0782  0.2485
10691W        W26825  18.765  14.080  11.785 -0.1101 -0.1361  0.0346
10692W        W26826   3.071   5.231  10.521  0.3644  0.1935 -0.0234
10693W        W26827   4.658   6.473  10.754  0.2587  0.1488 -0.2557
10694W        W26828   1.500   2.514   5.253 -0.0194 -0.1646 -0.1676
10695W        W26829  14.126   2.733  14.218 -0.1723  0.0368 -0.0222
10696W        W26830  12.973  15.172   4.878 -0.3154  0.2582  0.1305
10697W        W26831   8.219   5.211  14.341  0.1755 -0.0589 -0.1932
10698W        W26832   7.720  16.477   3.469  0.1359 -0.1966  0.3499
10699W        W26833   1.682   8.095  12.132  0.2263  0.1882 -0.2124
10700W        W26834   3.561   3.714   4.715 -0.1351  0.0131  0.0085
10701W        W26835   4.900   0.889  11.331  0.0351  0.1279  0.1161
10702W        W26836  13.155   9.810  10.625 -0.0173  0.1877  0.0128
10703W        W26837   7.163   3.817   0.493 -0.0209 -0.0168  0.1327
10704W        W26838   6.992  17.568   3.354  0.0745 -0.3034 -0.0590
10705W        W26839   1.094  10.387  14.573  0.2406  0.2870 -0.1749
10706W        W26840   2.830  10.408  13.312  0.1036 -0.0555  0.0749
10707W        W26841   2.087   7.658  10.300  0.1775 -0.1079 -0.0463
10708W        W26842  10.723  12.364   3.045  0.0980 -0.1941  0.0974
10709W        W26843   8.814  17.431   1.713 -0.1905  0.0115  0.1676
10710W        W26844  17.448  15.471   2.080 -0.0621  0.0588 -0.1176
10711W        W26845  17.180  13.917  13.921 -0.0662 -0.5312 -0.0632
10712W        W26846   2.434   2.039   1.160 -0.1543 -0.1952 -0.0525
10713W        W26847  13.548  17.456   3.262  0.5662  0.2369  0.0299
10714W        W26848   9.465   1.977  13.186  0.0991 -0.1055  0.0922
10715W        W26849   2.950   3.642   5.448  0.1829  0.1021 -0.0116
10716W        W26850   7.013   1.615   5.548  0.1134  0.1376  0.1108
10717W        W26851   1.252  10.474   0.416 -0.0865 -0.0376  0.4038
10718W        W26852   0.477  11.467   3.878 -0.1384  0.1376 -0.1234
10719W        W26853   2.354   5.461  11.354  0.1078  0.0821 -0.2992
10720W        W26854  12.481   3.939   0.910 -0.1479 -0.1542 -0.1616
10721W        W26855  12.534  10.880   2.284  0.0197  0.1729 -0.0986
10722W        W26856  10.929  11.686   9.706  0.0329  0.0474  0.1296
10723W        W26857   3.848  17.585  13.482 -0.1871  0.1379  0.2597
10724W        W26858   4.930  18.077   4.651  0.1974 -0.0280 -0.0527
10725W        W26859  11.424  13.938   2.424 -0.5010 -0.2790  0.2065
10726W        W26860   1.539  15.023   2.604  0.0605 -0.2458 -0.2442
10727W        W26861  18.748  13.957   1.809 -0.0752 -0.2081 -0.1352
10728W        W26862   1.394  15.912  10.084  0.0400 -0.0162 -0.1213
10729W        W26863  12.525   2.735  11.885  0.2917 -0.1285 -0.2465
10730W        W26864   9.179  15.441  13.886  0.1158  0.0625  0.2675
10731W        W26865   9.511  16.299   0.731  0.3439 -0.1587  0.1810
10732W        W26866  18.092   2.434  14.380  0.1078 -0.3318 -0.1433
10733W        W26867  11.305   9.804   4.837  0.1609 -0.2323 -0.3386
10734W        W26868   8.099   6.358   0.351 -0.0950  0.0066 -0.2854
10735W        W26869   5.893  16.418   1.422 -0.3123 -0.0106 -0.2759
10736W        W26870   5.925   4.803  11.555  0.1008  0.2557 -0.1203
10737W        W26871  16.795  12.505   3.200  0.1867  0.0834  0.0485
10738W        W26872   3.078  17.658   3.833 -0.3056  0.1113  0.3729
10739W        W26873  10.931  17.461  10.841 -0.0687  0.2106 -0.0335
10740W        W26874  13.699   9.289   1.856  0.0679 -0.1630  0.0327
10741W        W26875  18.180   9.515   1.716  0.0918  0.0345 -0.2509
10742W        W26876  10.993   7.158  12.162  0.0452  0.2143 -0.3130
10743W        W26877   3.298   9.366  14.299  0.2343 -0.2436  0.2165
10744W        W26878  16.449   8.608   3.697 -0.0898  0.0867 -0.0929
10745W        W26879   9.694  13.562  15.163  0.1077 -0.0295  0.1379
10746W        W26880   8.623  16.791   0.789 -0.1197  0.0741  0.0559
10747W        W26881  18.658  14.688  12.792  0.0630  0.3683 -0.4173
10748W        W26882   6.507  15.394   0.922 -0.0411  0.0113  0.0406
10749W        W26883   9.790   4.089   5.211  0.2153 -0.2399  0.1236
10750W        W26884  12.513   1.826  11.634 -0.3343  0.0853  0.1325
10751W        W26885  15.865   8.849  10.518 -0.1292  0.2741  0.1496
10752W        W26886  11.025  14.720   5.565 -0.0470 -0.0731  0.3899
10753W        W26887   8.483   2.046   2.961 -0.2398 -0.2747 -0.4873
10754W        W26888   5.018   6.231   4.001 -0.0525 -0.0969  0.2053
10755W        W26889   5.372  14.347  13.959  0.1471 -0.3164  0.0922
10756W        W26890   1.500  13.363  14.423  0.2827 -0.0799  0.2915
10757W        W26891  11.692  12.563  14.395 -0.0822  0.3834  0.0481
10758W        W26892  13.053  13.133  10.216 -0.1799  0.0525 -0.3574
10759W        W26893   3.636   2.425  11.133 -0.3604 -0.3792  0.1254
10760W        W26894   5.923   6.498   2.481 -0.0114  0.2821 -0.0100
10761W        W26895   2.975  13.893   2.221 -0.0086  0.0096  0.1440
10762W        W26896  17.499  13.379  11.885  0.0069  0.2513  0.0728
10763W        W26897   2.700  12.874   4.516 -0.0094 -0.0117  0.2438
10764W        W26898  13.828  14.902  10.723 -0.0054 -0.0075 -0.2601
10765W        W26899   8.217  13.317  13.565 -0.1483  0.0598 -0.2458
10766W        W26900   4.313  11.409   0.465 -0.1274  0.2448  0.0696
10767W        W26901   4.223  11.086  10.534  0.1390 -0.2810 -0.1871
10768W        W26902   0.707   4.723  11.637  0.1410 -0.2205 -0.1068
10769W        W26903   5.816   8.535   5.496 -0.2674 -0.0257 -0.1511
10770W        W26904   6.799  14.120  12.776 -0.1164  0.1817 -0.1824
10771W        W26905   3.946  13.806   4.818 -0.4582 -0.1484  0.0950
10772W        W26906   2.021  18.672  12.817  0.1450 -0.0320  0.4100
10773W        W26907  18.104  12.740   1.902 -0.1922 -0.2782 -0.5870
10774W        W26908   3.895   3.191  11.260  0.2343 -0.1421  0.0240
10775W        W26909  19.005  14.619   2.112  0.2969  0.1060  0.1342
10776W        W26910   7.687  13.723   1.925  0.0645 -0.1014  0.0051
10777W        W26911  15.295  14.580   0.402  0.0462 -0.3811  0.0671
10778W        W26912   2.570   1.546  12.875  0.0811  0.1924 -0.1247
10779W        W26913   6.204  13.426  14.750 -0.1049  0.0069  0.2068
10780W        W26914   0.538   9.837  14.044  0.1360  0.3014 -0.2136
10781W        W26915   8.106  12.758  13.340  0.1369  0.0563  0.0432
10782W        W26916   8.827  11.898  11.833 -0.0747  0.0890 -0.1049
10783W        W26917   3.795  10.456   5.919 -0.1215 -0.1626 -0.0336
10784W        W26918   5.384   4.307   1.450  0.1007 -0.1490 -0.0348
10785W        W26919  10.992  17.961  10.829  0.1440  0.0915  0.1211
10786W        W26920  11.495   3.704  12.281  0.2949  0.0432 -0.3855
10787W        W26921   5.099  10.911  13.342  0.1533 -0.1617 -0.3431
10788W        W26922   1.187  15.822   0.811  0.3242  0.0046 -0.1196
10789W        W26923  13.158   1.261   1.334 -0.0811  0.0483  0.0993
10790W        W26924  16.382   6.071   2.231  0.1332 -0.1458  0.1170
10791W        W26925  12.498  15.090  11.909 -0.0386 -0.1995 -0.0924
10792W        W26926  14.139   5.426   3.815 -0.1643 -0.1476  0.2592
10793W        W26927   0.368  10.045   1.622 -0.2244 -0.1995  0.1877
10794W        W26928  18.758  11.647  11.555 -0.1449 -0.0613  0.0927
10795W        W26929   6.879   9.734  14.912  0.1948  0.0409 -0.3405
10796W        W26930  15.577  10.349   4.071  0.0071 -0.3316 -0.0806
10797W        W26931  12.639  13.802   5.661 -0.2649 -0.2082  0.2731
10798W        W26932  14.491   2.262   0.416  0.2738 -0.3372 -0.2825
10799W        W26933  16.909   3.376   2.838 -0.0672  0.0222  0.0822
10800W        W26934  13.214   5.830   9.799  0.1176 -0.1550 -0.4098
10801W        W26935   2.321   4.370  13.823 -0.1374  0.1074 -0.0925
10802W        W26936   0.491  16.526  15.147  0.1897  0.1896 -0.0886
10803W        W26937  10.639   7.226   3.305 -0.3014  0.2575  0.1896
10804W        W26938  16.840   9.927  14.885  0.1467 -0.0293 -0.2706
10805W        W26939  12.108   1.777   0.991 -0.0784 -0.2724  0.0877
10806W        W26940  16.838   4.662   5.384 -0.0208 -0.2146  0.0368
10807W        W26941  11.879  13.684  15.067 -0.1175  0.1157  0.3393
10808W        W26942   9.183   5.285   0.529 -0.0007  0.4332 -0.1586
10809W        W26943  16.566  12.414   2.636  0.0234  0.1322 -0.0299
10810W        W26944   3.162  10.847  10.683  0.1292  0.1258 -0.0584
10811W        W26945   8.983  13.015  11.661 -0.0268  0.4396  0.0757
10812W        W26946  12.194  18.563   2.223  0.1323 -0.1012  0.3839
10813W        W26947  19.002   3.482   2.695  0.1291  0.0621  0.0540
10814W        W26948  12.679   7.271   2.278  0.0305 -0.1443  0.3053
10815W        W26949   2.238  12.143   4.410 -0.1556 -0.2571  0.0625
10816W        W26950   7.069  14.348  13.503 -0.0465 -0.1468 -0.3455
10817W        W26951  18.042  15.934   0.252  0.0574 -0.0138  0.0778
10818W        W26952  10.986   5.826  10.406 -0.3333  0.2386  0.0970
10819W        W26953   7.652  11.402   3.331  0.1444  0.2157  0.1359
10820W        W26954   6.583  12.786  10.231 -0.1355 -0.2538 -0.2365
10821W        W26955   0.971   6.228  11.700 -0.2405  0.0712  0.0239
10822W        W26956  13.472  16.853  11.004 -0.2435  0.1488  0.0167
10823W        W26957   0.633   7.817   1.901 -0.1429 -0.0835 -0.0798
10824W        W26958   7.139  10.342  12.584  0.2951 -0.1534 -0.0104
10825W        W26959  18.638   0.598   1.466  0.0107  0.0881 -0.1161
10826W        W26960   7.696  16.165  12.192  0.0907  0.1006  0.0604
10827W        W26961   1.554  17.890   1.202 -0.1089 -0.0185 -0.0550
10828W        W26962   1.332   4.548  13.205  0.2533  0.1351 -0.1995
10829W        W26963  10.489   2.401  11.606  0.1703 -0.5504 -0.1559
10830W        W26964   4.684   4.417   0.842  0.0535  0.0791 -0.1105
10831W        W26965   6.051   0.870   3.537  0.1406 -0.0117 -0.1526
10832W        W26966   6.458  10.800   0.185 -0.0077  0.1494 -0.1489
10833W        W26967  18.387   5.330   3.251  0.0505 -0.3316  0.3665
10834W        W26968   1.182   6.291   3.192 -0.1910  0.4567  0.2790
10835W        W26969  15.093  13.878   0.586  0.0330  0.0282 -0.1505
10836W        W26970  17.580   0.175   0.558  0.0813 -0.2390 -0.1214
10837W        W26971   3.873   1.625   1.882  0.0115 -0.0313 -0.0585
10838W        W26972  16.670  15.812   2.557  0.4196  0.0802  0.1288
10839W        W26973  15.658   2.274  11.051 -0.0651  0.0377 -0.0419
10840W        W26974   7.942   0.010  10.585  0.1652 -0.0742  0.0933
10841W        W26975  17.782  10.266   4.862 -0.2064 -0.0209 -0.1559
10842W        W26976   6.658   0.167  15.029  0.1328 -0.2173  0.2447
10843W        W26977   6.155  14.804   0.957  0.1255 -0.0370 -0.1989
10844W        W26978   1.869  12.007  12.835  0.2948  0.1647  0.0045
10845W        W26979   8.651  11.048   2.855 -0.0470  0.3706  0.0144
10846W        W26980  13.725  13.939  13.902 -0.1317  0.2707 -0.1663
10847W        W26981   4.875   4.996   4.838 -0.2409 -0.0848 -0.2165
10848W        W26982  15.849  17.752   5.309 -0.0322 -0.0347  0.2282
10849W        W26983  16.422   8.572   0.330  0.0393  0.0028  0.0731
10850W        W26984   4.266   0.817  12.850 -0.0383 -0.0116 -0.0215
10851W        W26985   5.866  16.253   3.639  0.1402 -0.0167  0.1085
10852W        W26986   0.768  16.227  13.259  0.2290 -0.1851  0.0729
10853W        W26987   7.209  15.904  13.140 -0.1684 -0.0790 -0.1302
10854W        W26988  14.563   5.382  11.916 -0.2115  0.3222 -0.2666
10855W        W26989   0.345   9.421   0.581 -0.2970 -0.0019 -0.0613
10856W        W26990  10.628  14.774  11.503 -0.1103 -0.0999 -0.1029
10857W        W26991   1.953   6.758   4.637 -0.2028  0.3149  0.2996
10858W        W26992  18.084   1.488   3.342  0.2810  0.1930  0.0068
10859W        W26993   6.742  17.569   0.046  0.2779  0.0056 -0.0543
10860W        W26994  13.766  10.312   9.583  0.1583  0.2442  0.0093
10861W        W26995   3.195  10.790   3.180  0.1111 -0.0907  0.1697
10862W        W26996  10.039  10.635  11.503 -0.4082  0.0758  0.0232
10863W        W26997   9.453   1.402   0.026 -0.0651 -0.2415  0.1942
10864W        W26998  10.178  16.150  14.871  0.0916  0.3206  0.0955
10865W        W26999  15.931  16.138  14.026 -0.4083 -0.2543 -0.2541
10866W        W27000  14.987  16.010   2.699  0.3951 -0.0048  0.0766
10867W        W27001   6.631   8.232   4.424 -0.1143 -0.1103 -0.2836
10868W        W27002   8.128   7.651   2.068 -0.0814 -0.2290 -0.0117
10869W        W27003   0.965   0.591   4.543  0.0943  0.2072  0.1241
10870W        W27004   9.799   5.891   2.470 -0.0078 -0.1835  0.3154
10871W        W27005  18.138   7.336   3.505 -0.1023  0.1836 -0.3372
10872W        W27006  13.900   1.063  15.164 -0.1008 -0.1407  0.0875
10873W        W27007  15.686  15.978   0.802  0.1981  0.0532 -0.1880
10874W        W27008  11.641  12.115  13.848 -0.0382 -0.0976 -0.0595
10875W        W27009   7.185  15.606   4.042 -0.3623  0.0597 -0.3189
10876W        W27010  12.868  10.588  13.032  0.2320 -0.3046 -0.2838
10877W        W27011   7.806  11.689  10.104 -0.2126  0.1506  0.2874
10878W        W27012  10.487   4.641  11.354  0.1533  0.2437  0.0975
10879W        W27013   2.668  12.025  10.730  0.1511 -0.2048  0.0300
10880W        W27014  18.513  13.058   2.924 -0.0152 -0.0050 -0.0297
10881W        W27015  11.171   5.635  12.228  0.0214 -0.1053  0.1512
10882W        W27016  18.100   6.255   5.071 -0.2439  0.0304  0.4142
10883W        W27017   9.991   8.409   0.895 -0.0206 -0.1036  0.0140
10884W        W27018  10.885  12.643   2.706  0.1637 -0.3410 -0.0123
10885W        W27019  12.969   0.398  13.411 -0.3725  0.2390 -0.1935
10886W        W27020  18.543  14.776  14.451  0.1363  0.2894  0.0162
10887W        W27021   9.721   9.096   1.941  0.0598  0.2940 -0.3596
10888W        W27022   2.226   9.179   2.142 -0.0321  0.2168 -0.2354
10889W        W27023  10.291   2.251  14.489  0.0383  0.0355 -0.2775
10890W        W27024   3.657  18.577   4.752 -0.1140  0.0751  0.0573
10891W        W27025  10.705  12.935  11.526  0.2388  0.0373 -0.0955
10892W        W27026  15.624  14.983   1.661  0.0407  0.0161  0.0719
10893W        W27027  17.683  16.933  11.160 -0.3674 -0.2339  0.2281
10894W        W27028  10.066   4.638  11.776 -0.1085 -0.0015 -0.0197
10895W        W27029  12.114   0.052   0.157  0.1594  0.0177  0.1772
10896W        W27030  12.717   9.754   5.028 -0.0609 -0.0262  0.0217
10897W        W27031  16.742  17.922  12.424  0.0846 -0.0626 -0.1302
10898W        W27032  18.110   5.747   4.930 -0.1017 -0.2336 -0.0406
10899W        W27033  15.264  14.660   3.661  0.1092 -0.1447 -0.0164
10900W        W27034   0.390   2.049  10.876 -0.0723 -0.2041 -0.2242
10901W        W27035   4.962  17.084   3.432 -0.0744  0.0251  0.0557
10902W        W27036   0.946   3.650   3.501  0.0620 -0.3139 -0.1648
10903W        W27037   5.068  12.850  12.244 -0.0007 -0.2275 -0.0967
10904W        W27038  11.897  12.977   4.217  0.3368  0.1415 -0.4495
10905W        W27039  12.152  16.728  13.611  0.3681 -0.2011  0.0670
10906W        W27040  14.549   4.511   1.574  0.0281  0.3810  0.1838
10907W        W27041  17.886   9.926   5.712 -0.2451  0.4637  0.1293
10908W        W27042   9.243  18.460  11.686  0.2351 -0.2929 -0.0486
10909W        W27043  17.375   5.692  11.894 -0.0978  0.0367  0.0830
10910W        W27044   3.046  10.066  13.639  0.2346 -0.2056  0.0301
10911W        W27045   4.815   2.465   1.604  0.1402  0.2870  0.1327
10912W        W27046   8.680   7.334   2.116  0.0414  0.2860  0.2090
10913W        W27047  16.298   0.545  13.389  0.1753  0.4845  0.1046
10914W        W27048   2.580   8.311   1.525 -0.0663 -0.0137 -0.0308
10915W        W27049  13.572  13.682  12.055 -0.4181 -0.0056 -0.0052
10916W        W27050  13.494  14.322   3.537 -0.2126  0.0164 -0.2612
10917W        W27051  16.512  15.279  11.750  0.0238  0.0918 -0.2254
10918W        W27052   5.853  11.625   0.420 -0.0333  0.0904  0.0271
10919W        W27053  17.656  16.274  13.457 -0.2807  0.0014 -0.0894
10920W        W27054  15.729   0.473  11.801 -0.1063 -0.6421 -0.0309
10921W        W27055  18.242   7.796  14.870  0.0704  0.2688  0.0843
10922W        W27056   3.032  13.501   2.648  0.0865 -0.2802 -0.2597
10923W        W27057  11.261  14.728  12.677  0.0140 -0.1682 -0.2322
10924W        W27058   3.621   6.277  11.071  0.0046  0.2031  0.0790
10925W        W27059   4.321   7.100   1.268  0.1558 -0.1776 -0.2360
10926W        W27060  15.328   6.846   1.360 -0.0147 -0.0064  0.0270
10927W        W27061   7.782   5.117  13.457 -0.0469  0.2843  0.2301
10928W        W27062   2.516  16.703  11.282 -0.1411 -0.0979 -0.1790
10929W        W27063   8.559   4.083  11.858  0.1482 -0.1139 -0.2281
10930W        W27064  17.745   6.751   2.777 -0.2206 -0.2597 -0.0679
10931W        W27065   1.640   3.611  14.853 -0.0690  0.1289 -0.1466
10932W        W27066  13.434   8.533   3.910  0.2023  0.0537 -0.0936
10933W        W27067  12.645  12.178   4.625 -0.2948 -0.3999 -0.2065
10934W        W27068   8.369   8.196  13.087  0.0059  0.0159 -0.1578
10935W        W27069  18.555  11.444   5.224 -0.1393 -0.1146  0.0624
10936W        W27070   9.578  16.173  11.296  0.0368  0.1544  0.1168
10937W        W27071   2.901   5.252   4.866 -0.1114 -0.0574 -0.0962
10938W        W27072  13.923  14.804   4.358 -0.1152  0.1146  0.0178
10939W        W27073  17.931   9.868  12.926  0.0103  0.0491 -0.0264
10940W        W27074  10.513   9.369  10.156  0.0136  0.1033  0.0554
10941W        W27075  10.732   1.800  11.125 -0.2112 -0.1332  0.1682
10942W        W27076  16.486  16.087  12.764 -0.0659 -0.1439  0.1420
10943W        W27077   8.338   1.350  15.148  0.1959  0.0306  0.0080
10944W        W27078   5.985  15.538  13.163  0.2009  0.2358 -0.1982
10945W        W27079   8.747   9.255   9.492  0.2474 -0.0313 -0.1877
10946W        W27080   5.533  14.751   3.600  0.1658 -0.0019 -0.3605
10947W        W27081  11.512   2.577   4.843 -0.0253  0.0906 -0.0711
10948W        W27082   5.803   9.619   2.802 -0.0690  0.0868  0.0105
10949W        W27083   1.553  11.110   2.143  0.2710 -0.1358  0.2073
10950W        W27084  16.254  12.515   0.776 -0.2415 -0.2723  0.3666
10951W        W27085   8.234   3.824  12.904 -0.2387 -0.1586  0.0285
10952W        W27086   8.243   2.348   3.325 -0.0105  0.0528  0.0317
10953W        W27087   9.242  13.985   0.474  0.2350  0.2944 -0.2475
10954W        W27088  14.537   1.413  14.435  0.2700  0.1244 -0.1013
10955W        W27089   4.605  17.566   0.463 -0.2720  0.1612 -0.0424
10956W        W27090   0.674  11.915   4.120 -0.1437 -0.0004 -0.0304
10957W        W27091   2.877   1.518  11.817 -0.1371  0.0362  0.1153
10958W        W27092  17.416   5.652   3.938 -0.1412 -0.0045  0.1749
10959W        W27093  11.927  17.246  13.526  0.1902 -0.0044 -0.3357
10960W        W27094   2.759  10.697  11.113 -0.0727 -0.1557 -0.0311
10961W        W27095   4.085  16.020  12.621 -0.0849 -0.0900  0.0185
10962W        W27096   6.729  16.552   1.789  0.0982 -0.0120  0.1369
10963W        W27097   6.411  15.904   0.917 -0.2197 -0.0194 -0.1421
10964W        W27098   8.155  12.609  14.774 -0.1686  0.0404  0.1154
10965W        W27099   9.067   6.309   0.138 -0.0020 -0.1945 -0.1821
10966W        W27100   2.776   8.825  14.778 -0.1236  0.0092 -0.1524
10967W        W27101  18.771   7.277  13.456 -0.0628  0.3042  0.2220
10968W        W27102   5.743  15.909   4.443 -0.0028  0.0027  0.2965
10969W        W27103  10.040   0.336   2.976 -0.2795 -0.0233  0.3240
10970W        W27104  13.448  12.201  10.493  0.2587 -0.0233 -0.0784
10971W        W27105  17.406  17.876   1.601 -0.0002  0.0293 -0.0341
10972W        W27106   8.802  15.509   2.085 -0.1687  0.2558 -0.0643
10973W        W27107  10.319  14.009  11.276  0.2352 -0.0528 -0.1215
10974W        W27108   0.115  17.928   4.169 -0.0379 -0.1392 -0.1312
10975W        W27109  14.783   6.988   2.583  0.0314 -0.2955  0.2272
10976W        W27110   0.221   7.667  12.346 -0.0134  0.0576  0.1186
10977W        W27111   5.957  17.602   1.827 -0.1568 -0.0056  0.0824
10978W        W27112   1.525   9.135   0.829  0.3980  0.0617  0.1970
10979W        W27113  10.707  13.630  12.935  0.1059 -0.0689 -0.1423
10980W        W27114  11.632   6.791   4.491 -0.2277 -0.0099 -0.2758
10981W        W27115   4.367  15.448   5.272 -0.0498  0.2149  0.2005
10982W        W27116   5.185   2.802   0.850  0.2145  0.0973 -0.0273
10983W        W27117  13.936   0.118   3.513 -0.2544  0.4672  0.0410
10984W        W27118   4.153   9.540   3.103  0.0601  0.0628  0.1144
10985W        W27119   2.136   0.781  14.437  0.2194 -0.1524  0.3642
10986W        W27120   9.862  16.198   3.549 -0.1697 -0.0813  0.1943
10987W        W27121   6.121  14.544  14.193 -0.0406  0.0228 -0.0339
10988W        W27122  12.580  13.424   9.590 -0.0952  0.0704 -0.0294
10989W        W27123  12.045  12.804   1.142  0.0087  0.1436 -0.0012
10990W        W27124  13.599  12.160   2.874  0.1522 -0.1850  0.1436
10991W        W27125  15.289  12.043   1.158 -0.3147  0.2528 -0.0206
10992W        W27126   3.474   9.236   4.194 -0.0083 -0.3630  0.1638
10993W        W27127  16.884  10.134  12.786  0.1217  0.0227 -0.0001
10994W        W27128   1.676  15.592  12.388 -0.1360 -0.0349  0.0966
10995W        W27129   8.169   4.347  11.533 -0.2125  0.0345 -0.2420
10996W        W27130   0.807  11.885  12.419  0.0150 -0.1448 -0.1474
10997W        W27131  12.990   2.884   0.896  0.1394  0.0871  0.0257
10998W        W27132   6.642  17.948  12.582 -0.0624 -0.0504 -0.3626
10999W        W27133   4.160   5.198   0.303 -0.3125 -0.0251  0.0253
11000W        W27134   8.321   9.230   1.763 -0.1810  0.0063  0.1050
11001W        W27135  12.021  16.559  10.484  0.2373 -0.1454 -0.2082
11002W        W27136   1.301  15.938  12.366  0.2228  0.0571  0.3851
11003W        W27137  10.514   8.947   5.008 -0.0922 -0.2385 -0.1711
11004W        W27138  10.889   4.506   2.175 -0.1893 -0.2533  0.1028
11005W        W27139  16.555   2.073  13.424 -0.0861  0.3984 -0.0807
11006W        W27140  15.744  14.480   2.972  0.0529 -0.2580  0.1235
11007W        W27141   2.494  10.321  12.973  0.2645  0.0167 -0.1274
11008W        W27142   0.522  10.853  13.976 -0.0227  0.2731 -0.1044
11009W        W27143  18.792  12.417  12.305 -0.0934  0.2748  0.1625
11010W        W27144   5.080   3.863   2.218 -0.1776  0.2351 -0.2074
11011W        W27145   9.476  13.638   3.602  0.1420 -0.1528  0.1650
11012W        W27146  11.578  14.559   2.522 -0.1139  0.0063  0.0789
11013W        W27147   0.869  12.666   4.129  0.1813  0.2562  0.0230
11014W        W27148   1.670   0.931   0.627  0.0198  0.4022 -0.1461
11015W        W27149   1.360  16.423  14.017 -0.0732 -0.2229 -0.0466
11016W        W27150  13.308  12.534   9.044  0.1818  0.2343 -0.0572
11017W        W27151   3.650  15.337   4.052 -0.4463 -0.1334 -0.0451
11018W        W27152  15.363   5.768   0.543 -0.0446  0.1913 -0.0142
11019W        W27153   0.327   5.457  14.958 -0.1718 -0.0154 -0.0895
11020W        W27154  14.568   0.386   4.655 -0.1094  0.0720  0.2918
11021W        W27155   0.367  16.873  14.814  0.1390 -0.1246  0.0689
11022W        W27156   0.532  17.940   3.324 -0.1235  0.1590  0.0039
11023W        W27157  18.857  13.742   4.406 -0.1320 -0.1437 -0.5551
11024W        W27158  11.863  11.726  15.287  0.2912 -0.0983 -0.0941
11025W        W27159  16.586  10.025   0.787 -0.0654 -0.0438 -0.1711
11026W        W27160   2.936   0.848   3.009  0.1028  0.0996  0.0758
11027W        W27161  13.828   5.327   4.711 -0.1586  0.1865  0.3636
11028W        W27162   0.927  18.817   3.599 -0.4492  0.1135 -0.0535
11029W        W27163   1.380   1.893   2.958 -0.1038 -0.2531 -0.2601
11030W        W27164  15.552  15.449   1.979  0.2376 -0.0446  0.5439
11031W        W27165   8.882  13.679  12.440  0.1839 -0.1152 -0.2860
11032W        W27166   3.174   0.217   1.705  0.0713  0.1822 -0.0637
11033W        W27167   5.418   7.742  12.352 -0.2633 -0.0601 -0.1882
11034W        W27168  12.063  17.776   5.674 -0.0277 -0.1599 -0.1673
11035W        W27169   5.112  17.941   0.324  0.4324  0.0675 -0.2149
11036W        W27170   4.216  18.251   0.263 -0.1312 -0.1992  0.1188
11037W        W27171  16.163  11.074   2.393  0.0191 -0.0398  0.0636
11038W        W27172   0.128  16.337  11.600  0.0669  0.2724  0.1580
11039W        W27173  18.984   8.258  12.944  0.1206  0.0611 -0.0763
11040W        W27174   4.628   0.120   4.909 -0.1670  0.1749 -0.2236
11041W        W27175  14.039   4.163   2.399 -0.1698  0.0401  0.1762
11042W        W27176  11.710  14.275  12.939  0.0314 -0.0059 -0.1043
11043W        W27177   7.253  16.697   3.081 -0.2612  0.0862 -0.0628
11044W        W27178  13.093   1.689   0.979  0.1014 -0.0637 -0.3738
11045W        W27179   6.464   2.805   0.870  0.0532  0.0848 -0.0933
11046W        W27180  17.988  13.245   0.755 -0.1469  0.4091 -0.3089
11047W        W27181   1.046  10.937   1.727  0.0970 -0.3134  0.1352
11048W        W27182  10.272   9.703  13.784  0.1466 -0.0355 -0.0927
11049W        W27183  12.867  18.442   3.106  0.0636  0.2442  0.1757
11050W        W27184  14.464  15.400   4.228  0.1152  0.1235 -0.1141
11051W        W27185  13.196  17.327   1.210 -0.3490 -0.0271  0.0088
11052W        W27186   3.654  14.428  13.356  0.0411 -0.0666  0.2577
11053W        W27187   0.670   3.838  13.807  0.4538 -0.0004 -0.0361
11054W        W27188   9.181   6.967   0.789  0.3505  0.2488 -0.4724
11055W        W27189   1.770   7.998   5.490 -0.2263 -0.0466 -0.0562
11056W        W27190   7.407  14.399   3.362  0.0107  0.3877  0.1110
11057W        W27191  12.194  15.083  11.435 -0.1243 -0.0530 -0.2043
11058W        W27192  10.626   1.780  13.145 -0.1346  0.2833 -0.2021
11059W        W27193   7.085   8.915   1.256  0.0641 -0.0929 -0.1916
11060W        W27194  13.518   6.910   4.863  0.1100 -0.5577  0.1828
11061W        W27195   5.247   8.105   0.233 -0.0630 -0.0472  0.1137
11062W        W27196   6.437   6.455  10.217  0.0120  0.0133  0.2272
11063W        W27197   8.306   9.141  12.095 -0.0023  0.0603  0.0057
11064W        W27198  18.134   3.728  12.551 -0.3265 -0.1058 -0.0473
11065W        W27199   7.738   0.457   1.416  0.1781  0.1510 -0.0228
11066W        W27200  12.871   7.928  13.999  0.0088 -0.1378 -0.1141
11067W        W27201  10.239   9.797  14.418  0.0223 -0.4093 -0.0933
11068W        W27202   5.629   2.740   5.058  0.0861 -0.1181 -0.2482
11069W        W27203  17.248  14.138  13.193 -0.0263 -0.1470 -0.0694
11070W        W27204   1.457  14.195   1.052  0.4434  0.3600 -0.1425
11071W        W27205   5.453  14.536  12.909  0.0823 -0.1023  0.0532
11072W        W27206   2.055  17.952   4.161 -0.0569  0.1192 -0.0467
11073W        W27207   3.101   3.186  11.677 -0.0765 -0.1902 -0.2184
11074W        W27208   7.130   6.498   3.019 -0.2775 -0.0570  0.0368
11075W        W27209  12.378  11.358   5.036  0.0468  0.0175 -0.0860
11076W        W27210   1.903  15.204   0.802 -0.0943  0.0484 -0.2953
11077W        W27211  10.110   6.363  11.191  0.2345  0.0764  0.0569
11078W        W27212  14.133   3.499  12.674 -0.2235 -0.3718 -0.1698
11079W        W27213   7.802  15.210  14.756  0.0391 -0.2581  0.0427
11080W        W27214   0.980   6.869  14.488 -0.2857  0.2678  0.0220
11081W        W27215   1.134   1.686   0.378 -0.1375 -0.2044 -0.0185
11082W        W27216   9.614   7.127  11.451 -0.2467 -0.2946  0.2285
11083W        W27217   1.776   5.701   2.626  0.0392  0.0545 -0.0755
11084W        W27218   0.518   2.266  14.343  0.0446  0.0588 -0.0974
11085W        W27219   8.609   6.754  14.729  0.2439 -0.2831  0.0545
11086W        W27220  17.448  11.233  13.206  0.1749 -0.2466 -0.2708
11087W        W27221  12.471  15.198  11.043 -0.3303 -0.1414 -0.0168
11088W        W27222  18.943   8.752   4.758 -0.1252  0.4235  0.3398
11089W        W27223   2.440   6.674   4.092  0.0159 -0.0689  0.0438
11090W        W27224   2.690  14.686  10.066  0.0878 -0.1535  0.2295
11091W        W27225   5.359   5.042   2.088 -0.0543  0.1695 -0.1951
11092W        W27226  15.169   5.665  14.513  0.0938 -0.2601  0.0288
11093W        W27227   4.114  17.811  11.211 -0.0190  0.2113  0.1779
11094W        W27228  16.301   6.611   0.226 -0.1515  0.1101  0.0019
11095W        W27229   5.831  18.994   3.016 -0.2221 -0.2572  0.1132
11096W        W27230   0.616  18.846   4.030  0.0582  0.0058 -0.0704
11097W        W27231   6.841   2.032  14.480  0.2402 -0.1764  0.3301
11098W        W27232  10.670   3.168  12.643 -0.0809  0.2257 -0.2028
11099W        W27233  13.926  12.681   4.241 -0.1039  0.3664 -0.1889
11100W        W27234   8.347   1.109  14.409 -0.1375 -0.0217  0.2564
11101W        W27235  18.867   4.853   5.022 -0.0260 -0.2238  0.1064
11102W        W27236   0.880  13.391  15.000  0.0779 -0.1137  0.1812
11103W        W27237  17.807   7.811   4.562  0.1105 -0.0419 -0.0456
11104W        W27238   6.338  10.918   4.559  0.1844 -0.1614  0.4587
11105W        W27239  14.941   1.408  14.728 -0.2676 -0.0312  0.0125
11106W        W27240   4.643   7.788  14.739  0.0934 -0.1535  0.0256
11107W        W27241   5.670   5.308   3.150  0.1688 -0.1734 -0.0241
11108W        W27242  11.175  12.493   0.749  0.5623 -0.0910  0.1383
11109W        W27243   6.992   4.499  13.222 -0.1345  0.0061  0.3475
11110W        W27244  15.105  10.081  11.936  0.1306 -0.0843  0.0400
11111W        W27245   4.362  13.061   3.368  0.0807 -0.0297  0.1423
11112W        W27246  10.957   8.046   4.251 -0.5211 -0.1382 -0.0705
11113W        W27247  11.118   9.332  12.854 -0.4185  0.0239 -0.0146
11114W        W27248  14.457   2.917  13.228  0.0132 -0.0691 -0.0206
11115W        W27249   5.495  15.074   4.006 -0.0411 -0.3625 -0.2204
11116W        W27250  15.368  18.951   4.555 -0.1156 -0.0882  0.3222
11117W        W27251  12.891  13.145  14.822 -0.0120  0.0348  0.2394
11118W        W27252  14.611  13.323  11.318  0.0884  0.1616  0.1286
11119W        W27253   4.487   2.907   4.147  0.2972  0.2528 -0.0344
11120W        W27254  17.924  13.568  15.055 -0.0406 -0.1469  0.1488
11121W        W27255  18.313  11.259  13.582  0.0339  0.0081  0.3845
11122W        W27256   9.792  11.713   1.134  0.1219 -0.1577 -0.1691
11123W        W27257  12.656  18.908  11.073  0.2561 -0.1374  0.0332
11124W        W27258  13.452  12.776  13.181 -0.3789 -0.2131 -0.1776
11125W        W27259   0.755  14.703  14.536 -0.2065  0.1147  0.4222
11126W        W27260  12.908   7.367   3.923 -0.3835 -0.0732  0.0792
11127W        W27261   9.575  10.493  14.063 -0.3533 -0.0156  0.2001
11128W        W27262   9.727   1.971  14.199  0.1562 -0.0042  0.0331
11129W        W27263   4.802   1.276  14.205  0.0903 -0.0862 -0.0441
11130W        W27264  18.846   2.264   4.103 -0.0989 -0.0669 -0.5087
11131W        W27265  11.326   1.404  12.550  0.1445  0.0398 -0.3334
11132W        W27266   4.314  17.962   1.425 -0.0398 -0.1973  0.0370
11133W        W27267  14.242  15.141  11.679  0.0126  0.0758 -0.4635
11134W        W27268   3.897   8.862  13.864  0.0095  0.1036  0.1548
11135W        W27269  15.647  16.880  14.129  0.1309  0.0781 -0.0456
11136W        W27270  16.171   6.114  11.676 -0.0020  0.1576 -0.0434
11137W        W27271   0.500  17.417   2.036  0.0432 -0.0404 -0.1020
11138W        W27272  18.606   6.081  13.443 -0.0131  0.1613 -0.0318
11139W        W27273   1.029   6.419   1.105  0.5121 -0.3951 -0.1710
11140W        W27274   7.187  11.586  13.966  0.0715  0.1229  0.0196
11141W        W27275   9.415  12.371   3.493 -0.1674 -0.1059  0.1110
11142W        W27276   5.150   4.561   3.781  0.1948 -0.2301  0.3812
11143W        W27277  12.719   3.460   4.960 -0.1888  0.2668 -0.0181
11144W        W27278  16.701   2.922   3.887  0.1896  0.0504 -0.2786
11145W        W27279   3.825  12.520  13.570 -0.1400  0.0855  0.1035
11146W        W27280   9.749   9.787  11.388 -0.1952 -0.1309 -0.0899
11147W        W27281  15.651   8.063  12.028  0.0266  0.0554  0.0057
11148W        W27282  12.041  11.473  13.599 -0.2613  0.1333 -0.1528
11149W        W27283   7.591   1.748   4.503 -0.0404 -0.2063  0.1421
11150W        W27284  10.146  15.364  12.668  0.0179  0.0210  0.3760
11151W        W27285  17.654   7.324  12.765  0.1773  0.2130 -0.1457
11152W        W27286   1.862  15.061  14.505 -0.3612 -0.1952 -0.1405
11153W        W27287  16.554  16.248   4.519 -0.3390  0.1738 -0.1221
11154W        W27288   4.526  14.449  12.206  0.2120 -0.3232 -0.3164
11155W        W27289   1.400   4.316  14.080 -0.1227  0.0286  0.0464
11156W        W27290  10.641  11.752   4.359 -0.1626 -0.1078  0.0505
11157W        W27291  18.017   4.494  11.113  0.0975  0.1044 -0.1164
11158W        W27292   2.790   7.775  14.164  0.1137  0.0142 -0.1217
11159W        W27293   2.343  17.613  14.690 -0.0178 -0.0743  0.2138
11160W        W27294   7.637  14.767   3.089 -0.1889 -0.0225 -0.3252
11161W        W27295   8.886   1.508   5.036  0.0439 -0.2697  0.0958
11162W        W27296   3.902   1.970  11.354 -0.0628 -0.1098  0.0511
11163W        W27297  16.341   2.434  15.209 -0.0131 -0.3206  0.0964
11164W        W27298   4.869  12.891   0.934 -0.3498 -0.1560  0.1427
11165W        W27299   5.827  10.352  11.546 -0.2189 -0.2118 -0.0921
11166W        W27300  11.343   6.691  12.066  0.2145 -0.2487  0.0111
11167W        W27301   1.993  15.745  14.600 -0.2441  0.0293  0.0481
11168W        W27302   5.964  13.660  13.787 -0.3258 -0.1018  0.1686
11169W        W27303  12.412   1.138  13.153 -0.1858 -0.2126  0.1457
11170W        W27304   6.961  18.740  14.003  0.2570  0.1723 -0.1905
11171W        W27305   3.349   2.025   5.569  0.0522 -0.2879  0.3910
11172W        W27306   0.618   3.249  11.518 -0.0092  0.0261 -0.0524
11173W        W27307  18.578  15.266  13.684  0.0304 -0.0918  0.1626
11174W        W27308   7.336  15.355   0.687 -0.3291 -0.2007  0.0385
11175W        W27309  17.575   4.860  12.905 -0.2320 -0.0122  0.0974
11176W        W27310  14.295   7.899   3.822  0.2139  0.0050 -0.0035
11177W        W27311  15.620   8.270  13.328 -0.4921  0.3385 -0.1956
11178W        W27312  18.709   7.739   4.138  0.1679  0.1014 -0.3991
11179W        W27313  14.490  16.876   2.844  0.0425 -0.0141  0.3333
11180W        W27314   2.324  17.170  12.307  0.0979  0.2233 -0.1005
11181W        W27315   8.365   8.706   1.757 -0.1434 -0.0872 -0.2206
11182W        W27316  10.233   5.313   2.934 -0.3325  0.1832  0.2139
11183W        W27317  13.403  17.152  14.590  0.4319  0.3674 -0.1088
11184W        W27318   0.394  18.872  11.896  0.1228 -0.0489  0.4630
11185W        W27319   1.824  14.641   2.746 -0.1873  0.0024  0.0309
11186W        W27320  14.466  10.619  14.924  0.3177  0.0125 -0.2061
11187W        W27321   8.028   9.586  11.978 -0.5012  0.2004  0.1810
11188W        W27322  18.581   4.156   4.833 -0.2698 -0.1588  0.2743
11189W        W27323  15.629  12.354   4.529 -0.0468 -0.0172 -0.0074
11190W        W27324  11.475  10.996   2.947  0.1546 -0.2359  0.0496
11191W        W27325   8.182  13.605   1.904 -0.3197  0.0154  0.0517
11192W        W27326   9.799   7.031  13.268 -0.7550 -0.1712  0.0754
11193W        W27327   3.196  12.593  11.388  0.0045 -0.0825 -0.0406
11194W        W27328   0.501   3.731   4.346  0.0339  0.0932  0.1296
11195W        W27329   0.772  16.644   1.655  0.0191  0.1401  0.0278
11196W        W27330  14.723  13.035   2.545  0.1776  0.4630 -0.3589
11197W        W27331   1.520  14.200  14.197 -0.0914  0.1327 -0.1426
11198W        W27332  17.368  10.918   4.967 -0.0512 -0.1621 -0.0236
11199W        W27333  12.217   1.683   2.006 -0.1549  0.0800  0.2667
11200W        W27334   2.962  16.296  14.486  0.0150 -0.1412  0.5178
11201W        W27335  10.941  11.818   0.299  0.1653  0.0840  0.0557
11202W        W27336  18.082   6.769  12.793  0.2763  0.1021  0.2635
11203W        W27337   2.304  12.374  13.056  0.0102  0.1042 -0.0281
11204W        W27338  10.262  13.128  12.347 -0.2055  0.2724  0.2914
11205W        W27339   1.663  15.485   4.184 -0.0677  0.3050 -0.1701
11206W        W27340   9.065   6.508   4.034 -0.3338 -0.1052 -0.0865
11207W        W27341  11.474   3.996   0.567 -0.0038 -0.0495  0.1595
11208W        W27342  14.510  13.870   2.522  0.6203 -0.3348  0.2590
11209W        W27343   5.564  10.916   2.663 -0.2312 -0.3630  0.1471
11210W        W27344  16.729   8.311  10.018  0.1209 -0.2422 -0.1020
11211W        W27345  10.749  10.105   1.864 -0.1171 -0.2773 -0.0650
11212W        W27346  10.442  11.058   2.400 -0.0696 -0.1029 -0.2189
11213W        W27347  10.187   2.469   2.987  0.0305 -0.1404  0.0033
11214W        W27348  13.023  12.744   5.851 -0.1836  0.1097  0.1325
11215W        W27349   7.312   8.723   0.902  0.1868  0.2337  0.0936
11216W        W27350  16.760   6.545   3.584 -0.2060  0.2129  0.0769
11217W        W27351   0.366  13.492  12.952 -0.2950 -0.1913 -0.1049
11218W        W27352   6.202   6.601   3.712 -0.0713 -0.2311  0.1070
11219W        W27353  10.748   3.878  14.059  0.0778 -0.3233  0.0904
11220W        W27354   9.591  15.431   0.446  0.0488 -0.2552 -0.1992
11221W        W27355  14.587   8.787   2.754 -0.0230 -0.0535  0.0104
11222W        W27356  16.404   4.798   9.956  0.1552  0.0306  0.0899
11223W        W27357  14.469   4.546   9.382  0.0575 -0.1050  0.2470
11224W        W27358   2.003  13.623   3.275 -0.0557  0.1063  0.1222
11225W        W27359   9.591   0.353   0.177  0.0436  0.0966  0.2780
11226W        W27360   3.548   7.077  11.627 -0.0863  0.1549  0.1354
11227W        W27361   6.091   9.125  14.499 -0.0195  0.3078  0.0883
11228W        W27362   1.005   8.223   0.892  0.3406  0.1857 -0.0980
11229W        W27363  12.454  16.579  11.773  0.1217  0.1018 -0.1251
11230W        W27364  15.450   8.556  11.363  0.0972  0.0666 -0.2950
11231W        W27365  18.645  17.367  13.787 -0.3970 -0.3226 -0.2732
11232W        W27366  12.906   7.593  12.502  0.0631 -0.0298  0.3559
11233W        W27367  12.201   8.740  15.110  0.2351  0.1559  0.0960
11234W        W27368  10.748   9.493  14.909 -0.3012  0.0878  0.0108
11235W        W27369   7.054  17.237   0.294  0.1853 -0.0274  0.2755
11236W        W27370  11.994   0.562   2.973 -0.0766  0.0094 -0.0418
11237W        W27371   8.369  13.751   1.284 -0.0781 -0.1266  0.0587
11238W        W27372  10.581  18.291   3.584  0.3665 -0.2140  0.1766
11239W        W27373  11.095  14.228  13.454  0.0081 -0.0646 -0.2300
11240W        W27374   9.063  13.977  11.398 -0.2336  0.1364 -0.1152
11241W        W27375  16.497   1.129   3.693  0.1939  0.1790 -0.1797
11242W        W27376  12.677  18.030  13.776 -0.1691  0.0282 -0.2414
11243W        W27377   1.807  12.755   3.017 -0.0081 -0.2212 -0.1083
11244W        W27378   8.715   2.319  10.302 -0.1511  0.1365 -0.0258
11245W        W27379   7.896   1.072  13.491 -0.1293 -0.0916 -0.0655
11246W        W27380  12.625  14.139   1.099 -0.0431 -0.0974 -0.0310
11247W        W27381   9.736   9.362   4.942  0.1788  0.2738  0.0630
11248W        W27382   9.928  13.239  13.008 -0.0299  0.3064 -0.0976
11249W        W27383   0.863  10.154  14.189 -0.0723  0.0728 -0.1018
11250W        W27384  10.631   1.414  10.215  0.1836  0.0376  0.0797
11251W        W27385   0.566   8.903   4.830 -0.1541  0.0140 -0.1601
11252W        W27386  12.924   6.167   4.389  0.1850 -0.0142  0.2378
11253W        W27387  13.573   6.358  10.459  0.1422  0.2036  0.2005
11254W        W27388  16.526  12.184  13.426  0.0759  0.0206  0.0857
11255W        W27389   9.158   4.549   0.140  0.1061  0.0163  0.0527
11256W        W27390   3.096  11.260  12.522 -0.0877 -0.1262  0.2874
11257W        W27391   8.328   5.002   4.711  0.0006 -0.0899  0.1681
11258W        W27392  17.033  15.332   3.480 -0.2701  0.3443  0.1285
11259W        W27393   3.213  16.900  11.404 -0.0427  0.1498 -0.2466
11260W        W27394   6.707   6.051  13.737 -0.3488 -0.1161  0.0538
11261W        W27395  15.815  18.285   5.646 -0.0917  0.1237 -0.1069
11262W        W27396   2.352   9.535   5.339 -0.0607  0.0403 -0.2080
11263W        W27397   7.497  10.962  13.271 -0.2364  0.3690 -0.0838
11264W        W27398   7.378   2.562  15.103 -0.1410 -0.1391 -0.1673
11265W        W27399   7.129  15.524   2.798  0.2851 -0.0068 -0.0437
11266W        W27400  10.052   6.715  10.802 -0.1098  0.1914  0.0450
11267W        W27401   6.250  18.651  11.075 -0.4159 -0.1115  0.1635
11268W        W27402  16.889  17.884  10.247  0.4520  0.2828  0.0188
11269W        W27403  14.231  17.960   0.606 -0.0540  0.0818  0.1937
11270W        W27404   0.339   6.089   3.888  0.2499  0.0622  0.1035
11271W        W27405   1.688   9.793   3.692  0.2474 -0.1481 -0.1056
11272W        W27406   6.440   6.921  10.975 -0.1162  0.0890  0.0817
11273W        W27407   9.431  17.088   1.550 -0.1540  0.1381 -0.2991
11274W        W27408   4.678  14.907  12.296 -0.1249  0.0099 -0.2516
11275W        W27409   5.871   0.483   3.195 -0.1936 -0.1605 -0.1289
11276W        W27410  13.930   9.769   9.726  0.1813  0.1276 -0.3781
11277W        W27411   8.949   8.155  12.886 -0.0805 -0.1979 -0.4250
11278W        W27412   8.247  10.449  11.741  0.1697  0.2297 -0.2638
11279W        W27413   5.343   8.341   4.284 -0.2052  0.3375 -0.1223
11280W        W27414  13.022   7.264   3.189 -0.1890  0.1440 -0.0783
11281W        W27415   0.660   8.557   4.118  0.4270 -0.2491 -0.0539
11282W        W27416   6.662   3.725   4.845  0.1119 -0.1301 -0.2850
11283W        W27417  14.090   1.071  13.465  0.0502  0.0732  0.4990
11284W        W27418   4.509   9.662  11.790  0.0506  0.3505  0.1682
11285W        W27419   7.510  15.393   3.757 -0.1374 -0.0321 -0.0463
11286W        W27420  12.797   7.105  12.368 -0.0863  0.1181 -0.0995
11287W        W27421  15.793  18.260   3.633  0.0343  0.0356  0.0607
11288W        W27422   9.032  18.089  14.694  0.3199  0.0667  0.1272
11289W        W27423   8.151   8.098   2.842 -0.1057  0.3020  0.1673
11290W        W27424  13.315   3.064   4.149  0.1459  0.4182  0.0702
11291W        W27425  11.998  18.147   3.972  0.1178  0.3342  0.0871
11292W        W27426   6.549  16.078  13.620 -0.2444 -0.2469  0.3278
11293W        W27427  15.887   8.273  10.653  0.0458  0.1972  0.0520
11294W        W27428   6.138   6.082  10.403 -0.0533 -0.1053 -0.2127
11295W        W27429  15.627  10.938   3.271  0.1436 -0.0744 -0.1157
11296W        W27430   7.455   2.214   1.216  0.2043 -0.2669 -0.2909
11297W        W27431  13.777   0.573   4.637 -0.0399  0.0104  0.1001
11298W        W27432   5.571   9.935  11.777  0.0259 -0.1525 -0.1526
11299W        W27433  15.806   5.342  12.845 -0.1480  0.0559  0.0363
11300W        W27434   7.324  16.064  12.549  0.0152 -0.0202 -0.1966
11301W        W27435   6.567   7.634   4.736 -0.0441 -0.2086 -0.2947
11302W        W27436   3.053   3.528   2.906  0.0628  0.1224 -0.2972
11303W        W27437   2.161  11.632  14.270  0.0822 -0.0564  0.1232
11304W        W27438   3.912   7.066  12.992 -0.0987 -0.1251 -0.2993
11305W        W27439   0.004  10.565   0.942  0.3250 -0.2203 -0.0472
11306W        W27440  12.743  12.801  10.503 -0.2644 -0.3952  0.2036
11307W        W27441   6.111  10.560   0.839  0.1270 -0.0405  0.4822
11308W        W27442  16.799  17.256   5.101 -0.0737 -0.2023  0.0507
11309W        W27443  14.838   2.521   4.184 -0.0600 -0.1088  0.1675
11310W        W27444  14.105  13.921  10.276  0.0468  0.0145 -0.0431
11311W        W27445   8.387   8.109  11.224 -0.0755 -0.1155  0.1365
11312W        W27446   9.224   9.353  12.680  0.2959 -0.1306 -0.1734
11313W        W27447  13.958   9.500  12.008  0.0125  0.0813  0.3828
11314W        W27448  11.193   9.354  12.214 -0.3694 -0.2930 -0.1513
11315W        W27449  12.628   5.039  10.979 -0.0608  0.0954 -0.0038
11316W        W27450   0.915  16.243   5.074  0.0434 -0.2803 -0.1328
11317W        W27451   4.707   3.820  13.039  0.0182 -0.2554 -0.1527
11318W        W27452  15.319   5.479  12.978  0.1343  0.1088 -0.0205
11319W        W27453   3.873   2.661   9.317  0.1773 -0.0507  0.0926
11320W        W27454  17.803   5.700   1.240 -0.2719 -0.1376  0.1416
11321W        W27455   6.447  12.799   0.256 -0.0903 -0.0330 -0.2308
11322W        W27456   5.761   0.438   2.119  0.1112 -0.1052  0.2194
11323W        W27457   5.071   8.733   3.653 -0.3819 -0.2893  0.0769
11324W        W27458   6.501  17.516   0.538  0.0249  0.0307 -0.1904
11325W        W27459  11.711   8.268   4.716 -0.2456 -0.2732 -0.0580
11326W        W27460   1.361   0.203  13.230  0.0418 -0.0105  0.1338
11327W        W27461   1.846   3.267   1.727 -0.0266  0.0036 -0.3201
11328W        W27462   1.316   7.832   2.199 -0.3980 -0.1138  0.1111
11329W        W27463   8.141  17.233   4.043 -0.1199  0.1095 -0.0463
11330W        W27464   9.859   6.468   3.285  0.2779 -0.1309 -0.1003
11331W        W27465   8.971   9.432  13.637 -0.1153  0.2022  0.0943
11332W        W27466   9.126  10.635  13.199  0.1105  0.1091 -0.0664
11333W        W27467  13.774   3.672   2.358  0.1704  0.2338 -0.3110
11334W        W27468   8.129   6.409   1.903  0.3658  0.0203  0.1816
11335W        W27469  16.007   4.452   5.232 -0.0848 -0.1311 -0.0143
11336W        W27470  10.128   3.258  12.889  0.5167  0.4622  0.2994
11337W        W27471   8.606   2.127  11.259  0.0615  0.0584 -0.0826
11338W        W27472  14.566  10.475  10.413  0.2408  0.0711 -0.1383
11339W        W27473  10.601   3.235   2.599  0.1591 -0.2139  0.2802
11340W        W27474  17.204   7.516   6.071  0.1247 -0.2340 -0.2949
11341W        W27475  10.194   2.713  13.394  0.0793 -0.0528  0.2959
11342W        W27476  16.113   2.331  11.492  0.1762  0.1645 -0.0436
11343W        W27477  12.310   3.311   1.707 -0.1171 -0.2789 -0.2225
11344W        W27478   6.911  15.511   1.677  0.0584 -0.4647 -0.0206
11345W        W27479  13.021   2.776   4.439  0.1115 -0.1378  0.0931
11346W        W27480  15.182   7.256   4.564 -0.0615  0.0035 -0.1302
11347W        W27481   7.953   1.676  15.104  0.0085  0.1171  0.1113
11348W        W27482  14.049  17.889  12.294 -0.1018  0.0146 -0.0661
11349W        W27483   7.281   6.834  14.541  0.1144 -0.0178  0.1045
11350W        W27484   2.043   4.058   3.913  0.2366  0.0440 -0.0774
11351W        W27485   2.382  11.209  14.238  0.1644 -0.1998  0.0652
11352W        W27486  11.206  14.700  14.811 -0.0520 -0.2106 -0.2727
11353W        W27487  16.374   4.119   0.299  0.1041  0.0843  0.1119
11354W        W27488   7.604   0.709  12.884 -0.0597  0.2064  0.1749
11355W        W27489   8.574  16.940   2.008 -0.0784  0.1322  0.2958
11356W        W27490   3.842  10.932  11.682  0.0958  0.0246 -0.1784
11357W        W27491   2.546  13.731   5.425  0.2419 -0.0156 -0.0264
11358W        W27492  11.394   4.649  13.881 -0.1725 -0.1388  0.0731
11359W        W27493   4.367  16.068   2.619  0.0454 -0.2575 -0.2022
11360W        W27494   0.397   3.893  15.027  0.0820  0.0438 -0.0581
11361W        W27495   5.252   9.095  12.192  0.1656 -0.4287  0.0877
11362W        W27496   0.698   7.189   3.623 -0.2988 -0.1545 -0.0570
11363W        W27497  16.007  10.899   3.781  0.0697 -0.0252 -0.0181
11364W        W27498  13.895   3.668  14.359  0.3276  0.0167 -0.2971
11365W        W27499   1.018  12.091   0.580 -0.1752  0.0852  0.1301
11366W        W27500  14.714   5.675   1.214 -0.1982 -0.0103  0.3096
11367W        W27501  16.187   9.068  11.683  0.0796 -0.1039 -0.0556
11368W        W27502  11.872   6.406  13.115  0.2484  0.0991  0.2247
11369W        W27503   3.437  15.535  13.788 -0.1477 -0.2252  0.1073
11370W        W27504   6.278  12.092   1.807 -0.0692 -0.0517  0.1101
11371W        W27505  16.529  10.219  15.244 -0.1195 -0.0742  0.0996
11372W        W27506   9.665  10.901  10.889 -0.0051 -0.1517  0.0689
11373W        W27507   5.758  17.498  12.281  0.0030 -0.1166 -0.1232
11374W        W27508  14.014   1.132   3.949  0.1862  0.0728  0.2347
11375W        W27509   1.865   3.945   0.053 -0.0310  0.0530  0.1223
11376W        W27510   2.778  11.174   4.072 -0.1630 -0.0426 -0.0078
11377W        W27511   1.967   0.549   2.655  0.1468 -0.0027  0.0900
11378W        W27512   9.573   9.287  11.536 -0.2220  0.0942  0.0273
11379W        W27513  15.121   3.354  10.536  0.0170 -0.3261 -0.0268
11380W        W27514   4.783   6.477  13.297  0.0292 -0.0761 -0.0306
11381W        W27515  16.435  14.632  13.004 -0.0817 -0.0041  0.0395
11382W        W27516  10.281  18.657  12.146 -0.1465 -0.2591  0.1261
11383W        W27517   4.333   9.914   4.288 -0.0561  0.0252 -0.1361
11384W        W27518   1.661   5.345   4.272 -0.2089  0.0077  0.5674
11385W        W27519  16.427  18.945  13.295 -0.0719 -0.0046  0.1203
11386W        W27520   1.046  11.244  15.235 -0.3396 -0.0744 -0.1160
11387W        W27521  11.962   5.516  12.433  0.3020  0.0060  0.0620
11388W        W27522   6.726   3.849  14.444 -0.2696  0.0621 -0.1709
11389W        W27523  17.908   1.182   4.125 -0.1980  0.1307  0.3629
11390W        W27524   2.210   2.411   3.603  0.3795  0.1468 -0.2063
11391W        W27525   8.920  15.923  14.067 -0.1562 -0.1560  0.1401
11392W        W27526   2.446   1.649  13.874 -0.3326 -0.0105  0.3381
11393W        W27527   3.906   6.907   1.071  0.1389 -0.0630 -0.2307
11394W        W27528  17.049  11.139   9.981 -0.0831 -0.0799 -0.0283
11395W        W27529   5.689  11.368   2.947  0.1110  0.0269  0.1772
11396W        W27530   6.562   1.333  14.395 -0.0833  0.0851  0.0037
11397W        W27531  14.717  10.672   2.281  0.1354  0.1474 -0.0651
11398W        W27532   6.547   4.304  14.396 -0.1343  0.0622  0.0874
11399W        W27533  11.006  13.328   3.022 -0.2038 -0.1476  0.1608
11400W        W27534  17.673   6.341  14.315  0.0949 -0.3347  0.1073
11401W        W27535   0.551  10.951   3.804  0.1259  0.1224  0.1388
11402W        W27536  10.212   6.762  12.180 -0.0086  0.4086  0.1997
11403W        W27537  15.817  18.638  15.260 -0.0285  0.2472 -0.4181
11404W        W27538  18.882   9.801   0.288  0.0442  0.2611  0.0297
11405W        W27539  10.708  10.211   0.125  0.0752 -0.2406 -0.0294
11406W        W27540   8.293  17.085  12.003 -0.2515 -0.1639 -0.2739
11407W        W27541   4.116  13.284  11.687 -0.0716 -0.0241  0.0268
11408W        W27542  10.635  15.232  12.048 -0.2562 -0.0811 -0.1942
11409W        W27543   4.735   7.446   3.316  0.2412 -0.2074  0.0515
11410W        W27544  17.869   7.210   0.017  0.1050 -0.0701  0.3896
11411W        W27545   9.959  18.121   2.537  0.3503 -0.0565 -0.2017
11412W        W27546  16.206  13.206  13.048  0.0155  0.0304 -0.0203
11413W        W27547  10.391   6.235   0.073 -0.1332 -0.3007 -0.0437
11414W        W27548   8.575   4.541  12.784  0.2715 -0.0848  0.1915
11415W        W27549   4.669   1.355   0.138 -0.2204 -0.2418 -0.4367
11416W        W27550  13.831   4.862   4.436 -0.0246 -0.2515 -0.0909
11417W        W27551  16.712  11.043  15.129 -0.0601  0.0534  0.1599
11418W        W27552  13.887  11.831   4.437 -0.1374 -0.1309  0.0557
11419W        W27553  18.014  10.505  12.187 -0.1703 -0.1110 -0.0009
11420W        W27554  15.300   1.450  13.349  0.0965 -0.1718 -0.0347
11421W        W27555   3.526  13.115  13.502 -0.2257  0.0153  0.2800
11422W        W27556  15.161   0.577   2.692 -0.0827  0.0490  0.2796
11423W        W27557   5.673  18.402   4.851 -0.1384  0.0566 -0.1762
11424W        W27558  13.601  15.704  13.752  0.1406 -0.0428 -0.0359
11425W        W27559  10.597   8.325   2.803 -0.0467  0.3368 -0.1209
11426W        W27560  12.098   8.196  15.284  0.0356  0.0735  0.1578
11427W        W27561   6.148   8.659  14.387 -0.2032  0.4479  0.0436
11428W        W27562   1.136   5.902  14.416  0.1590  0.1467  0.0159
11429W        W27563   0.098  15.592   4.909 -0.1299 -0.1207  0.0309
11430W        W27564  16.736   6.002   4.747 -0.0018 -0.4599  0.1987
11431W        W27565   2.192  16.274   3.156 -0.2411  0.1829 -0.2057
11432W        W27566   7.452   5.705  11.056 -0.2327 -0.2015  0.1496
11433W        W27567  13.667   5.284  12.490 -0.1122 -0.2272  0.0626
11434W        W27568  11.680  18.584   2.925 -0.1468  0.0852  0.2451
11435W        W27569   2.420  16.903   0.838 -0.1738 -0.0895  0.1541
11436W        W27570   6.582  18.794   0.032  0.0951  0.0247 -0.2842
11437W        W27571  13.729  15.485   3.833  0.0160 -0.2142  0.1894
11438W        W27572   8.913  11.832   4.085  0.0271  0.1880  0.0524
11439W        W27573   2.042   2.705  12.459  0.2062  0.0404 -0.1016
11440W        W27574   8.408  16.268  13.068  0.1771  0.1825 -0.1371
11441W        W27575   4.898   9.279   9.562 -0.2797 -0.2799  0.0906
11442W        W27576   1.411   9.779   5.704 -0.0648 -0.1839  0.0780
11443W        W27577   2.254  13.519  11.214 -0.0646  0.0290 -0.0315
11444W        W27578   1.565  16.498   4.289  0.0617  0.1568  0.0627
11445W        W27579  18.657  16.031   5.882 -0.3553 -0.1413  0.2407
11446W        W27580   8.320   7.717  12.924  0.2810 -0.0427 -0.0544
11447W        W27581   4.441  14.376  12.951 -0.0946  0.2883 -0.1426
11448W        W27582   0.531  18.005  14.630  0.0145 -0.0674  0.0662
11449W        W27583   8.084  13.806   3.709  0.3818  0.2004  0.0090
11450W        W27584   1.754   0.432  12.936  0.0816 -0.3433 -0.1573
11451W        W27585  10.955  10.379  14.694 -0.0163  0.2605  0.2021
11452W        W27586  13.808  10.601  11.013 -0.2820 -0.0594 -0.1518
11453W        W27587   2.608  11.981   4.833  0.0770 -0.1274 -0.2887
11454W        W27588   4.611  13.061   2.439  0.0196  0.4258 -0.2139
11455W        W27589   7.326  10.299  10.592  0.1768  0.0354 -0.1168
11456W        W27590  18.809   8.726  14.061  0.0308 -0.1273  0.1530
11457W        W27591  14.674   3.727  13.438 -0.0295 -0.0054 -0.1728
11458W        W27592   4.762  17.389  14.340 -0.0673  0.0537 -0.5038
11459W        W27593  12.686   1.062   0.079 -0.1140 -0.0478  0.3035
11460W        W27594   1.939   8.139   0.437 -0.0401  0.2641 -0.2337
11461W        W27595   8.129  13.846   2.325 -0.4256  0.0277 -0.0809
11462W        W27596   8.677  16.142   5.063 -0.1420  0.0858 -0.2480
11463W        W27597  18.553   7.123   0.780 -0.1166 -0.2064 -0.0945
11464W        W27598  13.635   2.774   1.078  0.0019  0.2038  0.0928
11465W        W27599   9.680   6.381   4.425  0.3992  0.2821  0.1262
11466W        W27600  13.084   8.336   1.619 -0.2323 -0.0310  0.0171
11467W        W27601  17.412  10.078   3.023  0.2805 -0.0892  0.3108
11468W        W27602   1.795   3.933  13.830  0.0700  0.1091  0.2906
11469W        W27603   5.081  11.300  13.647 -0.0005  0.1698  0.1380
11470W        W27604  14.043  13.143   3.993 -0.1911 -0.0626  0.1481
11471W        W27605  12.513  16.568  10.676  0.2042 -0.2101  0.1992
11472W        W27606   6.816   5.199   3.404 -0.1365  0.0879 -0.2383
11473W        W27607  12.942  16.478  10.940 -0.1038 -0.0104  0.3095
11474W        W27608   4.455   8.719   1.672  0.3068 -0.0866  0.0047
11475W        W27609   7.522  12.012   3.856 -0.2530  0.0097  0.2808
11476W        W27610  16.425   1.718  12.934 -0.1492 -0.0808  0.1394
11477W        W27611  10.356   6.245   0.584  0.1922  0.0465 -0.1112
11478W        W27612   6.870  18.448   0.329 -0.2701 -0.2413 -0.2960
11479W        W27613  14.895  17.781   1.880  0.0156 -0.0741  0.1234
11480W        W27614  13.764  17.819   4.151 -0.2509  0.2265 -0.1389
11481W        W27615   9.897   3.569  13.229 -0.0411  0.1467 -0.2116
11482W        W27616   0.136  13.813  12.319  0.1809 -0.0121 -0.2488
11483W        W27617   0.059  16.339   3.692 -0.0394  0.1517  0.0569
11484W        W27618   0.731   7.696   3.583  0.0725 -0.0117 -0.2716
11485W        W27619  18.994  11.007   2.716 -0.0046 -0.1746 -0.0707
11486W        W27620  17.743  14.138   0.508  0.2972 -0.0008 -0.0598
11487W        W27621  11.157   5.742  14.324  0.2722 -0.1385 -0.2105
11488W        W27622   8.850  18.645   0.762 -0.1521 -0.2740 -0.3160
11489W        W27623   0.085   2.823   9.918  0.2701 -0.1591  0.2905
11490W        W27624   1.192   3.962   4.275 -0.2811 -0.0968  0.3956
11491W        W27625   9.567   6.905   1.081 -0.3823  0.0209 -0.2028
11492W        W27626   8.887   8.024   1.614  0.1031 -0.0540  0.2273
11493W        W27627  17.548  13.728  12.360  0.0685 -0.3572 -0.4707
11494W        W27628   9.835   1.571   1.742  0.2511  0.1960 -0.1318
11495W        W27629  14.995   9.248  11.909  0.0188 -0.1334  0.0970
11496W        W27630  12.422   8.985  10.646 -0.0434 -0.1803  0.0631
11497W        W27631   5.127   2.787   4.892 -0.2243  0.0486 -0.2071
11498W        W27632   1.671   6.366  10.276 -0.3785 -0.2086  0.1211
11499W        W27633  12.339   1.109   0.938  0.0143 -0.2438  0.0167
11500W        W27634   0.882  11.985   1.169  0.0431  0.1690 -0.0600
11501W        W27635  13.797   8.579  14.328  0.0067  0.2066 -0.0717
11502W        W27636  17.843  11.329   4.136 -0.2108  0.4220 -0.2166
11503W        W27637   9.973   5.708  12.961 -0.3778  0.1439 -0.1829
11504W        W27638  16.643   8.621  11.997  0.1180  0.1365 -0.1512
11505W        W27639  15.141   4.598   0.453  0.0932  0.0101 -0.0503
11506W        W27640  15.768  15.647   4.429  0.1277  0.0901  0.1209
11507W        W27641   5.769   5.138  12.349 -0.2983  0.3113  0.2211
11508W        W27642  17.894  16.112   4.244  0.0933 -0.1869  0.3296
11509W        W27643   7.760  12.857   5.091 -0.0994 -0.0141 -0.1388
11510W        W27644   8.196   0.203   1.633 -0.2183  0.0005  0.0014
11511W        W27645   6.548   2.450   2.728  0.0385 -0.2506  0.1599
11512W        W27646  13.234   2.073  11.366 -0.3920 -0.1060  0.1575
11513W        W27647   9.115   8.362   0.698  0.0911 -0.0600 -0.2044
11514W        W27648   6.570  13.980   3.810  0.0554 -0.0388  0.1461
11515W        W27649   0.431  18.823   2.207  0.2027 -0.1433 -0.1547
11516W        W27650  17.701  15.537  14.379 -0.3215  0.0429  0.1685
11517W        W27651  14.398   5.584   5.239  0.2269 -0.2320 -0.0968
11518W        W27652   2.045  15.286  12.408  0.4230  0.0911  0.3472
11519W        W27653   8.597  18.966   4.592  0.2032 -0.2580  0.2554
11520W        W27654  17.917  17.997   2.239 -0.1619 -0.0809  0.0043
11521W        W27655  13.560   4.447  12.222 -0.1291  0.0158  0.4696
11522W        W27656  18.805   4.868  12.731 -0.0804 -0.0728 -0.0878
11523W        W27657   4.929   5.871   1.612 -0.1026 -0.1111 -0.1739
11524W        W27658  12.582   9.960  11.855  0.1629 -0.1483  0.0059
11525W        W27659  11.100  13.687   2.654  0.0350  0.1404  0.0327
11526W        W27660   7.684   0.179  11.089  0.0714 -0.0683 -0.0775
11527W        W27661   2.271  10.524   2.336 -0.1139  0.1966  0.0745
11528W        W27662  15.341   3.696   3.823  0.0962  0.1451 -0.0739
11529W        W27663  17.780   2.407   4.366  0.3286 -0.0149 -0.0997
11530W        W27664   7.830  12.763   0.194 -0.4802  0.1190 -0.2239
11531W        W27665   7.235   8.961  13.614 -0.0365 -0.0434 -0.2552
11532W        W27666  10.087   5.429   2.410 -0.0271 -0.3667 -0.0628
11533W        W27667   9.016  17.047  11.217  0.0850  0.1481 -0.1245
11534W        W27668  15.164   1.867   5.051 -0.2346  0.1445  0.1350
11535W        W27669   9.417   8.150   1.566  0.0415  0.1044  0.2096
11536W        W27670   0.178  17.120  14.454 -0.1188 -0.1728 -0.1093
11537W        W27671   4.096   2.929   3.159  0.1706  0.2700  0.1816
11538W        W27672  14.569   7.178   1.843 -0.0406 -0.0189  0.0546
11539W        W27673   2.007  13.967  11.981  0.0215  0.4745 -0.0640
11540W        W27674   6.654   1.483   3.202 -0.0030 -0.1995  0.3641
11541W        W27675   4.086   6.807   4.989  0.2235  0.1320 -0.2681
11542W        W27676  16.636   9.697  14.434 -0.2321  0.2747  0.0914
11543W        W27677   1.419  10.262   4.003  0.1217 -0.1990  0.1827
11544W        W27678  12.917  10.321  11.870 -0.2566 -0.1796 -0.1145
11545W        W27679   3.114  12.636   4.774  0.1944 -0.0596 -0.0266
11546W        W27680   9.826  11.346  10.949 -0.2320 -0.1251 -0.3052
11547W        W27681  17.242   6.566   4.882 -0.0424  0.1892  0.0635
11548W        W27682   5.902  16.773   0.854  0.3860  0.1014 -0.0198
11549W        W27683  12.843  16.594   2.534  0.2584  0.0225  0.1029
11550W        W27684  15.574  14.562  11.727  0.2736 -0.2680 -0.1367
11551W        W27685   2.831   2.516   4.940  0.3521 -0.1133 -0.0618
11552W        W27686  18.605   0.589   4.892 -0.2318 -0.0290 -0.1479
11553W        W27687   3.035   3.815   3.346 -0.0436  0.1483 -0.0918
11554W        W27688  13.546  15.158  12.653 -0.1587  0.0746  0.5967
11555W        W27689   1.882   0.296  10.802  0.1323 -0.1084  0.0659
11556W        W27690  10.072   7.597   5.611 -0.1184 -0.3601  0.0809
11557W        W27691   2.055   0.324  12.217  0.0184 -0.2101 -0.1372
11558W        W27692   5.045   5.231   4.393 -0.0814  0.0712  0.0629
11559W        W27693   3.378  15.784   3.904  0.0226  0.0088  0.0289
11560W        W27694  14.645   9.032  11.147  0.0267  0.2633  0.1515
11561W        W27695   0.070   9.788  14.161 -0.1235  0.1192 -0.0620
11562W        W27696   3.191  13.257   6.017 -0.2431  0.2340  0.1978
11563W        W27697   5.361  10.629   1.113  0.0746 -0.2469  0.1514
11564W        W27698  14.188  17.007   0.788  0.0969 -0.0657 -0.0401
11565W        W27699  10.381  15.674  14.045  0.1116 -0.2329  0.1663
11566W        W27700   5.464  11.503   1.364  0.0950  0.0771  0.2105
11567W        W27701  13.904  14.243   5.750  0.0049  0.1268  0.2051
11568W        W27702  11.028   2.501  11.000  0.0628  0.2683 -0.2963
11569W        W27703   8.199  12.898  12.691 -0.0592  0.0002 -0.1232
11570W        W27704  13.863  14.112   5.197  0.0200 -0.2276  0.2862
11571W        W27705   8.459   9.748   0.257  0.1824  0.0712  0.0967
11572W        W27706   2.969  18.140   3.794  0.0982 -0.2121 -0.0681
11573W        W27707  10.311   2.436   1.324 -0.0716  0.5186 -0.1666
11574W        W27708   8.861   3.993   5.408 -0.0205 -0.0391 -0.0740
11575W        W27709  12.352  15.182   1.047 -0.0880  0.3592 -0.0328
11576W        W27710  13.793   2.729  12.614 -0.2207 -0.0326  0.0941
11577W        W27711   1.392  15.740  11.045 -0.0892  0.0360 -0.0764
11578W        W27712   7.753   0.710   2.750 -0.0733 -0.0816 -0.1684
11579W        W27713   0.504  12.030  13.706 -0.2599 -0.2442 -0.1357
11580W        W27714  16.403   8.071  12.315  0.0486  0.1346  0.3434
11581W        W27715  11.861   1.985   2.416 -0.0076  0.0473 -0.1974
11582W        W27716   7.187   8.435  13.554 -0.1005  0.1774  0.0786
11583W        W27717   5.902   9.586   2.320  0.2831  0.1352 -0.2324
11584W        W27718  10.673   6.376   5.159 -0.1739 -0.1937  0.3452
11585W        W27719  11.417  14.013   9.649  0.2029  0.1308  0.0079
11586W        W27720   2.818  13.388  13.856  0.0718  0.2005 -0.0248
11587W        W27721  16.321   6.896   3.397 -0.1039 -0.1219 -0.5729
11588W        W27722   5.649  11.646  15.236  0.1761 -0.0912  0.0903
11589W        W27723  11.518   0.557  14.261  0.1421  0.0258  0.0857
11590W        W27724   8.973   9.541   2.965 -0.2602  0.1463 -0.4222
11591W        W27725  12.527   2.867   1.592 -0.0942 -0.1053  0.0158
11592W        W27726  10.496   1.026   1.497 -0.7252 -0.0238  0.0412
11593W        W27727   4.618  14.039   2.190 -0.2118  0.1030 -0.2616
11594W        W27728   0.670  14.694  10.477  0.0522  0.2534 -0.2320
11595W        W27729   0.067   8.970  12.161  0.0938  0.2419  0.1987
11596W        W27730   0.723   6.572   0.116  0.3910  0.4058  0.2639
11597W        W27731  18.058  16.395   0.070 -0.2286 -0.1845 -0.0680
11598W        W27732  15.121   7.197   1.066 -0.1900 -0.1448  0.2183
11599W        W27733   3.061  11.709   0.580  0.1447  0.2993 -0.0044
11600W        W27734   3.879   2.369  10.653  0.2291  0.0023  0.2093
11601W        W27735  10.021  10.052  14.042 -0.2272 -0.3764  0.2577
11602W        W27736   4.209  14.910  14.742 -0.1175  0.2519 -0.2766
11603W        W27737   6.666   0.723  12.768 -0.1697  0.4078  0.0695
11604W        W27738  14.754   4.044  14.078 -0.2507 -0.2623  0.0089
11605W        W27739  14.344   0.233  13.781  0.1651  0.0332  0.2506
11606W        W27740   6.223  13.034   5.880 -0.3336  0.0657 -0.3279
11607W        W27741  11.027   6.231   3.829 -0.1701  0.1391 -0.1870
11608W        W27742   7.293  10.461  11.619  0.0003 -0.3570 -0.0598
11609W        W27743   3.191   3.879  14.071  0.1319  0.0177 -0.2323
11610W        W27744  10.686   9.805   3.699 -0.0410  0.2541 -0.2460
11611W        W27745  16.822  16.291   3.208  0.2461  0.0681  0.0464
11612W        W27746   9.383   6.153   4.973  0.1319  0.4779 -0.3823
11613W        W27747   6.333   3.308   2.401  0.1459  0.0783  0.1228
11614W        W27748   3.086   2.467   4.427  0.0806 -0.0218  0.2258
11615W        W27749  14.195  11.118   1.549 -0.3231 -0.0670 -0.1882
11616W        W27750   3.830  17.770   4.235  0.0090  0.3319  0.3198
11617W        W27751   0.318  11.303   2.477  0.1296  0.2486  0.0647
11618W        W27752   7.502   1.136   2.845  0.3624  0.0039 -0.2676
11619W        W27753   3.450   3.668   0.604  0.0611  0.1194 -0.3666
11620W        W27754   8.911   6.966  13.707  0.0127 -0.0491  0.0450
11621W        W27755  14.082   2.155  13.847  0.2202 -0.0631  0.1928
11622W        W27756  10.403  18.973  11.674  0.1762  0.0766 -0.1372
11623W        W27757  18.051  16.890   0.027  0.0868  0.1284 -0.0946
11624W        W27758   6.462  15.553   0.408  0.0430  0.1526  0.0164
11625W        W27759  10.753   2.560  14.644  0.0507  0.1232 -0.3962
11626W        W27760   7.551   4.066   3.278  0.4229  0.3220 -0.0300
11627W        W27761  12.880   6.164  14.332 -0.3264 -0.2371  0.1152
11628W        W27762   1.967   1.348  12.757 -0.0769 -0.2213  0.2084
11629W        W27763  16.298   1.573  13.449 -0.0972 -0.0151  0.2322
11630W        W27764   5.091   1.991  15.082 -0.2967  0.1512  0.2541
11631W        W27765  12.386  18.297   5.045 -0.1545 -0.0583 -0.0240
11632W        W27766  15.338   4.219  11.224  0.1272  0.1449  0.2198
11633W        W27767  18.533  16.410   2.420 -0.0007 -0.0359  0.1436
11634W        W27768  11.469  15.211  11.846 -0.2106  0.1367  0.0671
11635W        W27769   3.832  14.023   3.932  0.2303 -0.0695 -0.0503
11636W        W27770   0.207   8.735  13.050 -0.1695 -0.2092 -0.1428
11637W        W27771  17.373  12.889   0.573  0.0546 -0.0524  0.0555
11638W        W27772   5.482  12.425   3.790 -0.1745  0.0034 -0.0003
11639W        W27773   4.749  17.778  12.053 -0.0274 -0.1682  0.3764
11640W        W27774  12.644  13.116   2.477  0.3541 -0.3208  0.0036
11641W        W27775   8.617  15.153  11.937 -0.1351 -0.0836  0.0983
11642W        W27776  12.230   4.537   0.154 -0.2923 -0.3074 -0.0240
11643W        W27777   1.341  14.689   5.022 -0.1140  0.0174  0.2679
11644W        W27778   5.961  11.185   0.164  0.2643 -0.0555  0.1532
11645W        W27779  10.275  11.908  15.173  0.0044  0.1471 -0.0735
11646W        W27780   0.438  18.322  15.266  0.0174 -0.1773 -0.1540
11647W        W27781   3.752   1.938  10.901 -0.1487  0.1896  0.2339
11648W        W27782  17.246   8.599   5.257 -0.1343 -0.1712  0.2277
11649W        W27783   9.293   7.478   0.083  0.1274  0.2298 -0.2591
11650W        W27784   6.788   7.381   2.082  0.2139 -0.0703  0.2036
11651W        W27785   4.686  10.053  11.306 -0.1855 -0.0754 -0.0990
11652W        W27786  12.834   2.981  14.998 -0.1485  0.2613  0.0025
11653W        W27787   7.581  15.482   5.580 -0.1992 -0.1333 -0.1289
11654W        W27788  14.908   3.531  14.260  0.0879 -0.3473  0.1555
11655W        W27789  18.347   1.520   1.977  0.1427 -0.4761 -0.1539
11656W        W27790   8.116   2.196  14.897  0.1400  0.0020 -0.1324
11657W        W27791   8.508  10.173  14.736 -0.3884 -0.3719  0.0473
11658W        W27792   7.537  11.621  12.488  0.1332  0.0595 -0.0408
11659W        W27793   3.844  15.226   4.509 -0.1615 -0.2686  0.0583
11660W        W27794   5.089  15.016  14.797  0.3313  0.0448 -0.0627
11661W        W27795  11.347  16.642  14.339  0.0272  0.1206 -0.0242
11662W        W27796   0.144   6.475   1.827  0.1696  0.1805 -0.0973
11663W        W27797   7.414  12.100  12.444 -0.1147 -0.1329 -0.1385
11664W        W27798  11.162  18.612   2.854 -0.2561 -0.2483 -0.1059
11665W        W27799   2.087  16.131  13.120 -0.0627  0.1288  0.0531
11666W        W27800  15.722  15.558   3.004 -0.1123  0.0790  0.2380
11667W        W27801  13.613   6.679   3.932  0.1375  0.2203 -0.1028
11668W        W27802  16.132   3.104  12.057 -0.2640  0.1890 -0.1015
11669W        W27803  13.451  10.636   0.905 -0.1361 -0.2350  0.3177
11670W        W27804  18.471  17.274  13.339  0.1118 -0.0700  0.0711
11671W        W27805  12.833  13.470   3.449  0.0311 -0.0384  0.1480
11672W        W27806  16.960   1.247   3.912  0.1266  0.1638  0.0115
11673W        W27807   0.184   5.769   3.449  0.3898  0.2882 -0.1344
11674W        W27808  11.971   0.135  11.289 -0.3343 -0.1806  0.0298
11675W        W27809  12.527  10.537   0.459  0.1310  0.2705 -0.0242
11676W        W27810   9.794  14.174   5.196  0.4210 -0.1967  0.0671
11677W        W27811   6.142  13.854   5.130  0.2173  0.0643  0.3411
11678W        W27812  11.853  18.297  12.653 -0.2030  0.0376  0.1097
11679W        W27813  15.387  14.771   3.152 -0.0273  0.3562  0.0008
11680W        W27814   9.780   0.460  12.595 -0.0166 -0.0385 -0.4148
11681W        W27815   5.695  12.679   3.025  0.1208 -0.0555  0.2307
11682W        W27816   8.285  15.238   3.037 -0.0755  0.2769  0.0792
11683W        W27817   5.363  18.970  14.738 -0.0093  0.0032  0.0484
11684W        W27818  11.901   4.441  15.072  0.3116  0.2383  0.3595
11685W        W27819   0.880   7.661   2.386  0.1126 -0.0036 -0.3358
11686W        W27820  13.052  17.406   4.827  0.1830 -0.1994  0.0134
11687W        W27821   0.367   5.048  11.932 -0.0367  0.1613 -0.1968
11688W        W27822  18.853   2.714   4.393  0.4199 -0.1759 -0.4626
11689W        W27823   4.415   2.232   2.060  0.0153 -0.0859  0.4095
11690W        W27824   7.185   9.136  11.957  0.0552  0.3795  0.2015
11691W        W27825   5.417  11.540   3.831  0.2308  0.1761 -0.0600
11692W        W27826   0.828   2.274  10.655 -0.1213 -0.2668 -0.0299
11693W        W27827  14.127   4.364   1.075  0.1869 -0.3807  0.0917
11694W        W27828   6.558   2.003   2.313 -0.0167  0.0317 -0.1307
11695W        W27829  15.546   3.423   2.757 -0.0202  0.1386 -0.1663
11696W        W27830  16.466   8.349   1.753  0.1616  0.2254 -0.1833
11697W        W27831  18.899  14.005   6.328  0.0069  0.0653 -0.0703
11698W        W27832   3.971  16.147   3.026 -0.0721 -0.1188  0.1136
11699W        W27833   7.551  11.102   1.291 -0.1430 -0.1184 -0.1295
11700W        W27834  10.313  17.165   1.608 -0.0690 -0.2044  0.1024
11701W        W27835   5.891  18.699   0.051 -0.0741 -0.1182 -0.0680
11702W        W27836  14.223  15.651  11.767  0.0381  0.2873 -0.0557
11703W        W27837  17.166  18.986   4.980  0.0229 -0.1374  0.0241
11704W        W27838  12.036   6.013  12.319  0.1418  0.0801  0.1893
11705W        W27839  18.631   2.613   0.560  0.0758  0.1936  0.1851
11706W        W27840   1.183   9.166   1.991  0.0649 -0.2856 -0.0399
11707W        W27841   5.523   5.499   0.892  0.0454 -0.1138  0.2672
11708W        W27842  18.371   9.912  11.576  0.0077  0.1568  0.3425
11709W        W27843   9.745  10.193   2.861  0.0342  0.0419  0.2983
11710W        W27844  13.945   9.404  13.535 -0.0207  0.0611  0.0288
11711W        W27845  17.079   7.704   2.619 -0.1086  0.0972 -0.2289
11712W        W27846  10.928   5.122  15.141 -0.2955 -0.0676 -0.2790
11713W        W27847   1.327   5.614   1.996  0.1528  0.0030  0.0803
11714W        W27848   6.393   3.586   1.980 -0.1096  0.0251 -0.0192
11715W        W27849   1.382   4.100   1.328 -0.0656  0.2656 -0.0235
11716W        W27850   3.502   6.284  10.147 -0.2771 -0.1693 -0.0899
11717W        W27851  13.678  14.021  11.652 -0.3864 -0.0244 -0.1713
11718W        W27852  12.494   0.358  13.363 -0.0869 -0.0010  0.0473
11719W        W27853  18.303  17.501   3.937 -0.1646  0.2442 -0.2234
11720W        W27854  15.916   0.898  12.718 -0.1635  0.2170  0.1603
11721W        W27855  16.324   1.365  11.982  0.3099  0.2389  0.3554
11722W        W27856   3.268  14.463   0.364 -0.0968  0.2932 -0.2316
11723W        W27857  14.334  16.778   1.914  0.2246  0.4060 -0.1303
11724W        W27858   9.652   7.571   1.113 -0.3623 -0.1182  0.3456
11725W        W27859  16.282  18.041   2.697 -0.2328  0.0230 -0.1093
11726W        W27860  17.046  11.299   4.852  0.2104 -0.1073  0.0098
11727W        W27861  15.760   7.475  11.072 -0.1924  0.1803 -0.0969
11728W        W27862   0.198   1.516   3.026 -0.1967  0.2774 -0.2175
11729W        W27863  10.765  11.267   4.294  0.0130 -0.0816 -0.3231
11730W        W27864   2.794  14.399   2.984  0.2885  0.0544  0.0073
11731W        W27865  11.490   8.040  11.819 -0.2713  0.0103  0.2873
11732W        W27866  10.476  10.482  11.394  0.0894  0.1503  0.3515
11733W        W27867  13.350   0.012  13.182 -0.0258  0.3046 -0.1636
11734W        W27868  16.347  16.035  12.264 -0.0156  0.1192 -0.0231
11735W        W27869  16.830  17.724   5.358  0.2835  0.0410  0.1415
11736W        W27870  18.093  10.170   0.677 -0.2443  0.0125  0.2595
11737W        W27871  16.776  14.551  14.451 -0.0368 -0.0565  0.1247
11738W        W27872  10.724  12.628   0.433  0.3421 -0.0436 -0.0006
11739W        W27873  14.271  17.333  13.119 -0.0199  0.2345  0.1307
11740W        W27874   0.790   5.316  15.245 -0.0469 -0.3375 -0.1584
11741W        W27875   0.641   7.825   4.448 -0.1781 -0.3918  0.1405
11742W        W27876   0.413   1.062   0.975 -0.1042 -0.1548 -0.4428
11743W        W27877   1.972   1.341   4.783 -0.0284  0.1039  0.0071
11744W        W27878  11.740  12.827   3.258  0.0867  0.0801 -0.3065
11745W        W27879  14.544   6.179   1.242 -0.1932 -0.1077 -0.0641
11746W        W27880   4.290  18.370   1.772  0.0476  0.0440 -0.0172
11747W        W27881   9.502   9.346  11.041  0.0825 -0.0077  0.1687
11748W        W27882   4.678  13.414   3.341  0.0043  0.1636 -0.0091
11749W        W27883  16.364   5.895   3.441 -0.5970 -0.1711  0.0305
11750W        W27884   5.140  14.770  13.637 -0.3155  0.2916  0.2925
11751W        W27885  12.058   7.663  14.473  0.0735  0.1407  0.0105
11752W        W27886   6.569  15.410  14.887  0.1461 -0.0054  0.1284
11753W        W27887   3.894  11.022   3.249 -0.3659  0.1892 -0.0083
11754W        W27888   0.133  11.630   5.192  0.0985 -0.3883 -0.1348
11755W        W27889  18.790  18.398   4.964 -0.0419  0.2184  0.2801
11756W        W27890  11.242   3.542   0.730  0.2517  0.3885 -0.0958
11757W        W27891  16.594  17.978   2.283  0.1831  0.2852 -0.3637
11758W        W27892  13.403   8.124   2.046  0.1386 -0.0740  0.0286
11759W        W27893   0.025   2.266   1.580 -0.0928 -0.2212  0.1851
11760W        W27894   1.807  11.348   2.513  0.3554 -0.0832  0.0168
11761W        W27895  17.318  12.842   1.482 -0.0226  0.0934  0.0353
11762W        W27896   5.685   3.097   2.330  0.3243 -0.4447  0.0093
11763W        W27897   9.534  18.069  14.648  0.0713  0.0048 -0.2616
11764W        W27898  15.440  16.225   1.233  0.3414 -0.2869 -0.0878
11765W        W27899   4.395  15.841   3.743 -0.0103 -0.5108 -0.3242
11766W        W27900  14.908   5.840  11.270 -0.5972 -0.0766  0.0135
11767W        W27901  11.136  11.827  14.915 -0.1608  0.0787 -0.1295
11768W        W27902  12.559  16.187  14.922 -0.1211  0.2848  0.0165
11769W        W27903  18.181   6.459   2.802 -0.0102  0.2074  0.2523
11770W        W27904   3.339   2.739  10.438 -0.2238 -0.3735 -0.2499
11771W        W27905   5.710   4.364   0.146 -0.0717  0.0426  0.3406
11772W        W27906   7.379   5.892   4.030  0.0074 -0.0051 -0.1035
11773W        W27907  10.329   2.583   2.140  0.2430 -0.1216 -0.2364
11774W        W27908   2.266  10.337  10.398  0.1820  0.4713 -0.0841
11775W        W27909  11.509  14.026  11.999 -0.2112  0.2127  0.1732
11776W        W27910  11.733   0.149  12.905  0.3177  0.1994  0.3721
11777W        W27911  10.655   4.817   3.476  0.1350 -0.1749 -0.2272
11778W        W27912   3.843  18.664  13.107 -0.3889  0.0059  0.0466
11779W        W27913  17.147   2.507  13.865 -0.0711  0.1192 -0.1181
11780W        W27914   7.086   8.359   1.254 -0.1786 -0.1469  0.1106
11781W        W27915  14.646   5.423   2.572  0.0651  0.0196 -0.1587
11782W        W27916  10.825   4.800  10.590 -0.0415 -0.0133 -0.1837
11783W        W27917   4.301   2.424   0.811  0.2551 -0.0214  0.1635
11784W        W27918   1.220   1.269  12.949  0.0150  0.1440 -0.1323
11785W        W27919   0.960   4.189  13.181 -0.1872  0.0444  0.1749
11786W        W27920   2.184   2.540  10.758  0.5494  0.0685 -0.2297
11787W        W27921   1.044   8.832   0.071  0.0304 -0.0462 -0.0706
11788W        W27922   3.153   4.624   2.637 -0.0530  0.1872  0.1330
11789W        W27923   9.783  15.626  12.106  0.4345  0.0392  0.0454
11790W        W27924  10.205  11.681  14.734 -0.2227  0.2502  0.0428
11791W        W27925  15.375  13.243  14.651 -0.1197 -0.0844  0.0530
11792W        W27926   1.027   8.959   3.071  0.2366  0.1474  0.0920
11793W        W27927   3.298   9.313   5.214 -0.1486  0.0165 -0.0185
11794W        W27928  15.794  16.381  10.431 -0.2877 -0.0106 -0.1016
11795W        W27929  13.703   9.073   3.251  0.0441 -0.2624  0.2663
11796W        W27930  16.585  18.295   1.519 -0.2437  0.2272 -0.1469
11797W        W27931  12.459  12.168   3.600 -0.2334 -0.1581 -0.2059
11798W        W27932   3.522  18.984   4.199 -0.2600  0.2192  0.1453
11799W        W27933   9.149   5.174   1.639  0.0004  0.4422 -0.0761
11800W        W27934  13.203  11.055   0.468  0.1240 -0.1425  0.0325
11801W        W27935   4.317   5.737  11.794 -0.0578 -0.1421 -0.0695
11802W        W27936  19.007  11.980  12.546  0.2837 -0.1526  0.3142
11803W        W27937   5.357  18.371  11.556 -0.1470  0.2518 -0.0395
11804W        W27938  13.542   9.772   0.740 -0.1773  0.1130 -0.0339
11805W        W27939   2.013  12.837  15.239  0.1595  0.0250  0.1240
11806W        W27940   0.616  18.375  11.989  0.1127  0.2182  0.1008
11807W        W27941   6.882   3.655   0.071 -0.1246 -0.0447  0.3297
11808W        W27942   2.805   8.315  14.583  0.2802 -0.0655  0.1021
11809W        W27943  10.046  11.165  11.878  0.1068 -0.2641  0.1618
11810W        W27944  10.126  10.504   3.723  0.0608 -0.0682  0.3978
11811W        W27945  12.089   9.396  12.375  0.0910  0.4475 -0.1106
11812W        W27946   9.284  16.259   5.645 -0.0713 -0.4829  0.1924
11813W        W27947   3.194  17.161  12.910 -0.0015 -0.3103  0.1436
11814W        W27948  13.538   6.744   1.893  0.0927  0.0256 -0.4017
11815W        W27949  14.047   0.024  10.806  0.2442 -0.2797 -0.3047
11816W        W27950  18.714  14.814  13.973  0.2229  0.1544 -0.0347
11817W        W27951  11.371  17.467  12.930  0.4571  0.0352 -0.4306
11818W        W27952  10.217   7.423  13.719 -0.1258  0.0893 -0.1692
11819W        W27953  14.333   3.623   4.170 -0.0118  0.0130  0.0123
11820W        W27954   3.386  15.383  14.839 -0.2041 -0.0176 -0.0033
11821W        W27955  10.993  18.224   2.508  0.0327 -0.0106  0.2051
11822W        W27956   7.472  15.943   4.525  0.1353 -0.0683 -0.1406
11823W        W27957   3.690   0.211   1.495  0.0706 -0.0497  0.1397
11824W        W27958  16.071   5.364  13.337 -0.2795  0.1960 -0.0724
11825W        W27959   2.258   8.390  11.428  0.1574  0.0921  0.2202
11826W        W27960   6.456  10.164  13.104  0.0127 -0.3748  0.3756
11827W        W27961  18.459   5.935  10.687 -0.0428 -0.2795 -0.1599
11828W        W27962   7.735  16.301  14.436  0.0981 -0.2085 -0.3425
11829W        W27963   5.754   9.562  10.877  0.2302 -0.3402 -0.3325
11830W        W27964   4.420  13.630  14.542  0.0586 -0.1072 -0.2022
11831W        W27965   4.731   2.916   5.242  0.2173  0.2891  0.0296
11832W        W27966  18.056  15.094  14.220  0.1672  0.0957 -0.2063
11833W        W27967  17.259   1.216   4.959  0.1273 -0.0924 -0.0207
11834W        W27968  10.130   0.840   3.036 -0.2740  0.2623 -0.4735
11835W        W27969   4.163  10.673  13.273  0.2209  0.1997 -0.2539
11836W        W27970   0.274  17.570   1.645  0.0528  0.0129  0.2416
11837W        W27971   5.778  17.970   3.968 -0.2440  0.5032 -0.1577
11838W        W27972  15.828  14.071   3.255  0.2634 -0.2504  0.1654
11839W        W27973   2.048   0.334  14.684 -0.2337  0.1463 -0.0770
11840W        W27974   6.744  10.680   2.003 -0.1808 -0.0793  0.2255
11841W        W27975  10.179  17.819   4.355  0.0755  0.2466  0.2184
11842W        W27976   2.696   7.700   1.452 -0.2169 -0.0265  0.0722
11843W        W27977   9.467   5.288   0.029 -0.0473  0.2742 -0.0532
11844W        W27978   7.113  17.050   2.776  0.2342 -0.0151  0.3390
11845W        W27979   8.316   0.436  10.606 -0.0772 -0.1332 -0.2737
11846W        W27980   6.247   1.230  11.306 -0.1431  0.2302 -0.1261
11847W        W27981  12.891  18.099   0.194  0.1433 -0.1599  0.4002
11848W        W27982  17.081  13.886  15.241 -0.0963 -0.0989  0.2024
11849W        W27983   6.355   5.325   4.331 -0.2892 -0.0221  0.0220
11850W        W27984  17.119   6.862   3.820  0.0583 -0.0510 -0.0680
11851W        W27985   8.031  10.385  14.952  0.0974 -0.1870  0.2109
11852W        W27986   2.529   0.733   2.713  0.0301  0.2828 -0.0733
11853W        W27987  11.713  11.189   4.990  0.0603 -0.1035  0.0554
11854W        W27988   7.553  16.715  14.736 -0.2278 -0.1762  0.0716
11855W        W27989  15.585   4.101   3.969 -0.0078  0.0815 -0.0815
11856W        W27990   6.116  11.897   4.770  0.1184  0.0863  0.3145
11857W        W27991  12.625  16.166  13.439 -0.0118  0.1708 -0.0326
11858W        W27992   3.510   4.976   1.216 -0.0108  0.0138 -0.1293
11859W        W27993  17.251  12.574  11.302  0.1038 -0.0770 -0.0620
11860W        W27994  16.975   0.267   2.517  0.3398  0.3536  0.0729
11861W        W27995  18.685  13.852   3.388  0.2533  0.0020  0.0086
11862W        W27996   5.544  15.031   4.452 -0.1286 -0.1063 -0.1558
11863W        W27997   0.713  17.657   2.899  0.1501 -0.0357  0.4275
11864W        W27998   8.395   8.603   4.745 -0.1039  0.1750 -0.0454
11865W        W27999   7.367   3.245   1.265  0.3188 -0.1914  0.0631
11866W        W28000  13.353  15.053  10.690 -0.2212  0.0855 -0.0562
11867W        W28001   1.731  13.351   3.760 -0.0537 -0.1020 -0.3574
11868W        W28002   3.817   2.439  14.371  0.2597  0.0459  0.0033
11869W        W28003  11.298  15.496   1.881 -0.0657 -0.2052 -0.0236
11870W        W28004  15.989  18.990  14.372  0.4207 -0.1880 -0.1892
11871W        W28005   4.139   8.514  14.172 -0.1985  0.1020 -0.0327
11872W        W28006  17.870   6.221   0.067  0.0769 -0.0696  0.2542
11873W        W28007   2.443  14.673  14.551  0.0323  0.1225 -0.2348
11874W        W28008   9.452  17.487   0.105 -0.3523  0.0947 -0.1362
11875W        W28009  12.492  18.643  13.091  0.1274  0.3584 -0.0862
11876W        W28010  18.300  11.964   9.588 -0.1883 -0.2029 -0.0810
11877W        W28011   5.059   5.093  11.534  0.3349  0.0890  0.1782
11878W        W28012  16.199   8.691   0.760  0.0132  0.0331 -0.3156
11879W        W28013   5.044  17.958  11.282  0.0161 -0.2571  0.1029
11880W        W28014  11.576   6.234  11.137 -0.2186  0.0834  0.1297
11881W        W28015   3.096   5.911   2.000 -0.1638  0.0087  0.2906
11882W        W28016   5.175   1.513   1.000  0.0314 -0.0838  0.0137
11883W        W28017  12.023  13.366   2.042 -0.2126 -0.1619 -0.1681
11884W        W28018  16.591  12.254   3.639  0.3050 -0.2182 -0.3105
11885W        W28019   8.641  16.366   3.321  0.0919  0.0438  0.2343
11886W        W28020   9.148   7.554  12.687  0.1010 -0.2396 -0.4298
11887W        W28021  11.983   7.537  11.093  0.4890 -0.3397  0.1410
11888W        W28022  18.180  18.716   1.209  0.2886 -0.2471 -0.0602
11889W        W28023   2.209  16.367   0.830 -0.1906  0.0177 -0.0489
11890W        W28024  18.422   6.253   5.444  0.1905 -0.2157 -0.2534
11891W        W28025  17.714  18.520   1.418 -0.0795 -0.1119 -0.1643
11892W        W28026  14.425  10.086  14.859  0.1395  0.0001  0.2593
11893W        W28027   3.944   5.721  12.213  0.0512  0.2204  0.2916
11894W        W28028   8.974  16.684  14.428 -0.1708  0.0145  0.3964
11895W        W28029  12.213  15.334   4.211  0.2939  0.0123  0.0453
11896W        W28030  18.671   1.639  13.269 -0.0070 -0.1122 -0.1596
11897W        W28031   5.551  10.176   0.637 -0.0242  0.0732  0.1716
11898W        W28032  13.081   1.629   1.712 -0.0978 -0.0352  0.1304
11899W        W28033   4.777  16.007   5.433 -0.1402 -0.0946  0.1599
11900W        W28034   1.645   5.983  11.256  0.2720 -0.0017  0.3444
11901W        W28035  16.006   9.964  12.148  0.2924  0.0179  0.0430
11902W        W28036  12.620   1.025   4.381 -0.1679  0.2097 -0.2789
11903W        W28037  15.852  18.011  14.767  0.0925  0.2526 -0.2576
11904W        W28038  11.893   2.268   0.034 -0.3812 -0.0621  0.0577
11905W        W28039   6.781   0.379   3.296  0.1249  0.0975 -0.1597
11906W        W28040  11.918  15.760  14.663 -0.0005  0.2053  0.0107
11907W        W28041   6.386   5.140  11.545  0.1347  0.0165  0.1503
11908W        W28042   3.036   2.946  13.961  0.1775 -0.1391  0.3438
11909W        W28043  17.856   5.905  14.173 -0.1719  0.0800 -0.0866
11910W        W28044  14.164   6.402   0.106 -0.0857  0.1626  0.0135
11911W        W28045  12.270  16.174   4.479 -0.3307 -0.1343  0.1541
11912W        W28046  10.926   2.342   2.175  0.1868  0.4197 -0.2657
11913W        W28047   6.113  13.913  14.902  0.2044 -0.1828 -0.1969
11914W        W28048  15.493   6.759  13.995 -0.0187  0.2285 -0.4929
11915W        W28049  11.716  15.991  13.744  0.2534  0.1456 -0.0528
11916W        W28050   1.902   1.699  12.377  0.1587 -0.0109 -0.2370
11917W        W28051   6.298  15.447   4.862 -0.2388 -0.0185  0.2115
11918W        W28052  18.257   9.274  12.964 -0.3844  0.0959 -0.0133
11919W        W28053   2.596  13.956  11.993 -0.1890 -0.1109 -0.2896
11920W        W28054  13.131  15.994  14.132  0.1325 -0.2540 -0.0302
11921W        W28055   6.472   6.968   2.493  0.0510  0.1572  0.0991
11922W        W28056   6.398   4.135   0.664  0.3187  0.0397 -0.0448
11923W        W28057   0.849   8.733   1.012  0.2056  0.0783  0.2052
11924W        W28058  16.066   5.861  13.191  0.1731 -0.0449 -0.2123
11925W        W28059  12.975  12.850   2.740  0.1833  0.0543 -0.2690
11926W        W28060  12.485   7.733   1.929 -0.4436 -0.1326  0.1169
11927W        W28061   0.128   4.104  12.863 -0.1733  0.0339  0.3229
11928W        W28062   4.638  16.621   1.917 -0.1792 -0.0547 -0.1560
11929W        W28063   8.195   6.005  11.475  0.3572  0.1462 -0.1908
11930W        W28064   1.967   6.543   3.820  0.1066 -0.0233  0.0458
11931W        W28065   5.614  12.995  12.080 -0.0436 -0.2402  0.1019
11932W        W28066  17.699  12.025  11.243 -0.0823  0.1419  0.0234
11933W        W28067  16.597  15.570   0.798  0.0218  0.1459  0.0742
11934W        W28068  14.969  12.741   3.854 -0.1567  0.1028 -0.0467
11935W        W28069  14.748  15.134   1.829  0.2404 -0.0877 -0.0010
11936W        W28070   1.303   9.846   5.170 -0.1196  0.1692  0.0949
11937W        W28071   1.234   3.094   0.273  0.2380  0.0791 -0.2144
11938W        W28072   5.905  18.877  11.295  0.1622  0.0620  0.0741
11939W        W28073  17.111   8.409   0.073 -0.1667 -0.1201  0.1704
11940W        W28074   0.851   9.988   1.294 -0.1122  0.3649 -0.3107
11941W        W28075   7.745  13.508  11.171 -0.4151  0.1123 -0.3535
11942W        W28076  12.885  14.395  12.832 -0.4458  0.1845  0.1610
11943W        W28077   6.756   8.420   3.879  0.0890 -0.0924  0.1870
11944W        W28078   5.803   3.997   1.623  0.1309 -0.1830  0.3236
11945W        W28079  11.297  13.384   2.161 -0.1666  0.0191  0.1416
11946W        W28080  10.661  15.305   9.859 -0.2050  0.1501  0.4803
11947W        W28081  16.022   8.447   2.011  0.0390 -0.0281  0.2512
11948W        W28082  15.890  12.077   1.913 -0.0243 -0.1996  0.1455
11949W        W28083   0.643   2.880   9.735  0.1444  0.0300  0.3633
11950W        W28084   1.293   9.330  11.521  0.0124  0.3355 -0.1156
11951W        W28085  12.974  17.633  13.642 -0.1068 -0.1246  0.0906
11952W        W28086  13.852   3.693  10.471 -0.1746 -0.1071 -0.1796
11953W        W28087   6.637   6.863  15.099 -0.0852  0.2846  0.2467
11954W        W28088  11.835   8.433  14.874 -0.1318  0.1702 -0.6012
11955W        W28089   3.170   5.830  13.601 -0.2456  0.1323 -0.2562
11956W        W28090  13.916  12.858   2.202 -0.0162 -0.4538  0.0492
11957W        W28091   1.345  12.707  14.599  0.1652  0.0023  0.0425
11958W        W28092  10.435   5.665  14.039  0.1172 -0.3499  0.1154
11959W        W28093  15.472  10.850   3.741 -0.2334  0.1045  0.0175
11960W        W28094   4.289  15.900   1.631  0.0483 -0.3716 -0.2291
11961W        W28095  11.170   6.054  14.829 -0.3146  0.2794  0.4716
11962W        W28096  11.844   3.162  14.428  0.2371 -0.0048 -0.2432
11963W        W28097   6.374   2.490  11.456 -0.2387  0.0032 -0.0283
11964W        W28098   3.783   8.375  14.871  0.2177  0.3148  0.0919
11965W        W28099  17.634   2.494  14.126  0.1873 -0.0301  0.0803
11966W        W28100   6.858  17.068   3.234  0.2231  0.4108  0.0965
11967W        W28101   4.975   0.132  13.123 -0.0803  0.0337 -0.1124
11968W        W28102   8.735  13.994  14.009  0.2689 -0.2498  0.3135
11969W        W28103   7.423   0.366  13.791 -0.0700 -0.0525 -0.1295
11970W        W28104  14.070   6.371   1.490 -0.0085  0.1624  0.2007
11971W        W28105   5.475   6.229   1.239  0.0268  0.2208  0.0419
11972W        W28106  10.499   1.458   4.899 -0.2068  0.0735 -0.2341
11973W        W28107   3.268  15.232   3.092  0.1112 -0.0219 -0.1222
11974W        W28108  11.979  13.973  13.679  0.4205  0.1466 -0.4523
11975W        W28109   2.555  13.564   0.466 -0.3254 -0.2067  0.0299
11976W        W28110   6.177  11.230  14.119  0.1148  0.1720 -0.2355
11977W        W28111   2.089   2.138  12.197 -0.4716 -0.0014 -0.0254
11978W        W28112  16.217   4.070  11.936 -0.1439 -0.1883  0.0934
11979W        W28113   0.363   6.000  10.736  0.3820  0.1921  0.0761
11980W        W28114   0.495   0.120   2.585  0.0238  0.1054 -0.2369
11981W        W28115  13.567   6.951  14.772 -0.1191  0.0134 -0.2698
11982W        W28116   3.552  18.685   3.196  0.0164  0.1162  0.1071
11983W        W28117  15.262   6.157  11.208 -0.0804 -0.1213 -0.1670
11984W        W28118   1.770   7.077  12.077 -0.1359 -0.2007 -0.0119
11985W        W28119   4.257   3.226   0.470 -0.1431  0.1058 -0.1754
11986W        W28120  17.962   2.992   0.349  0.3758 -0.0518 -0.1535
11987W        W28121   8.991  10.513   4.325 -0.1331 -0.0343  0.0278
11988W        W28122  16.615   3.907   2.347  0.0193  0.1672 -0.1055
11989W        W28123   0.130   2.155  14.654 -0.0403  0.0203  0.2091
11990W        W28124  12.370  13.608  12.164  0.0583  0.0180  0.0534
11991W        W28125   9.251  18.082   1.766 -0.4940 -0.3678  0.0922
11992W        W28126  16.279   2.590  11.906  0.1653 -0.2079 -0.1547
11993W        W28127  16.682   0.808  13.874  0.2169  0.1228 -0.1034
11994W        W28128   3.829   0.012   0.713  0.0774  0.1494 -0.1028
11995W        W28129   0.659   9.252   1.177 -0.1431  0.1494  0.2823
11996W        W28130   0.605  12.244   1.524  0.6136  0.0218  0.3114
11997W        W28131   3.087   8.320   1.599  0.2359 -0.0711  0.1445
11998W        W28132   4.563   8.763  15.116 -0.0158  0.1252  0.1469
11999W        W28133   7.191   0.222   3.073 -0.1292  0.0405 -0.1424
12000W        W28134  12.610   9.125   4.537  0.1062  0.1067  0.1010
12001W        W28135  12.881   3.000  14.044  0.2866 -0.2899 -0.1789
12002W        W28136  13.680  11.050  11.851  0.0921  0.2056 -0.2106
12003W        W28137   4.812  16.080   4.902  0.0165  0.1997 -0.1867
12004W        W28138   8.315   2.998  12.362 -0.2584 -0.0377 -0.1690
12005W        W28139  12.570  14.536  11.901  0.1229 -0.3642 -0.5733
12006W        W28140  14.073  10.222  11.627 -0.2378  0.2241  0.0093
12007W        W28141   0.382   3.129   1.735  0.0792  0.1459  0.2024
12008W        W28142  13.212  13.939   0.212 -0.0570 -0.2639 -0.1152
12009W        W28143   0.446  10.413   0.616 -0.2589 -0.1082  0.0756
12010W        W28144   2.159   9.824   4.454 -0.0216  0.1018  0.1455
12011W        W28145  13.013   5.699   5.156 -0.1511 -0.0056 -0.1837
12012W        W28146   5.739  16.485   4.546  0.0240 -0.0411  0.1059
12013W        W28147   8.735   4.905   0.164 -0.2803 -0.0172  0.4052
12014W        W28148   8.304  15.907  11.236  0.0041  0.2076  0.1262
12015W        W28149  13.274   6.889   3.490 -0.0218  0.0172 -0.2498
12016W        W28150   7.347  15.227   3.183  0.0552  0.3971  0.2635
12017W        W28151  14.264   8.117  14.959 -0.3618  0.2036  0.0088
12018W        W28152   6.585   6.378  11.761 -0.2971  0.0931 -0.2013
12019W        W28153   3.296  11.303   2.030  0.1554  0.4163 -0.0939
12020W        W28154  14.847  14.319   4.870  0.1726 -0.1835  0.2867
12021W        W28155   5.197  13.314   2.353  0.0500 -0.0653 -0.0728
12022W        W28156  16.078   7.028  11.339 -0.1812  0.1102 -0.0119
12023W        W28157  10.521   9.549   5.526 -0.0646  0.2360  0.0296
12024W        W28158  11.822  18.991   1.244 -0.2240  0.2350 -0.0029
12025W        W28159   8.515   2.842  11.949  0.1392 -0.0251 -0.3433
12026W        W28160   0.051  18.960  11.515 -0.4129 -0.3439  0.2156
12027W        W28161  18.234  15.620   4.412 -0.2827 -0.1566  0.1688
12028W        W28162  16.938  11.339   3.185  0.0333 -0.1786  0.0276
12029W        W28163  16.843  13.420   3.595 -0.0415  0.1752 -0.2696
12030W        W28164  13.663   1.560   2.384  0.2518 -0.0700 -0.3387
12031W        W28165  12.273   4.614   2.270 -0.0222 -0.2215  0.0770
12032W        W28166  13.361  13.695  11.408 -0.0226 -0.2088 -0.1409
12033W        W28167   9.167  18.314   3.435  0.5268  0.0060 -0.1913
12034W        W28168  15.121   5.058   0.000  0.2064  0.0435  0.1284
12035W        W28169   2.105  18.133   4.682  0.1282  0.0198 -0.0088
12036W        W28170  14.937  12.642  14.265 -0.0100  0.4648  0.1872
12037W        W28171   8.268   1.538   3.939  0.2435  0.0392  0.0825
12038W        W28172   3.370   6.028  13.062 -0.3588 -0.0981 -0.1729
12039W        W28173  17.650  17.694  14.300 -0.1251  0.1278 -0.0948
12040W        W28174   2.174  17.987  14.356 -0.1437  0.2356 -0.0300
12041W        W28175   3.091   1.645  15.134 -0.2660  0.4339 -0.2161
12042W        W28176   9.846  10.516   0.014  0.1164  0.2141 -0.1965
12043W        W28177   4.755  12.222  14.726 -0.1003  0.2012  0.1567
12044W        W28178   5.024  10.759  12.808  0.1153  0.2348  0.1567
12045W        W28179   7.319  17.232  11.876 -0.1770  0.1635  0.4121
12046W        W28180   9.614   9.913   1.511  0.0831  0.1217  0.1497
12047W        W28181   6.985   3.270   4.324 -0.1090 -0.1094  0.1175
12048W        W28182  12.226   6.502  12.122  0.1581 -0.2522 -0.0197
12049W        W28183   4.239  10.996  14.306  0.2524  0.0008 -0.1100
12050W        W28184   8.938  18.616  11.302  0.0213  0.0618 -0.1466
12051W        W28185  13.486  13.981  14.930 -0.0393 -0.0429  0.0202
12052W        W28186  16.281   8.521   3.163  0.1671  0.1651 -0.2933
12053W        W28187   2.140  16.765  14.512 -0.4348 -0.0293 -0.0518
12054W        W28188  15.167  12.520   0.452  0.0070 -0.2483 -0.1818
12055W        W28189  13.037  17.149  13.513  0.0744  0.2998  0.3467
12056W        W28190   7.861  18.896   2.338  0.1125  0.1914  0.1161
12057W        W28191  18.025   7.526   5.368  0.1620 -0.0436  0.1052
12058W        W28192   0.558  15.772  11.732 -0.1443  0.3343  0.2063
12059W        W28193  18.322   5.368  10.510 -0.4207  0.0198  0.1479
12060W        W28194   0.557  18.241   4.932 -0.0610  0.2659  0.1374
12061W        W28195  17.753  11.440  12.314  0.1723 -0.1282  0.0453
12062W        W28196  13.563   7.170   1.011 -0.0050 -0.0138  0.1048
12063W        W28197   9.284  11.662   0.444  0.0495  0.5495  0.1471
12064W        W28198  10.286   3.907   1.762 -0.2814 -0.3106 -0.0941
12065W        W28199  12.829  14.192  13.365  0.1032  0.0166  0.0043
12066W        W28200  13.998  13.444   3.090 -0.0090 -0.1390  0.0377
12067W        W28201   1.981  13.792   3.735  0.2739 -0.3662 -0.0200
12068W        W28202  11.894   4.186   0.279 -0.2022 -0.2881  0.0941
12069W        W28203  11.861   1.929   5.348  0.3258 -0.0435 -0.1638
12070W        W28204  11.237   6.965   4.766 -0.3898  0.1573 -0.1438
12071W        W28205  14.677  11.660   9.927  0.0702  0.1249 -0.1690
12072W        W28206  12.879   8.041  13.561  0.0016 -0.0681  0.0666
12073W        W28207   0.888  17.494   0.074  0.3473 -0.2969  0.0139
12074W        W28208  18.381  13.456   0.863 -0.2103 -0.3706  0.0346
12075W        W28209  18.744  16.789   2.650 -0.1403  0.1130  0.2391
12076W        W28210   8.650  13.092  13.620 -0.1035  0.2901  0.0360
12077W        W28211   6.997   2.848  12.006  0.1397 -0.3152  0.0733
12078W        W28212   2.405   1.187  10.511 -0.1892 -0.2649 -0.0735
12079W        W28213   3.547   2.452   0.946 -0.1511 -0.2591 -0.0225
12080W        W28214   0.914  15.584   0.271 -0.2721 -0.2465  0.1574
12081W        W28215   6.621   8.531  14.318 -0.0181 -0.2859 -0.2357
12082W        W28216   9.740   7.526  13.455  0.0626  0.1604  0.1275
12083W        W28217   1.214  12.997  14.984 -0.0689 -0.4354 -0.0938
12084W        W28218   9.397   2.918  12.251 -0.1768  0.2212 -0.1058
12085W        W28219   8.111   3.159  11.932  0.1020 -0.2200 -0.2585
12086W        W28220  14.237   5.059  12.754 -0.2649 -0.2437  0.0035
12087W        W28221   5.566  12.292   2.210 -0.3191  0.0605 -0.0090
12088W        W28222  15.996  15.236   1.871 -0.1185  0.0849  0.2986
12089W        W28223   1.580  12.200  10.385  0.2153  0.2416 -0.4790
12090W        W28224  15.293   3.110  11.682 -0.2807  0.2422  0.0033
12091W        W28225  18.199  13.205   3.333 -0.1551  0.1921  0.0122
12092W        W28226  16.224  10.695  11.901  0.0400  0.1208  0.1091
12093W        W28227   1.507   0.990   1.760  0.0115 -0.1174 -0.1715
12094W        W28228   2.496   4.059   0.709 -0.0669 -0.1367 -0.5595
12095W        W28229  15.648   0.882   4.225  0.3529  0.0438  0.0613
12096W        W28230  18.910   9.251   4.378  0.0698  0.1606  0.2159
12097W        W28231  11.457  11.101   2.288 -0.0157  0.1835 -0.1171
12098W        W28232   6.750  13.340   3.199 -0.1741 -0.0746  0.0178
12099W        W28233   7.241   9.118   2.515  0.3053  0.1344  0.0317
12100W        W28234   3.079   1.327   2.856 -0.2438  0.0125 -0.1741
12101W        W28235  15.058   5.323   1.159  0.2037  0.1415  0.1003
12102W        W28236   4.802   2.500  10.719 -0.0500 -0.1322 -0.2482
12103W        W28237  15.563   4.063   4.621 -0.0358  0.2079 -0.4581
12104W        W28238   4.626  11.731  13.992 -0.2694 -0.0486 -0.1688
12105W        W28239  17.297   2.272  12.248 -0.0170  0.0276 -0.0475
12106W        W28240   2.122  18.900   5.122  0.0175  0.1624  0.2033
12107W        W28241  16.344  18.581   2.968  0.2300 -0.4103  0.1632
12108W        W28242  10.630   3.466   3.047 -0.2169 -0.0074 -0.2567
12109W        W28243  18.902   7.740  13.202 -0.1300 -0.1024  0.2385
12110W        W28244   8.875  13.558   0.186  0.1012 -0.0335 -0.1387
12111W        W28245  13.375  11.561   3.910 -0.0410 -0.0909 -0.1405
12112W        W28246   5.550   5.647  11.328 -0.1310 -0.0332  0.6370
12113W        W28247  13.316  13.008  12.777 -0.1591  0.2997 -0.1657
12114W        W28248  12.851  12.960  14.153 -0.0543  0.0588  0.1746
12115W        W28249   2.310   2.109   2.497  0.1471  0.1291 -0.1783
12116W        W28250   3.210   2.350   3.003 -0.0180 -0.1892 -0.0241
12117W        W28251  10.849   6.010   2.552  0.1661 -0.3613 -0.2350
12118W        W28252  16.476   6.816  13.144 -0.2797 -0.1453  0.1836
12119W        W28253  13.057   6.673   0.083  0.2690 -0.0365  0.1938
12120W        W28254  13.616   1.111   0.668  0.0611 -0.1091 -0.1198
12121W        W28255  10.019   1.919  13.164 -0.3139 -0.2117  0.0048
12122W        W28256  15.929   7.914   4.355  0.2091 -0.0911  0.1844
12123W        W28257  12.868   9.213  12.372 -0.1440 -0.0330  0.3118
12124W        W28258  18.758  15.935   3.724 -0.2610  0.2520  0.1786
12125W        W28259  11.792  18.394  14.306 -0.1640 -0.1747 -0.1413
12126W        W28260   4.999   1.212  13.633 -0.0263 -0.0532 -0.1040
12127W        W28261  15.854  13.400  11.761 -0.0469  0.2903 -0.0147
12128W        W28262   5.142  13.245   1.876  0.2126  0.0756  0.3933
12129W        W28263  13.914   8.360  13.421  0.0057  0.2034 -0.3700
12130W        W28264   2.204  14.629   9.713 -0.2747 -0.4622 -0.0575
12131W        W28265   9.848  17.036   1.136  0.2551 -0.1042 -0.1183
12132W        W28266  11.019   6.709   2.473  0.0409  0.3314 -0.1837
12133W        W28267  16.050  10.204   2.215  0.4132 -0.0210  0.0913
12134W        W28268   5.434   5.917   3.688  0.3702  0.0816  0.2032
12135W        W28269   9.496   1.739   3.975 -0.1992 -0.1815 -0.2224
12136W        W28270  10.075   9.149   3.728  0.0193 -0.0173  0.1926
12137W        W28271  15.379  17.503  12.342  0.1363 -0.2238  0.2217
12138W        W28272   7.316  12.594   0.394 -0.0435  0.2348 -0.1383
12139W        W28273   3.256  11.147   4.429 -0.0321  0.0914  0.3046
12140W        W28274   7.885   3.713  12.589  0.0752  0.0452  0.1632
12141W        W28275  14.659   9.640  13.838  0.1576  0.1736 -0.1483
12142W        W28276  16.045  16.053  11.408 -0.0755 -0.0371 -0.0330
12143W        W28277   1.122  10.462  12.747 -0.3476  0.0267  0.1019
12144W        W28278  10.993  16.404   1.193 -0.2266 -0.1037  0.0563
12145W        W28279  16.809  11.126   5.638  0.2151  0.0387 -0.0053
12146W        W28280  16.031  10.869  11.423  0.1185  0.2334 -0.2764
12147W        W28281   7.522   9.336   4.370  0.0891 -0.0948 -0.1487
12148W        W28282  16.037  17.684  12.845  0.2046  0.0706 -0.3629
12149W        W28283   4.222  10.214  11.054 -0.0694 -0.0138  0.0612
12150W        W28284  15.726   3.970  13.882  0.1018  0.1120 -0.0380
12151W        W28285  10.326  10.675  15.138  0.1428  0.0706 -0.0195
12152W        W28286  13.927  17.029   4.086  0.1937 -0.3103  0.4445
12153W        W28287   1.192  11.743  13.148 -0.0176 -0.1449 -0.3376
12154W        W28288   9.088   1.878   3.599  0.1473 -0.1220 -0.0663
12155W        W28289  14.197  17.552   0.358  0.1219  0.0829 -0.0093
12156W        W28290   3.500   2.887   1.220 -0.1627  0.0187 -0.0030
12157W        W28291  13.993   0.288  13.381 -0.1757  0.1159 -0.3214
12158W        W28292   7.410  11.547   3.728  0.1504 -0.1275 -0.0942
12159W        W28293  10.886   5.084   5.532  0.0698 -0.3296  0.0188
12160W        W28294   7.396  11.386   1.993  0.1477 -0.0116 -0.2296
12161W        W28295   8.762  16.939  12.516  0.2210 -0.1500 -0.2470
12162W        W28296   0.977   4.501   2.497  0.0237  0.2295  0.1567
12163W        W28297   2.509   5.569   2.827 -0.2148  0.4705  0.0061
12164W        W28298   1.381  10.718   3.751  0.2223 -0.2998 -0.5684
12165W        W28299   5.817   3.862   3.203 -0.0162  0.1169  0.2739
12166W        W28300  15.642   7.607   4.703  0.0823  0.1538 -0.2599
12167W        W28301   1.717  11.744  14.954 -0.0508 -0.2056 -0.0108
12168W        W28302  13.890  16.693   2.157  0.1603  0.3323  0.2230
12169W        W28303   6.525  16.350  14.552  0.1824 -0.2292  0.1115
12170W        W28304  18.150   5.282  12.078 -0.2590  0.0130 -0.0840
12171W        W28305   0.267   2.869  13.637  0.1659  0.0102  0.3054
12172W        W28306   5.804   2.989  12.478  0.2876 -0.0035 -0.2432
12173W        W28307  16.945  10.105   2.822 -0.0701 -0.0739  0.0172
12174W        W28308   2.523   0.875  15.228  0.3047  0.0698  0.0804
12175W        W28309   2.059  14.734   0.917  0.3174 -0.0235 -0.1361
12176W        W28310   6.529  12.362   2.193 -0.0565 -0.1182 -0.2412
12177W        W28311   3.911   3.377   0.814  0.1448  0.2204  0.0948
12178W        W28312  10.683  16.554  12.216 -0.1559  0.0271  0.1378
12179W        W28313   4.484  16.927  11.745 -0.0668  0.2971 -0.1826
12180W        W28314  12.067   3.435   5.675  0.0187  0.0231 -0.1928
12181W        W28315  11.415   8.401   1.664 -0.0124 -0.2666  0.2003
12182W        W28316   5.509   6.178  10.432  0.0973  0.0478 -0.0350
12183W        W28317   1.750   9.019   1.224 -0.2176 -0.2988 -0.0859
12184W        W28318  13.612  18.666   1.087  0.0829  0.0615  0.1151
12185W        W28319   5.415   5.175  14.172  0.0842  0.4036 -0.0348
12186W        W28320  12.950  11.598  11.302 -0.0085  0.2268  0.1914
12187W        W28321   9.138   3.997  14.315  0.3943  0.2605  0.1927
12188W        W28322  17.612  17.624  14.757 -0.0062 -0.0829 -0.2394
12189W        W28323   6.913  11.968  14.841  0.0259  0.1503  0.1525
12190W        W28324   6.385   1.543  13.514  0.0690 -0.1716  0.0347
12191W        W28325   8.344  15.547  14.444 -0.0922 -0.2131 -0.1280
12192W        W28326  14.315  15.362  12.980 -0.0316 -0.1740 -0.1390
12193W        W28327  13.540  11.454  13.676 -0.0057  0.1227 -0.2728
12194W        W28328   3.011  10.127  12.977 -0.2042  0.0404 -0.1737
12195W        W28329  16.095  14.437  11.628 -0.1082 -0.0967  0.3988
12196W        W28330   5.844  13.398   4.847 -0.0725 -0.1209 -0.1306
12197W        W28331   6.807  16.436  10.841  0.2883 -0.2059 -0.0712
12198W        W28332   2.523   6.387  12.432 -0.1190  0.1263 -0.1545
12199W        W28333  11.956  14.757   3.213 -0.2644 -0.0262 -0.0715
12200W        W28334   6.145   2.950  11.230  0.1551 -0.1129 -0.0733
12201W        W28335  10.863   2.883  14.000  0.0784 -0.0329  0.0454
12202W        W28336  10.034  12.340   2.607  0.1334  0.0751  0.2159
12203W        W28337   2.468  10.817  11.761 -0.1414  0.1400  0.0371
12204W        W28338   6.965  11.704  11.836 -0.2200  0.0799 -0.0898
12205W        W28339   8.699  14.942   0.313 -0.3028  0.0728 -0.0863
12206W        W28340  14.546   2.309   3.362  0.0722 -0.1786 -0.1252
12207W        W28341  12.368  12.231  15.138  0.2433 -0.1690  0.1622
12208W        W28342  17.223  15.539   4.445  0.3366 -0.3394 -0.0745
12209W        W28343   9.763   3.110   2.291 -0.0618 -0.2722 -0.1121
12210W        W28344  11.570  18.935  11.655 -0.0237 -0.0598  0.1053
12211W        W28345   8.200  14.943   0.760 -0.0845  0.4597  0.0492
12212W        W28346  10.992   6.422  11.296  0.0731  0.2073  0.0965
12213W        W28347  10.056  15.323  13.862  0.1629  0.0209 -0.0219
12214W        W28348  11.375   1.519  10.448  0.2082 -0.0473 -0.1792
12215W        W28349   7.724  13.896  13.647 -0.2970 -0.3130 -0.4346
12216W        W28350  18.426  17.017   2.949 -0.0863 -0.2234  0.2005
12217W        W28351  13.427  11.700   0.987  0.0788 -0.0326 -0.0665
12218W        W28352   8.525   6.950   3.368  0.1874 -0.2389  0.3182
12219W        W28353  18.236   3.344   1.689 -0.2331  0.0647  0.3001
12220W        W28354   4.170   8.991  12.887 -0.0104  0.3824  0.0659
12221W        W28355  14.584   4.484  11.389  0.0388 -0.0168  0.2793
12222W        W28356  15.766  18.034   2.702 -0.2517  0.1228 -0.0110
12223W        W28357   4.283  10.263  13.584  0.0757 -0.4230 -0.2238
12224W        W28358   6.686   9.951  10.363  0.2096 -0.1558  0.0001
12225W        W28359  18.126  18.082   4.124  0.1084  0.0571  0.2804
12226W        W28360   6.774  13.377  13.479 -0.0382  0.1444 -0.1104
12227W        W28361  10.786   8.534   2.013  0.1919 -0.2596  0.4200
12228W        W28362   1.928  13.777  12.460 -0.1620 -0.0041  0.0886
12229W        W28363   1.101  12.821   3.744 -0.2542  0.1000  0.1764
12230W        W28364  18.078  10.353  14.792 -0.2338 -0.2430 -0.0166
12231W        W28365   8.907   0.622   2.117 -0.2299  0.0247 -0.1746
12232W        W28366  14.818  17.482   4.804 -0.1444  0.1742 -0.3615
12233W        W28367  18.359  11.549  12.237  0.1307 -0.3791 -0.4950
12234W        W28368  11.811   3.261   5.290  0.0425 -0.0611  0.2618
12235W        W28369   1.952  17.485   0.353  0.2095  0.1852 -0.1366
12236W        W28370  12.737  18.914  13.436 -0.1635 -0.0758 -0.0761
12237W        W28371   5.733  12.201   2.708  0.2550  0.0376  0.0757
12238W        W28372   5.790   8.474  12.751  0.1173 -0.2238  0.1951
12239W        W28373  17.586  12.704   2.763 -0.0548 -0.1102 -0.0703
12240W        W28374   4.803   3.453   1.989 -0.2609  0.1197  0.0278
12241W        W28375  12.549  15.827   4.275  0.0264 -0.1320 -0.0925
12242W        W28376  12.835   2.446   1.441  0.0647  0.0081 -0.1744
12243W        W28377  15.923   6.210   2.349  0.2168  0.0194  0.0975
12244W        W28378  15.000  11.592   0.380  0.1671  0.0102 -0.3221
12245W        W28379   5.559  15.493  14.066 -0.2800  0.1792  0.0388
12246W        W28380  14.042   6.362  13.914 -0.0230 -0.2808  0.0435
12247W        W28381  10.489   4.792  13.008 -0.1590 -0.1221  0.2349
12248W        W28382   7.818   6.890  14.158  0.1642 -0.0305  0.1758
12249W        W28383  18.901   5.123  14.030  0.1476  0.0463  0.2253
12250W        W28384   1.801  14.625   5.215  0.0170  0.0148  0.1926
12251W        W28385  18.859  10.903  12.644 -0.3240 -0.3822 -0.1004
12252W        W28386  14.525   7.857   4.421 -0.2925 -0.0751  0.0055
12253W        W28387   7.971   8.487  14.557  0.2213  0.1421  0.0859
12254W        W28388   6.648  17.980  13.118  0.0146  0.1789  0.1610
12255W        W28389  10.907  17.435   5.093 -0.1094  0.0478  0.1082
12256W        W28390   0.757   4.526   4.742  0.3232  0.0712 -0.0534
12257W        W28391  10.781   9.815  10.194 -0.1050 -0.0957 -0.0511
12258W        W28392  15.231  12.275  10.595  0.2976  0.1491  0.0216
12259W        W28393  18.499   0.933  12.124 -0.1234  0.0415  0.0304
12260W        W28394   5.064   0.749   2.014 -0.2440  0.2058  0.1274
12261W        W28395   5.548   5.486  14.916  0.0610  0.1110  0.1473
12262W        W28396  15.892   0.127  10.326 -0.0348  0.3769 -0.0545
12263W        W28397  17.971   8.461  14.447  0.2342 -0.0605  0.1063
12264W        W28398   8.451   4.546  13.323  0.2982 -0.3108  0.3269
12265W        W28399   2.849   3.707  14.359  0.2578  0.1786  0.0221
12266W        W28400  11.786  16.517   0.861  0.0746 -0.2958  0.0906
12267W        W28401   8.666  10.953  11.881  0.0479 -0.0187  0.2795
12268W        W28402  16.622  10.551  14.898 -0.0107 -0.2861  0.1077
12269W        W28403  10.816  15.283   4.228 -0.0164 -0.0853 -0.4151
12270W        W28404  16.127  13.933   4.982  0.1564 -0.1197 -0.2365
12271W        W28405   4.934   9.382   2.337  0.1426  0.2012 -0.0005
12272W        W28406  15.491   0.253   4.945  0.1768 -0.2001 -0.2565
12273W        W28407   3.902   9.101   2.119  0.0038  0.1187  0.1205
12274W        W28408   7.490  10.306   1.015  0.1078  0.0635  0.0475
12275W        W28409   4.923   9.506   0.759  0.1442  0.0439 -0.1826
12276W        W28410  15.276   0.217  12.271 -0.2881  0.0773 -0.0397
12277W        W28411  12.287  16.360   2.519  0.2069  0.1538 -0.2732
12278W        W28412   9.840   4.434  14.273  0.1628  0.1772  0.3072
12279W        W28413  14.483   7.194   0.663 -0.0730 -0.1671  0.1228
12280W        W28414  19.002   0.101   0.182  0.2793  0.1558  0.0391
12281W        W28415  14.026  10.013   2.409 -0.0934  0.2361  0.1707
12282W        W28416   8.537   7.457  11.983 -0.1390 -0.0395 -0.1288
12283W        W28417   9.858  10.121   4.400 -0.0797 -0.1434 -0.0386
12284W        W28418   3.187   2.338  12.757 -0.1486  0.3880  0.1401
12285W        W28419   2.646  12.698   0.204 -0.0985 -0.4537  0.2027
12286W        W28420   4.126  15.537   0.358  0.2013 -0.2387  0.1174
12287W        W28421   5.285   2.415   1.856 -0.2896  0.0534 -0.2444
12288W        W28422   0.017   4.357   5.376  0.2553  0.2322  0.0165
12289W        W28423  14.637  11.546  12.824 -0.1491  0.0984  0.2367
12290W        W28424   7.267   9.119  14.116  0.2283  0.0478  0.0929
12291W        W28425   8.682   0.986   0.011  0.2603 -0.1558 -0.1245
12292W        W28426   5.862  17.355   1.017  0.1572  0.1760 -0.0945
12293W        W28427   8.235  18.607   4.523 -0.0352 -0.0651 -0.2666
12294W        W28428  11.017   3.912   0.274  0.3114 -0.2174  0.0088
12295W        W28429  16.468  11.563   5.433 -0.1923 -0.1088  0.1397
12296W        W28430  14.217  18.582  10.525 -0.0898  0.0326  0.0384
12297W        W28431  10.906  10.777  12.101  0.2596 -0.1346  0.2783
12298W        W28432  11.768   1.093   2.072 -0.0446  0.2023  0.0131
12299W        W28433   9.262   4.984   3.405 -0.0032 -0.5333 -0.1188
12300W        W28434   0.703   6.988   0.393  0.4640 -0.0044  0.0499
12301W        W28435  10.066   4.048   3.598  0.0236  0.0503  0.2342
12302W        W28436   7.938   0.839   4.550 -0.0257  0.2456  0.1313
12303W        W28437  16.334   1.199   2.352 -0.1100  0.0763 -0.1966
12304W        W28438   5.260   7.742   3.171 -0.0062 -0.4529  0.2817
12305W        W28439   2.585   0.734  10.640  0.0027  0.0709  0.0924
12306W        W28440   6.424  12.728  13.429  0.1004 -0.1026  0.1001
12307W        W28441  18.187   0.514  13.462  0.2464 -0.0548  0.0066
12308W        W28442   1.613   7.079   3.161 -0.2251  0.1415  0.0073
12309W        W28443   5.047   2.892   1.699  0.1597  0.0921  0.2426
12310W        W28444  15.198   4.062  11.951  0.0138  0.2979  0.0884
12311W        W28445  10.524  17.866  12.437 -0.3201  0.2089 -0.0405
12312W        W28446  18.726  13.384  10.804 -0.0618 -0.0579 -0.0968
12313W        W28447  16.905  11.640  11.627 -0.1742  0.0524 -0.2554
12314W        W28448  16.614   3.763   1.811 -0.0430 -0.0775 -0.0635
12315W        W28449   3.398   0.402  15.001  0.2633 -0.2656 -0.0636
12316W        W28450   5.893  11.712  13.385  0.0966  0.1776 -0.0606
12317W        W28451  13.780   5.366   2.983  0.0668 -0.1052  0.1364
12318W        W28452  11.349   4.509   8.968 -0.0087  0.0488 -0.1959
12319W        W28453   2.620   8.499   2.738  0.0550 -0.1425  0.1959
12320W        W28454   0.572   6.633   1.074  0.0483 -0.1834  0.3039
12321W        W28455   8.542  13.253  11.004  0.1288 -0.0207 -0.1256
12322W        W28456  17.876   4.722   4.019  0.4813  0.2917  0.2640
12323W        W28457   6.452   5.187   2.174  0.0442  0.1109  0.1576
12324W        W28458  11.345   1.479   4.348  0.0342  0.1101  0.0416
12325W        W28459  15.221  10.195  11.372  0.2493  0.0168 -0.3677
12326W        W28460  14.000  14.015  14.840  0.0944  0.0049 -0.1595
12327W        W28461   6.374  10.356   1.231  0.0250  0.0361 -0.0126
12328W        W28462   2.993  11.747  14.525 -0.0077  0.4213 -0.0385
12329W        W28463  16.098  16.074   3.709 -0.2059  0.0963 -0.0203
12330W        W28464   2.823   1.782   2.627 -0.2207 -0.2732  0.1735
12331W        W28465   8.271   5.874   0.301 -0.1089  0.0066 -0.0667
12332W        W28466  16.266   4.645  14.407 -0.1886 -0.1412  0.1565
12333W        W28467  15.247  16.457   3.430 -0.0508  0.4387  0.3521
12334W        W28468  18.421  10.653   0.652 -0.1763 -0.1759  0.2659
12335W        W28469  17.733   9.610   1.567 -0.0312  0.4189 -0.2750
12336W        W28470  10.600   3.834   4.187 -0.0129  0.0569 -0.1634
12337W        W28471   1.904   6.882  13.546  0.1427 -0.0266  0.1010
12338W        W28472  15.537  12.527  12.477 -0.0193  0.1522  0.2829
12339W        W28473  17.381   8.363   1.313  0.1704  0.1923  0.3035
12340W        W28474   6.956  16.229  13.973 -0.0562 -0.2906 -0.0907
12341W        W28475  16.995  15.016  14.477 -0.0092 -0.1464 -0.1076
12342W        W28476   3.184   7.897   2.898 -0.2956 -0.3057 -0.0082
12343W        W28477  17.440   9.159  14.646 -0.2318 -0.3285  0.0882
12344W        W28478   2.247   1.549  10.830 -0.0025 -0.4352 -0.2818
12345W        W28479  16.504  14.752   1.017 -0.4491 -0.0713  0.2104
12346W        W28480   0.432  18.063   3.791 -0.1285  0.0022  0.1018
12347W        W28481  15.607  18.418  13.815 -0.0686 -0.0866  0.2010
12348W        W28482  15.684   5.790   5.273 -0.0953  0.0948  0.1605
12349W        W28483   9.379  18.655   4.208  0.2436  0.1298 -0.0263
12350W        W28484   2.899  16.293  13.325  0.0240  0.2935  0.0855
12351W        W28485   4.945  14.430  10.586 -0.2335 -0.2154  0.0983
12352W        W28486   6.443  10.421   0.513  0.0560  0.0836 -0.0438
12353W        W28487  15.683  16.636   3.592  0.3135  0.1278 -0.1292
12354W        W28488  13.090   5.127   0.632 -0.0214  0.0255 -0.0488
12355W        W28489  16.028  18.894   1.601 -0.0572 -0.2568  0.2523
12356W        W28490  17.598   0.441   4.282  0.0176  0.1873  0.1471
12357W        W28491   8.515   4.320   1.302  0.0865  0.1476 -0.0943
12358W        W28492   0.932  10.413  13.232 -0.0653  0.1892  0.0089
12359W        W28493   4.677  11.324   0.853  0.1400  0.0294 -0.1238
12360W        W28494   2.951  10.281   3.106  0.2212  0.1731  0.0938
12361W        W28495   3.132  16.846  13.331  0.3213  0.1433  0.1665
12362W        W28496  16.249  11.752  13.497 -0.0234 -0.1778 -0.0641
12363W        W28497  11.433  14.381   4.553  0.1320  0.2916 -0.0024
12364W        W28498   4.199   9.727   2.648 -0.3375 -0.1835 -0.0082
12365W        W28499   9.903   6.823   2.893 -0.0965 -0.2878  0.1338
12366W        W28500  10.961   2.919   3.425  0.0388  0.2961 -0.1012
12367W        W28501  11.280  17.640   2.652 -0.1535 -0.1581  0.1586
12368W        W28502  11.458  15.466   0.286 -0.0289 -0.0535  0.0758
12369W        W28503   4.301  17.068   4.718  0.0535  0.0379  0.1211
12370W        W28504   8.586  16.294  11.346 -0.0598  0.2260  0.3010
12371W        W28505  17.202   0.718  13.869  0.6402  0.1946  0.0770
12372W        W28506   5.638   5.531   5.302  0.2889 -0.1494  0.1959
12373W        W28507   4.125  10.919   4.792  0.3542 -0.2856  0.1555
12374W        W28508   2.387  16.661   9.413  0.0545 -0.1213  0.1996
12375W        W28509  18.731   3.250  14.813  0.2819  0.0687 -0.1987
12376W        W28510  13.354  17.812   4.992  0.1363 -0.0494  0.0493
12377W        W28511  13.871  11.449   4.064  0.1818 -0.1867 -0.3269
12378W        W28512  16.904  11.909  12.902 -0.2284 -0.0095  0.0669
12379W        W28513  13.940   7.081   3.976  0.2983 -0.3590 -0.1439
12380W        W28514  12.505   6.342   4.572 -0.0720  0.0168  0.1765
12381W        W28515   9.069   3.133   4.108  0.1301  0.0584  0.2906
12382W        W28516  11.802  12.192   2.088 -0.1304  0.0689  0.1178
12383W        W28517   4.022   9.765   3.632 -0.1012 -0.3928  0.0386
12384W        W28518  16.221  10.997   1.901 -0.0247 -0.5048 -0.4896
12385W        W28519  16.935  12.779   4.520  0.2162 -0.2012  0.2490
12386W        W28520   7.590  18.176   1.051 -0.0036 -0.1313 -0.1642
12387W        W28521  15.758  18.513   0.710 -0.1824  0.2012  0.2604
12388W        W28522  16.239   2.376   1.915 -0.0658  0.3414  0.0964
12389W        W28523   2.467   3.941  14.633  0.0787  0.0615 -0.0865
12390W        W28524  12.184   7.961  12.399 -0.1761 -0.0637  0.3250
12391W        W28525  10.439  18.709  14.618 -0.0884  0.2410  0.1861
12392W        W28526  13.634  12.318   4.391 -0.0720  0.1781 -0.0318
12393W        W28527  15.270  12.070   1.661 -0.0638 -0.2054 -0.1165
12394W        W28528   0.168   3.226  13.956  0.0462 -0.1703  0.1101
12395W        W28529  17.089  12.572   2.710 -0.1712  0.2448  0.2554
12396W        W28530   0.702  10.775   4.648  0.2262 -0.0914 -0.0136
12397W        W28531   0.923  15.082   3.030 -0.0236  0.3766  0.0778
12398W        W28532   0.984  16.661   0.016 -0.1002 -0.0465 -0.1112
12399W        W28533   9.529   5.198   4.670 -0.0337  0.1495  0.3455
12400W        W28534  14.512   6.897  12.670 -0.4345  0.0283 -0.0104
12401W        W28535   1.249  18.724   0.820  0.1684 -0.0003 -0.2016
12402W        W28536   6.902   0.350   9.373 -0.2199  0.0820 -0.1416
12403W        W28537   9.185  15.083   3.585  0.1621 -0.0087  0.1065
12404W        W28538  10.811  14.401  10.318 -0.3002  0.0025 -0.0685
12405W        W28539   3.401   1.302   0.161  0.1428 -0.2533  0.0458
12406W        W28540   4.482  16.161  13.647  0.1304  0.2780 -0.2061
12407W        W28541  18.627   7.257  12.962 -0.0442  0.2113 -0.0560
12408W        W28542  16.484  16.863   1.032  0.2616  0.0060  0.1056
12409W        W28543   4.329   3.410   4.124 -0.1122  0.1034 -0.0053
12410W        W28544   4.390   4.512   4.979 -0.1369  0.0836  0.1820
12411W        W28545  17.334   5.933  13.252  0.0679  0.3705  0.0499
12412W        W28546  18.829  11.557  14.423  0.0756 -0.2273  0.0448
12413W        W28547  18.772  13.073   5.134  0.1816  0.1375 -0.1382
12414W        W28548   3.839   9.988  13.705 -0.0422 -0.0572  0.4372
12415W        W28549   9.112  13.992   3.908 -0.1191 -0.1477  0.0918
12416W        W28550   0.328   1.467   9.816 -0.2691  0.0821 -0.3355
12417W        W28551  11.627  10.271  11.179  0.1059 -0.2066  0.1624
12418W        W28552  18.286   2.045  12.555 -0.5291 -0.1910 -0.2559
12419W        W28553   4.880   8.962   2.859 -0.1125 -0.0121 -0.0649
12420W        W28554   9.475   7.268  12.927  0.1920  0.2947 -0.2053
12421W        W28555   8.057   6.509   4.318 -0.0118 -0.0383 -0.1071
12422W        W28556   1.113  12.896   4.858  0.0938  0.1668 -0.0515
12423W        W28557   1.062  14.710   4.536  0.0881  0.0199 -0.2407
12424W        W28558   0.252  18.519  14.757  0.0454 -0.2123 -0.1096
12425W        W28559   5.316  15.971   3.137  0.0002 -0.2422  0.3652
12426W        W28560  17.637  15.965  13.104 -0.0394 -0.0135 -0.1106
12427W        W28561   2.505  13.332   0.014  0.2247  0.0877 -0.1336
12428W        W28562  10.598   1.743  15.195 -0.0138  0.0235 -0.0499
12429W        W28563  12.280  11.054   1.858  0.1199 -0.0562  0.0798
12430W        W28564   1.903  15.063   4.009  0.2061  0.1338 -0.2467
12431W        W28565   8.320   1.348  13.673  0.0016 -0.1599  0.3044
12432W        W28566   4.499  12.604   1.219  0.3328  0.1731 -0.0451
12433W        W28567   9.376  10.282  13.580  0.1861 -0.1894 -0.0996
12434W        W28568   1.605   0.707   5.111  0.2896 -0.0579 -0.1940
12435W        W28569  15.668  14.063   4.957 -0.0306  0.0358  0.2674
12436W        W28570  14.877   9.771  13.159  0.2840  0.1979  0.3488
12437W        W28571  18.459  10.673  14.360 -0.2478  0.3204  0.3282
12438W        W28572   8.258   9.650  11.499 -0.3395 -0.2252 -0.0659
12439W        W28573  16.744   5.766   2.065 -0.0878  0.1859 -0.3449
12440W        W28574  12.067  15.050  13.125  0.0371 -0.0308 -0.0194
12441W        W28575  11.226  16.645  12.249 -0.2867 -0.0705 -0.1669
12442W        W28576   5.047   4.105   0.991  0.3420 -0.0163 -0.0584
12443W        W28577   0.396   2.999   3.634  0.0669  0.3543 -0.0603
12444W        W28578  17.006   4.347   4.307  0.1165  0.0887  0.0408
12445W        W28579  15.541   3.161  12.881 -0.0292  0.0107  0.1724
12446W        W28580  17.210   7.894  13.919  0.5471 -0.1906  0.1907
12447W        W28581  17.666  10.126   0.240  0.1149  0.0051  0.0985
12448W        W28582  11.058  11.144   1.455  0.1822  0.1319 -0.0297
12449W        W28583  12.109  13.093  11.927  0.1063 -0.0857  0.1425
12450W        W28584   7.023  12.487   1.557 -0.1741  0.4029  0.0526
12451W        W28585  16.265   2.793   1.565 -0.3084  0.0651  0.0542
12452W        W28586   2.303  14.817  13.245  0.2341  0.1458  0.3313
12453W        W28587  10.855   0.225   3.701  0.2806  0.0621  0.0094
12454W        W28588   0.623  17.668  10.855  0.0313  0.3364  0.0043
12455W        W28589   5.192   4.315  12.433 -0.2394  0.3073 -0.1324
12456W        W28590  15.568  11.807  14.381 -0.0186 -0.0045 -0.0856
12457W        W28591  12.206  12.367  12.637 -0.0971  0.0225  0.1635
12458W        W28592  14.773   5.880  11.818  0.1501 -0.0138  0.2070
12459W        W28593   9.428  14.123  13.157 -0.1258  0.0455 -0.0592
12460W        W28594   3.494   7.216   0.098 -0.1588 -0.1266 -0.1103
12461W        W28595  18.381   2.205   4.942 -0.1690  0.0554 -0.2154
12462W        W28596  15.078   6.204   2.054  0.0866 -0.2619  0.2627
12463W        W28597   0.622  13.934  12.167 -0.0425  0.0595  0.0161
12464W        W28598   6.766   6.067  14.255  0.1109 -0.2583  0.4124
12465W        W28599   4.702   2.125  11.345 -0.2885  0.1412  0.0034
12466W        W28600   8.885   0.037  13.634 -0.3264 -0.1823 -0.2130
12467W        W28601  16.088  14.064  13.253  0.3412  0.0361  0.0609
12468W        W28602   0.675   8.743  10.910 -0.0532 -0.0618 -0.0006
12469W        W28603   6.308  11.797  11.103  0.0715  0.1963  0.4491
12470W        W28604  10.414  16.211  12.296 -0.0323  0.1475 -0.1018
12471W        W28605  16.671  15.117   5.011 -0.4081 -0.2426  0.2493
12472W        W28606  18.254   8.076   0.064  0.1820 -0.2290  0.2779
12473W        W28607  16.841  13.419  10.729 -0.1936 -0.0065 -0.1839
12474W        W28608  17.703   1.275   0.098 -0.3565 -0.1772 -0.2026
12475W        W28609  18.972  13.876   3.936  0.2390  0.2882  0.1016
12476W        W28610   7.412   8.654  13.091  0.0777  0.0465 -0.1414
12477W        W28611  16.580   5.190   0.056 -0.0295 -0.1086  0.1886
12478W        W28612  12.591   8.861   4.922 -0.0601 -0.1407  0.1433
12479W        W28613  15.833   9.411  14.233 -0.0330 -0.1388  0.1513
12480W        W28614  17.390   7.314  13.997  0.1162  0.1111 -0.0814
12481W        W28615  13.663  10.691   3.441 -0.3751  0.0302 -0.1034
12482W        W28616   1.830   4.042   1.483 -0.1763  0.0412  0.2916
12483W        W28617  11.972  14.838  14.477 -0.1095  0.2615  0.2401
12484W        W28618  10.377   0.398   3.883  0.1431  0.0037 -0.0337
12485W        W28619  11.738  14.661  14.909  0.2898  0.0279 -0.0162
12486W        W28620   5.951   2.629  11.633  0.2207 -0.4171 -0.0131
12487W        W28621  16.925  17.021  14.560 -0.0832  0.2289  0.0644
12488W        W28622  17.545   2.241  11.794  0.0340  0.0055 -0.0257
12489W        W28623   5.730  13.369   2.521  0.0821 -0.1786  0.1576
12490W        W28624  12.732  14.314   2.879  0.1890 -0.0742 -0.1877
12491W        W28625   5.609   4.300   5.746  0.3101  0.2519  0.0346
12492W        W28626   6.050  14.992  13.315 -0.1463  0.1552  0.1362
12493W        W28627   1.139   0.032  13.667  0.2512 -0.3319  0.0988
12494W        W28628  14.874  18.461  12.575  0.1206  0.1717 -0.0006
12495W        W28629   7.314  14.578   0.402  0.1336 -0.1316  0.0690
12496W        W28630  13.343  12.335  11.106 -0.2314  0.0370  0.2946
12497W        W28631   0.466  13.041  12.674  0.3016  0.2868 -0.5762
12498W        W28632  13.953   0.704   5.559  0.1406 -0.2264 -0.3666
12499W        W28633  10.653   7.719  15.112  0.4173  0.3943 -0.1195
12500W        W28634   9.276  12.634  11.371  0.1235  0.0803 -0.1293
12501W        W28635  14.463  13.769  12.532  0.1251 -0.1133 -0.2203
12502W        W28636  15.862  18.473  14.769 -0.0501 -0.2020  0.0250
12503W        W28637  18.670  15.707   4.143 -0.2849 -0.0061 -0.1551
12504W        W28638  14.327  13.068  13.658 -0.0050 -0.0503 -0.1504
12505W        W28639   2.949   9.540  12.758 -0.2689 -0.2169  0.1135
12506W        W28640   7.243  16.219   0.332 -0.0079  0.0097 -0.1381
12507W        W28641  15.328  17.598  13.037 -0.0577  0.0558 -0.2245
12508W        W28642  10.757  12.161  15.101  0.0077 -0.3145  0.1773
12509W        W28643  14.781  17.469   1.426  0.0400  0.1175 -0.1964
12510W        W28644   3.911  13.235   4.609  0.2064 -0.2607  0.1498
12511W        W28645   6.364  18.028  11.005  0.1641 -0.0978  0.1793
12512W        W28646   6.050  13.589  12.184  0.1045 -0.1448  0.2666
12513W        W28647  13.204  12.437   2.561  0.0597  0.0825  0.0460
12514W        W28648   9.863  10.928   0.459  0.2836  0.2667  0.1669
12515W        W28649  10.658   1.347   1.862 -0.1528  0.2701 -0.2728
12516W        W28650   6.554   4.746  12.746  0.2073  0.1288 -0.0411
12517W        W28651  18.309  11.871   4.952  0.0265 -0.3257  0.0449
12518W        W28652   1.396  17.764   0.633 -0.1855  0.0246 -0.2656
12519W        W28653   4.406   6.806   2.010 -0.2015  0.0434 -0.0932
12520W        W28654   2.838   3.427   4.326 -0.3268 -0.1947 -0.0134
12521W        W28655  12.281  14.475  11.356  0.2151 -0.1330  0.0605
12522W        W28656   1.456  13.557  10.976  0.0102  0.0511 -0.1543
12523W        W28657   6.945   2.407  12.872 -0.2640 -0.2114 -0.3779
12524W        W28658  11.452   7.909  13.933 -0.2013  0.2918  0.1484
12525W        W28659   7.472  15.424   2.461 -0.2658  0.0904  0.0652
12526W        W28660  16.293   3.542  12.607  0.1401 -0.0564 -0.1166
12527W        W28661   1.912  16.046   1.094 -0.2638 -0.1018 -0.2694
12528W        W28662   2.557  13.042   1.252  0.2043  0.2705  0.1888
12529W        W28663   8.371  18.585  14.340  0.0136 -0.2341 -0.3715
12530W        W28664   0.778  11.012   5.085  0.0020  0.0044  0.1403
12531W        W28665  14.427   2.225  14.789 -0.5556  0.0028 -0.0838
12532W        W28666   5.387   7.898  10.188  0.0201  0.0604 -0.2826
12533W        W28667   2.751   2.247  12.518 -0.1883 -0.0933  0.0465
12534W        W28668   6.726   2.024  11.588  0.3033 -0.1594  0.0387
12535W        W28669   1.485   3.180  14.557  0.1046  0.1640  0.1637
12536W        W28670   1.978  16.475  12.760 -0.1127  0.1945 -0.2022
12537W        W28671  17.382   6.414  12.384 -0.1812  0.2271  0.3929
12538W        W28672   3.882   2.452  11.585  0.0357  0.0017 -0.0769
12539W        W28673  16.807  15.577  11.507 -0.0657  0.0157 -0.2271
12540W        W28674   9.183  17.244  12.377  0.0681  0.1369 -0.0123
12541W        W28675  14.091   8.832   1.095 -0.0415 -0.2159  0.1632
12542W        W28676  10.669   5.784   1.381 -0.0874 -0.1651  0.0312
12543W        W28677  18.071   4.591  14.029  0.1363  0.1168 -0.3892
12544W        W28678  15.754   4.114   2.208  0.1755  0.2700 -0.0564
12545W        W28679   1.554  11.585   3.503  0.1024  0.1387  0.2136
12546W        W28680   4.153   4.779  13.399  0.1418 -0.2154  0.0367
12547W        W28681   5.713  18.197  14.864 -0.0362 -0.1840 -0.3767
12548W        W28682   1.601  15.387   3.681  0.0042 -0.0537 -0.0874
12549W        W28683   6.889  15.200   4.035 -0.0421  0.1883 -0.1187
12550W        W28684  16.633   8.459  13.001 -0.4863 -0.1228  0.3554
12551W        W28685  11.073  10.643  10.554 -0.4240  0.0680 -0.0890
12552W        W28686  18.042   5.644  14.597 -0.0777 -0.0984  0.0200
12553W        W28687  16.801   5.999  13.901 -0.3080  0.1235 -0.1577
12554W        W28688   5.566   6.917  14.416 -0.2047 -0.0590 -0.0214
12555W        W28689   3.036  15.963   4.264 -0.2560 -0.0150 -0.1334
12556W        W28690   5.271  10.821  15.013  0.4097 -0.5497 -0.0921
12557W        W28691  10.622  13.459  13.782 -0.3689  0.0306  0.1256
12558W        W28692   5.249   4.743  13.800 -0.0773  0.1130  0.3766
12559W        W28693   4.959   2.151   2.858  0.2978 -0.0889 -0.0928
12560W        W28694   4.030   0.826   2.174 -0.0107 -0.1747  0.0119
12561W        W28695  16.703   2.263  14.708  0.0514  0.1003  0.1825
12562W        W28696   5.223   4.561   0.747  0.3532  0.1457 -0.0207
12563W        W28697   2.020   7.316   3.468  0.0166  0.0785  0.2686
12564W        W28698   3.883   1.244  15.238 -0.0459 -0.0709  0.0816
12565W        W28699   7.740   6.844  11.459  0.3886 -0.2688 -0.3072
12566W        W28700   6.125   9.873   1.348  0.0101 -0.0107  0.2321
12567W        W28701   2.423  13.363   3.230  0.2640  0.1346  0.0328
12568W        W28702   4.953  11.730   3.782  0.2261 -0.2094 -0.1633
12569W        W28703   2.793   8.797   3.743  0.3206  0.0929  0.1944
12570W        W28704   2.214   9.519   3.239 -0.3648  0.1903 -0.2367
12571W        W28705   7.141   0.497  12.733 -0.0362 -0.1345 -0.2641
12572W        W28706  13.087  16.784  13.930  0.0946 -0.1766 -0.1730
12573W        W28707   0.082   1.644   0.201 -0.0932  0.0542 -0.1130
12574W        W28708  18.546   8.599  12.895  0.0298 -0.0529  0.0144
12575W        W28709  16.360  18.225  13.695 -0.3474 -0.1204  0.1620
12576W        W28710   4.466   7.567  13.505 -0.0724 -0.1108 -0.2622
12577W        W28711   6.761   7.575  10.915 -0.2315 -0.1240 -0.0962
12578W        W28712  13.265   1.452  12.985  0.3954  0.0103 -0.0972
12579W        W28713  16.384   6.322  13.171  0.0952 -0.4244 -0.4099
12580W        W28714   4.152   4.833  11.224 -0.0998  0.0398  0.1664
12581W        W28715  13.659  14.157   8.971  0.0091  0.2495  0.1287
12582W        W28716   7.483   4.792  12.480  0.2852  0.1261 -0.2701
12583W        W28717  10.834   9.533  10.631  0.1341 -0.2199  0.3906
12584W        W28718   0.426  14.957  14.964  0.0223  0.0628 -0.1966
12585W        W28719  15.153   3.988   4.185 -0.4259 -0.2158 -0.1783
12586W        W28720  14.639  10.789  10.840  0.1490  0.3074  0.0756
12587W        W28721   0.885   6.486   2.111  0.0455  0.3985  0.1677
12588W        W28722   1.479  17.439   5.421 -0.1327  0.1840 -0.1166
12589W        W28723   9.503  13.759   4.943  0.0494 -0.2483  0.1553
12590W        W28724   6.878   1.403  12.227 -0.0305  0.0612 -0.0309
12591W        W28725  12.650   1.985   2.762 -0.3586  0.2162  0.0955
12592W        W28726   7.822  15.288  14.274  0.2354 -0.0817 -0.0928
12593W        W28727   8.634  18.361   0.354 -0.2842 -0.0555 -0.0412
12594W        W28728   0.168   8.120  10.896 -0.1675 -0.1398  0.2252
12595W        W28729   2.816  16.918  12.242 -0.1239 -0.1941 -0.0078
12596W        W28730   8.083  11.463  12.274  0.1844 -0.0138 -0.0733
12597W        W28731   0.265  12.510   1.833 -0.2101  0.0319  0.0196
12598W        W28732  15.295  12.062  12.477 -0.0251 -0.1451  0.1260
12599W        W28733   9.854   3.428   3.885 -0.1566  0.1688 -0.0336
12600W        W28734   5.124   3.939  10.571  0.4057  0.0491 -0.0986
12601W        W28735  10.520   3.587   2.250  0.2060 -0.1543  0.0109
12602W        W28736  11.596  15.471   2.312  0.5022  0.1968  0.0260
12603W        W28737  11.206   7.971   2.393  0.2406  0.0328 -0.0220
12604W        W28738  12.857  18.311  13.367 -0.0985 -0.2886  0.3585
12605W        W28739  16.089  16.072  13.074  0.0732 -0.1396 -0.1028
12606W        W28740   1.898  18.422   5.080 -0.0432  0.2132  0.1358
12607W        W28741   0.952   1.093  14.204 -0.1931 -0.1925  0.3220
12608W        W28742  17.233   5.531   0.054 -0.1835  0.0103 -0.1851
12609W        W28743   6.979   8.027  12.671 -0.1374 -0.3516  0.0651
12610W        W28744  10.315  15.408   5.166  0.1002  0.2044 -0.2550
12611W        W28745  14.006   5.094   0.398  0.0509  0.0606  0.1410
12612W        W28746  17.845  17.417  13.860 -0.0679  0.4235  0.4031
12613W        W28747  18.125   8.659  11.136 -0.0255  0.0714 -0.0756
12614W        W28748   0.202   1.831   5.279 -0.0787  0.0099 -0.1564
12615W        W28749  10.898  18.985  13.376  0.1051 -0.0183  0.3067
12616W        W28750  14.579  17.671  11.613 -0.0741 -0.1384  0.1202
12617W        W28751   9.157   2.609   3.412  0.1547 -0.2131 -0.0254
12618W        W28752  10.882   5.037   0.635  0.1289 -0.1361 -0.4414
12619W        W28753  17.656  10.799   2.159  0.1260  0.2474  0.0527
12620W        W28754   1.256   3.851  11.898  0.1563 -0.1233 -0.3350
12621W        W28755  18.745   0.840  13.562 -0.4672 -0.1727 -0.3646
12622W        W28756  18.611  14.363  14.806 -0.0815 -0.0735 -0.0953
12623W        W28757   6.547   2.635   3.244 -0.1768  0.0305 -0.0264
12624W        W28758  18.894   7.576   2.313 -0.1912  0.1676  0.0645
12625W        W28759  15.794  12.875  12.199 -0.0698 -0.1437  0.1750
12626W        W28760  11.812  17.471   0.633  0.1824  0.1491 -0.1848
12627W        W28761  12.912   3.512  12.922  0.0309 -0.1621 -0.1175
12628W        W28762  15.711  18.797   4.905 -0.0477 -0.0774  0.1248
12629W        W28763   0.668  10.668  12.879 -0.0519 -0.4121 -0.2078
12630W        W28764  18.161   5.337   0.002  0.0693 -0.3179  0.0971
12631W        W28765   9.985   2.469  11.263  0.1151  0.1132  0.1117
12632W        W28766   8.607  10.518   1.130 -0.0554  0.4711 -0.0139
12633W        W28767  14.686  18.427   1.081 -0.2283  0.1414  0.0081
12634W        W28768  13.085  12.780   0.391  0.2960  0.1557  0.0803
12635W        W28769   6.899   1.424   0.214  0.2329  0.0581 -0.1055
12636W        W28770  15.197   0.386  11.760 -0.2538 -0.0267  0.0844
12637W        W28771  10.804  11.762  12.982 -0.1061  0.1046 -0.2301
12638W        W28772   7.498   6.697   1.118 -0.1989 -0.1028  0.2797
12639W        W28773   7.658  13.447  13.848 -0.2611  0.1072 -0.0551
12640W        W28774   4.322  18.740  10.402 -0.2486  0.0305  0.1429
12641W        W28775   0.184   5.418   6.090 -0.3946 -0.2302 -0.0119
12642W        W28776  13.596   0.046   0.753  0.2224 -0.2021  0.1536
12643W        W28777  18.779   4.881   4.125 -0.0297  0.0801  0.0768
12644W        W28778   2.820   1.116  13.250 -0.3811 -0.0227 -0.2733
12645W        W28779  17.995  17.044  13.282  0.0937 -0.0632  0.3035
12646W        W28780   9.968   0.910  12.615 -0.0830  0.0792 -0.2722
12647W        W28781  13.388  11.880  12.841 -0.2062 -0.1955 -0.0505
12648W        W28782   2.201  13.322  10.380  0.1731  0.0472  0.2395
12649W        W28783   6.658   7.414   4.274 -0.2573  0.1114 -0.0144
12650W        W28784   5.053   8.309   3.409 -0.2678 -0.0628  0.3266
12651W        W28785  11.049   0.301  11.203 -0.1031  0.0007  0.0525
12652W        W28786   0.860  18.298   4.532  0.0675  0.3416  0.0136
12653W        W28787  11.915   8.301   4.268  0.1919  0.0298  0.1796
12654W        W28788   6.829   6.001   4.204  0.0711  0.0134 -0.0458
12655W        W28789  10.225   9.476  13.279  0.0249  0.0227 -0.0795
12656W        W28790   8.742   6.915   1.703  0.0404 -0.0363  0.0477
12657W        W28791  15.436  18.980  14.207 -0.3094  0.0782 -0.1250
12658W        W28792   3.723   2.259  13.860 -0.0885  0.2454  0.0009
12659W        W28793   4.048   9.190   4.052 -0.1335  0.1145 -0.0236
12660W        W28794   1.728  16.883   6.078  0.1929  0.1055 -0.2248
12661W        W28795  12.276   3.628  11.815 -0.1412 -0.0077 -0.2431
12662W        W28796   7.027  11.845   3.992  0.0791  0.0990 -0.2767
12663W        W28797  15.369   5.634  11.287  0.0573 -0.1129 -0.0398
12664W        W28798  14.200   6.161   4.194 -0.1102 -0.2891  0.0001
12665W        W28799   9.363   5.788  14.754  0.0565 -0.0718  0.0411
12666W        W28800   8.380  18.384  11.613  0.1244 -0.3758  0.0065
12667W        W28801   7.814  14.461   0.042  0.1188 -0.0635 -0.2125
12668W        W28802   3.474  14.606   1.823  0.1516  0.1668  0.0089
12669W        W28803   5.607  13.846   0.198  0.0224  0.0211  0.1012
12670W        W28804   4.737   8.590   0.245 -0.1759  0.0246  0.3645
12671W        W28805   0.302  13.383   1.844  0.1252 -0.4105  0.1187
12672W        W28806   2.110  10.175  13.743  0.3491 -0.1451 -0.0361
12673W        W28807   6.124  12.188  11.616  0.0542  0.2777 -0.0951
12674W        W28808   5.476  10.733   0.578 -0.1935 -0.1205 -0.0035
12675W        W28809   0.927  10.748   4.156 -0.1121 -0.0388  0.1038
12676W        W28810  15.360  11.530  11.565  0.0024 -0.2172 -0.0484
12677W        W28811   2.864   9.268   4.540  0.2503  0.1232  0.0291
12678W        W28812   6.321  13.254   3.942  0.1813  0.1451  0.0605
12679W        W28813  15.841   4.759   5.687 -0.2425  0.2249  0.4445
12680W        W28814  17.422   8.006   2.668  0.4421 -0.0570  0.0052
12681W        W28815   8.751   8.368  11.422 -0.2507  0.1021  0.4946
12682W        W28816   4.040   2.404   2.941 -0.1236  0.1571  0.0776
12683W        W28817  12.497   6.913   4.627 -0.2096 -0.0590 -0.0791
12684W        W28818   1.841  15.937   2.922 -0.2013 -0.1441 -0.2731
12685W        W28819  11.807   4.073   1.804 -0.2809 -0.0558  0.2687
12686W        W28820  12.118  18.346  12.136 -0.0777 -0.0672  0.0195
12687W        W28821  18.835   3.548   3.258  0.0756 -0.1919 -0.1404
12688W        W28822  13.949   1.863   1.317  0.3062  0.3827 -0.1309
12689W        W28823   0.832  17.099   3.850  0.3102  0.0916  0.1030
12690W        W28824   2.743   8.647   0.498 -0.2315 -0.0798  0.2089
12691W        W28825   9.143   0.189   0.060 -0.0401 -0.1194 -0.1454
12692W        W28826   6.233   9.325  10.515 -0.0595  0.0357  0.0904
12693W        W28827   2.981  15.824  13.170 -0.0887 -0.0755  0.2236
12694W        W28828  17.396   0.137  13.584 -0.2867 -0.3897 -0.0836
12695W        W28829   3.650   0.888   3.958  0.1664  0.0721  0.0218
12696W        W28830   8.330  12.677  14.286  0.1885 -0.0097 -0.1125
12697W        W28831  15.370   5.541   0.083 -0.0265  0.1056 -0.1551
12698W        W28832  15.709  17.888   5.909  0.0303 -0.0855 -0.1792
12699W        W28833   6.832   2.398  13.895  0.1503 -0.4004 -0.4284
12700W        W28834  17.893   6.384  12.316  0.1936 -0.3080  0.1010
12701W        W28835  14.147   0.907   0.293 -0.1768  0.0420  0.1428
12702W        W28836  17.042  10.240  11.900 -0.4096  0.0735 -0.0716
12703W        W28837  12.958  11.673  11.803 -0.0278 -0.2186  0.4335
12704W        W28838   2.375   2.987  11.455 -0.1798  0.0874  0.1256
12705W        W28839  16.512   8.009   4.337  0.2277  0.2757  0.0225
12706W        W28840   6.461   6.164   3.823 -0.0538  0.1276 -0.3876
12707W        W28841   4.570   6.618  14.754  0.0955  0.1947 -0.2850
12708W        W28842   7.189  12.140   5.201  0.3202  0.1878  0.0466
12709W        W28843  13.840   0.570  15.259  0.0254  0.0778  0.4915
12710W        W28844   5.603  12.779   2.448  0.1868  0.2156  0.0078
12711W        W28845  10.503   0.516  13.210  0.2714  0.0515 -0.0297
12712W        W28846  11.639   3.502  14.731 -0.1408  0.2361  0.2521
12713W        W28847  13.698  18.464   4.627  0.1057 -0.0590  0.3174
12714W        W28848  10.937  12.960   0.761  0.0580  0.0311 -0.3825
12715W        W28849   4.943  14.840   0.391  0.2216  0.0978  0.2751
12716W        W28850   2.580  12.456  13.876 -0.0184 -0.0158  0.0714
12717W        W28851   9.741  14.599  13.245  0.1291 -0.0155  0.2790
12718W        W28852   6.306  18.279   1.611  0.1736  0.4302  0.0347
12719W        W28853  13.948  16.514   4.851  0.0878  0.1863  0.1547
12720W        W28854  12.619  17.060   3.280 -0.1247 -0.0531  0.0328
12721W        W28855   3.482   6.374   1.895 -0.1633 -0.2227  0.0435
12722W        W28856   7.465   7.662   0.358 -0.0967 -0.0561  0.0759
12723W        W28857   1.586   9.522  11.885 -0.2812 -0.2237  0.0051
12724W        W28858  13.099  14.671  14.188  0.0074 -0.3184  0.1168
12725W        W28859   8.894   1.452  10.104 -0.1139 -0.0964  0.2098
12726W        W28860  15.023  17.977   4.533 -0.1240 -0.1976  0.1725
12727W        W28861  13.074   7.070  14.947  0.0107 -0.1493  0.0200
12728W        W28862  17.506   6.106  10.693  0.2961  0.1101 -0.0322
12729W        W28863   2.735  15.468   9.449 -0.0552  0.1624  0.0922
12730W        W28864   1.099  16.965   4.306 -0.1243 -0.0084  0.2167
12731W        W28865  15.724  14.810   0.261 -0.2133 -0.1503 -0.0890
12732W        W28866  14.626  14.310  15.153  0.0951 -0.1554 -0.0062
12733W        W28867  13.358   9.570   4.090 -0.1699  0.2056 -0.1294
12734W        W28868   5.824  16.524   4.106  0.0973 -0.0648  0.0395
12735W        W28869   0.301  17.334  11.819  0.4089  0.1993 -0.0523
12736W        W28870  15.383   0.713   1.850  0.2597  0.0774  0.2070
12737W        W28871  17.636   8.659  10.077  0.3036 -0.3506  0.0704
12738W        W28872   7.585   5.605   2.030  0.3315 -0.0605 -0.3634
12739W        W28873   3.382   9.496  12.502  0.3270  0.3796  0.0421
12740W        W28874  15.404  15.094   0.600 -0.1517  0.1516 -0.0943
12741W        W28875   2.825   4.671   3.956 -0.0213  0.0270  0.5431
12742W        W28876  15.395  17.612  11.344 -0.0782 -0.2417  0.2532
12743W        W28877  12.879   7.274  12.883  0.0094  0.1690 -0.0794
12744W        W28878  12.940   0.682  12.462 -0.2665  0.0139  0.1383
12745W        W28879   7.730  12.816   1.711 -0.0094  0.1137 -0.0870
12746W        W28880   2.746   7.214  13.426 -0.0552  0.0020  0.1182
12747W        W28881  13.846   5.989   0.309 -0.2092  0.0325  0.2981
12748W        W28882  16.870  17.772   1.293 -0.0531 -0.1742 -0.1431
12749W        W28883   8.372  14.216   2.797  0.1401  0.2231 -0.0774
12750W        W28884  15.980   7.299   3.274  0.0444 -0.1488 -0.0809
12751W        W28885  12.936  13.276   0.559  0.2230 -0.3165  0.0925
12752W        W28886  10.166   4.014   2.274 -0.1418  0.1852 -0.1267
12753W        W28887   0.864  14.864  11.045  0.1185 -0.2665 -0.1327
12754W        W28888   0.616  10.348  13.769 -0.3431 -0.2730  0.1460
12755W        W28889  12.274   4.309  12.774  0.1176  0.0070  0.0147
12756W        W28890   6.074  15.664  14.196  0.1235 -0.0965  0.2934
12757W        W28891   5.864  12.118   0.277  0.1560  0.0455  0.0705
12758W        W28892   4.606  13.026   1.564 -0.1523  0.0988  0.1164
12759W        W28893   1.302  16.273   2.961  0.2003 -0.0801 -0.1072
12760W        W28894  12.955   9.947  14.628  0.1256  0.2015 -0.0495
12761W        W28895  18.005   9.839   3.473 -0.0995 -0.0931  0.1280
12762W        W28896   7.928  17.525   2.255 -0.0280 -0.0275  0.0782
12763W        W28897   3.612  18.358   2.435  0.0188  0.0547 -0.0710
12764W        W28898   0.655  13.989   0.155  0.0507 -0.0556  0.0996
12765W        W28899  15.497   6.696   5.253 -0.1131 -0.1032  0.2236
12766W        W28900   0.895   5.529  11.476  0.1898  0.0300  0.1361
12767W        W28901  13.153   6.975   1.425 -0.1505  0.1852 -0.0267
12768W        W28902  15.188   8.579  13.250  0.1269 -0.2829 -0.0649
12769W        W28903   3.671   3.670  13.942 -0.2555  0.4013 -0.1010
12770W        W28904   8.513  10.653   3.571 -0.1480 -0.1416 -0.0061
12771W        W28905   8.495   5.687  14.140 -0.0709 -0.3332 -0.0163
12772W        W28906  13.309  17.830   0.956 -0.0913 -0.0078 -0.1696
12773W        W28907  18.179   6.910   4.452  0.2058  0.2264 -0.0665
12774W        W28908   4.644   8.029  13.385  0.2061 -0.0756  0.2196
12775W        W28909   6.427   8.915  14.037 -0.1545  0.0776  0.3059
12776W        W28910   5.144   2.297   0.778  0.3789 -0.2914 -0.0683
12777W        W28911  18.505   4.649  14.788  0.1539 -0.3499  0.1689
12778W        W28912  16.203   7.139   4.329  0.2408 -0.0614  0.0725
12779W        W28913   1.010  12.339   4.726 -0.4186  0.0210 -0.0858
12780W        W28914   0.453   2.008  13.047 -0.1110  0.1429  0.0008
12781W        W28915  17.550   9.598  14.332 -0.0592 -0.1508  0.1551
12782W        W28916  10.806  11.862   2.340  0.1563 -0.1521  0.0595
12783W        W28917  15.608   2.884  15.220 -0.0889  0.3640  0.0694
12784W        W28918   8.242   4.232  13.777  0.1566 -0.0223  0.0822
12785W        W28919   4.261  12.261  13.409  0.1633 -0.3659 -0.1687
12786W        W28920  12.941   4.387   1.438 -0.0448  0.0141 -0.2372
12787W        W28921  17.679   4.639   1.735 -0.3465 -0.0595 -0.0413
12788W        W28922  17.794   0.485   1.561  0.1990  0.2836  0.0657
12789W        W28923   1.108  11.978   3.413  0.3764  0.0854  0.0477
12790W        W28924  17.569  11.287  11.623 -0.3078  0.0288  0.0857
12791W        W28925   9.634  18.171   3.326  0.2936  0.2893  0.0606
12792W        W28926   5.848   0.277   4.884 -0.2289 -0.1660 -0.3089
12793W        W28927   1.226   8.255  13.700  0.0114  0.1914  0.1940
12794W        W28928  18.323  18.898  10.398 -0.5432  0.0534 -0.1959
12795W        W28929   8.381  18.252  13.361  0.2837  0.1929 -0.0286
12796W        W28930  13.480   1.604  14.530  0.1672  0.0167  0.1055
12797W        W28931  15.688   0.261  12.931 -0.2964 -0.0874  0.1819
12798W        W28932   9.266  13.059   1.462  0.2340 -0.0011 -0.0044
12799W        W28933  17.938  11.886  12.043  0.0431  0.2002 -0.1391
12800W        W28934  16.595  14.263   1.180 -0.2305  0.2912  0.1855
12801W        W28935   4.782  12.694  11.832  0.1356  0.2238 -0.0746
12802W        W28936  13.453   4.150   0.600 -0.2089 -0.2168  0.0344
12803W        W28937  17.779  13.197   3.643  0.2318  0.2529  0.1398
12804W        W28938   7.940   3.658  13.312  0.3577  0.0076 -0.0267
12805W        W28939   3.670   2.143  11.901  0.0391  0.0339 -0.4453
12806W        W28940  14.682   8.382   2.362  0.2327 -0.5140  0.1529
12807W        W28941   2.527  12.170   2.316  0.1487  0.1121  0.1964
12808W        W28942  16.261  17.584  11.593 -0.1153  0.0722  0.1770
12809W        W28943  12.727  11.009   0.546  0.0454 -0.0146  0.1504
12810W        W28944   6.748   0.332  11.654  0.0229 -0.1172  0.3093
12811W        W28945   9.246  11.372  12.913  0.0559  0.1026  0.1019
12812W        W28946   6.454   9.758  12.731  0.2159 -0.3193 -0.0065
12813W        W28947   0.964  12.995  10.830 -0.0872  0.0624 -0.0061
12814W        W28948   2.155  12.800   4.706  0.1951 -0.0566  0.1408
12815W        W28949   4.099   0.699  10.508  0.1000 -0.1894  0.1243
12816W        W28950   0.772   5.966   1.213 -0.2342  0.0119 -0.0740
12817W        W28951   9.008  10.184   4.774  0.0028  0.0839  0.3146
12818W        W28952  13.020  17.413   9.976 -0.3878 -0.2087 -0.1618
12819W        W28953   0.929   7.062  11.015  0.2572 -0.1851 -0.1646
12820W        W28954   3.375  13.870   3.880 -0.0124 -0.0862 -0.0228
12821W        W28955  17.010   1.452   0.741  0.0032 -0.0760 -0.2826
12822W        W28956   1.926   0.363  13.372  0.0121 -0.0170 -0.1046
12823W        W28957  13.213  14.758   3.444 -0.1304 -0.2862  0.0344
12824W        W28958   8.221   5.639  13.319  0.0321  0.1936  0.0982
12825W        W28959   4.083  18.590   3.447  0.1690 -0.0668  0.0623
12826W        W28960   2.029   4.023   4.879 -0.0142 -0.0390 -0.0681
12827W        W28961  18.126   5.958   2.684  0.2085  0.0992 -0.3781
12828W        W28962  15.982  10.959  13.716  0.0655 -0.2259  0.0496
12829W        W28963  18.689  10.857   9.710  0.2707  0.1621  0.0477
12830W        W28964   0.893  12.031  14.104  0.0199  0.0456  0.3452
12831W        W28965  18.932  13.851   0.764 -0.2532 -0.1305 -0.2606
12832W        W28966  18.996   3.534   1.013 -0.2175 -0.2751 -0.1933
12833W        W28967  15.457   0.410   2.232  0.0596  0.3022 -0.2505
12834W        W28968   5.168   2.704  14.457  0.0956  0.1450  0.1046
12835W        W28969   7.986  14.171   1.987  0.0598 -0.1419  0.4437
12836W        W28970   0.883   2.375   4.895 -0.0220 -0.1610  0.0444
12837W        W28971  12.248  12.346   1.333  0.0876  0.1759  0.1196
12838W        W28972  10.927   3.424  14.007 -0.0521  0.3081 -0.0473
12839W        W28973   5.905   0.495  10.438 -0.0967  0.1871 -0.0101
12840W        W28974   3.612  18.303  10.008 -0.1927  0.1053 -0.2641
12841W        W28975   6.352   8.918   0.425 -0.1446  0.0232  0.0252
12842W        W28976  13.610  18.838   4.193 -0.1002  0.3343  0.2333
12843W        W28977  14.198  18.144   3.284  0.2618 -0.0268 -0.1261
12844W        W28978   2.273   1.475   1.678 -0.0487 -0.2832 -0.2220
12845W        W28979   3.045  14.253   3.713 -0.2511  0.0180 -0.3614
12846W        W28980  11.315   8.082  14.428 -0.1056 -0.2046  0.1531
12847W        W28981  18.358  11.369  10.816 -0.0245 -0.0051  0.0579
12848W        W28982   5.277   8.102   1.426  0.2416 -0.0324  0.1718
12849W        W28983  18.275  14.421   4.195  0.1101  0.0241 -0.0812
12850W        W28984   1.293  17.661  14.157 -0.3241  0.0083 -0.0587
12851W        W28985   4.082  15.358  11.032 -0.2967 -0.0347  0.0305
12852W        W28986   1.611  17.072   1.837  0.3123  0.1921  0.1296
12853W        W28987  15.074   7.337  12.038 -0.3023 -0.4549  0.0096
12854W        W28988  10.341   2.624   0.305 -0.0358  0.0430  0.2102
12855W        W28989   3.657   9.525   0.941  0.1761 -0.0861 -0.3547
12856W        W28990   2.953   0.401  10.763 -0.0841 -0.1541  0.0307
12857W        W28991   2.496  12.349  14.707 -0.1762 -0.0394 -0.0389
12858W        W28992  10.748  13.834  13.443  0.0233  0.0399  0.1345
12859W        W28993  14.339   4.688   3.338  0.0889 -0.1061 -0.1809
12860W        W28994   7.979   8.497   1.533 -0.3088  0.1535 -0.2241
12861W        W28995   9.946  15.822  11.235 -0.0337 -0.3401  0.2391
12862W        W28996   6.882   4.048   4.019 -0.0175  0.0150  0.2232
12863W        W28997   3.293   5.224   3.577  0.3139  0.0289 -0.0022
12864W        W28998   7.167   1.019   0.302  0.0937 -0.0972  0.1294
12865W        W28999   9.963   4.753   2.077  0.0434 -0.1588 -0.0923
12866W        W29000  14.816   1.617   2.388  0.1319 -0.2291  0.0508
12867W        W29001  12.941   2.470   0.387  0.0914  0.1678  0.0498
12868W        W29002  18.183   2.975  13.028 -0.0673 -0.0699  0.3274
12869W        W29003  11.825   3.571   1.581 -0.3631  0.0156 -0.0697
12870W        W29004   3.799   7.057  14.941 -0.1695 -0.2373  0.0315
12871W        W29005  13.517   1.892   5.286 -0.2857 -0.1072 -0.0268
12872W        W29006  19.001   8.995   0.612  0.0067  0.0515  0.0542
12873W        W29007   7.541   1.179  12.936  0.1197 -0.1589 -0.2276
12874W        W29008  10.165  15.958   5.274 -0.0618  0.1318  0.2716
12875W        W29009  18.968   6.310  10.784 -0.1723  0.2930 -0.0388
12876W        W29010  12.196  15.591   3.078 -0.0781 -0.1493  0.1083
12877W        W29011  16.662  14.280  10.208 -0.2286  0.0437  0.0803
12878W        W29012  18.600   4.499   0.058  0.2743 -0.0449  0.2166
12879W        W29013   4.363   4.863   0.657  0.0563 -0.1407 -0.2516
12880W        W29014   6.023  11.183   5.807 -0.3308 -0.2707 -0.0099
12881W        W29015  11.289  14.735   1.815  0.0873 -0.2231  0.0064
12882W        W29016  13.129   8.221  11.032 -0.1124  0.2349 -0.1830
12883W        W29017   3.206  12.959  12.606 -0.2641  0.0649  0.1641
12884W        W29018   0.386  12.742   3.176  0.0151  0.1083  0.1159
12885W        W29019  18.867  16.616   5.220 -0.1755 -0.1553 -0.1101
12886W        W29020  14.086  10.187  13.157 -0.1510 -0.0277 -0.0697
12887W        W29021  14.751  18.198   2.117 -0.0039  0.3612 -0.0725
12888W        W29022  15.105   9.672  12.689 -0.0761 -0.1979  0.1845
12889W        W29023   9.580  13.934  14.785 -0.0516 -0.0379  0.0132
12890W        W29024  11.171  16.593   4.541  0.1030  0.2317 -0.2148
12891W        W29025   9.389  15.617   2.248  0.1372  0.1865 -0.1109
12892W        W29026  11.998   7.237  11.536 -0.1022 -0.1058 -0.0321
12893W        W29027   6.109  13.068  15.222  0.1298  0.3851 -0.4751
12894W        W29028   1.471  10.967  13.592  0.0214  0.2560 -0.1645
12895W        W29029   0.526   1.437   4.945 -0.3152 -0.0279 -0.1247
12896W        W29030  14.758   6.058  12.894 -0.1314 -0.0040 -0.4660
12897W        W29031  15.264   8.608   0.300 -0.1750  0.3042  0.1109
12898W        W29032  11.246   2.038  14.870 -0.0850 -0.0873  0.2742
12899W        W29033   8.489  12.837   2.339 -0.3039 -0.0355 -0.0122
12900W        W29034  11.387   8.967  12.631 -0.1160  0.0641  0.1134
12901W        W29035  17.878  17.979   3.285 -0.2136 -0.0988  0.1576
12902W        W29036   3.320   3.720  14.561  0.4428  0.0338 -0.1212
12903W        W29037   4.406   0.275   2.893  0.0508  0.0983 -0.0419
12904W        W29038   0.659   9.028  13.660 -0.0145  0.0084 -0.3074
12905W        W29039  10.114   1.922  11.061 -0.0804  0.0592  0.1483
12906W        W29040   4.784   0.951  12.635 -0.0237 -0.0459  0.2169
12907W        W29041   9.685   2.087   4.970  0.4110  0.1053 -0.0333
12908W        W29042  11.309   6.554  13.191  0.1275  0.0219 -0.3109
12909W        W29043   6.146  13.742   4.030 -0.5953 -0.2187  0.1155
12910W        W29044   2.809  16.320  11.408 -0.0469  0.0856  0.0410
12911W        W29045   7.478   7.020   1.515  0.2099 -0.1263  0.5331
12912W        W29046  11.698   7.466   5.797  0.1421 -0.0657 -0.1822
12913W        W29047   3.693   5.366   2.383  0.1469 -0.0127  0.0574
12914W        W29048   1.431  17.933  13.034  0.1906 -0.0377 -0.0668
12915W        W29049  17.661  16.147  11.804 -0.2554  0.0153  0.2941
12916W        W29050   7.639   6.402  14.285 -0.0048  0.2634  0.0667
12917W        W29051   9.668   1.304   3.896 -0.1702  0.2446  0.3342
12918W        W29052   7.995   7.068  15.002 -0.1333 -0.0891 -0.0698
12919W        W29053   5.796  15.555  11.022 -0.0395  0.1333 -0.0332
12920W        W29054   3.289   1.237   4.272 -0.1138  0.2818 -0.1089
12921W        W29055   3.600  17.483   3.201  0.2048  0.0575 -0.2417
12922W        W29056   8.785  16.156  12.250 -0.0989 -0.0719  0.3326
12923W        W29057   0.431  13.776  13.409  0.1937  0.2016  0.1618
12924W        W29058   7.207  12.857   5.022  0.1304  0.1348 -0.0627
12925W        W29059  18.047  18.115  11.610 -0.0385 -0.0600 -0.1620
12926W        W29060   0.580   2.445  12.148  0.1364  0.0615 -0.3712
12927W        W29061   3.188   1.263   3.359 -0.0460  0.2176 -0.2007
12928W        W29062   2.656   9.897  14.394  0.0328  0.2430  0.0884
12929W        W29063   0.062   4.331   0.918 -0.0647  0.3781  0.5640
12930W        W29064  18.203  15.103   5.300  0.3287 -0.0217 -0.4693
12931W        W29065   9.481  18.850   0.289  0.1623 -0.0777  0.2308
12932W        W29066  10.071   4.867  14.280  0.1632 -0.3878  0.3079
12933W        W29067  16.308  14.586  10.326  0.1291 -0.0697  0.1982
12934W        W29068   1.664   2.561  11.494  0.1392 -0.0614  0.1318
12935W        W29069  18.120   9.634  12.444  0.0645  0.1557 -0.0180
12936W        W29070   6.149   2.375   0.718  0.1235 -0.2718  0.2508
12937W        W29071   6.226   8.253   1.186  0.1693 -0.0274 -0.1087
12938W        W29072   3.772  14.406  11.566  0.0002  0.3349  0.1672
12939W        W29073   1.210   1.682  10.631  0.2498  0.0185 -0.0986
12940W        W29074  18.493  10.539  12.425  0.1403  0.2607  0.2494
12941W        W29075   2.917  17.955  15.005  0.0076 -0.0206 -0.1799
12942W        W29076   2.534  16.207  12.917  0.2146  0.1850  0.2098
12943W        W29077  14.652  12.329   3.640 -0.1609  0.1348 -0.2443
12944W        W29078  15.035   4.908  10.192  0.1130 -0.0429 -0.1144
12945W        W29079   3.274  13.274  11.262  0.1768 -0.1894 -0.0328
12946W        W29080  16.565  16.856   1.484  0.0110 -0.1939  0.3088
12947W        W29081   9.064  18.173   3.987 -0.0084  0.0936 -0.0108
12948W        W29082  16.741   6.786   2.989  0.0928  0.1011 -0.2044
12949W        W29083  13.150   0.450   5.280 -0.0805  0.0632  0.1929
12950W        W29084  10.558   4.752   2.498 -0.0721  0.0088  0.3573
12951W        W29085   8.900  17.689  12.821  0.1507  0.0763  0.0428
12952W        W29086  17.407   6.001   1.420 -0.1660  0.2440  0.0684
12953W        W29087   4.677  15.386  14.359  0.1392 -0.0395 -0.0761
12954W        W29088   7.399  12.666   2.742 -0.1116 -0.1183  0.0793
12955W        W29089  11.609  11.578   2.223 -0.0765 -0.0277 -0.0121
12956W        W29090  12.328   2.490  13.522 -0.0013 -0.1346  0.0113
12957W        W29091   3.789   3.355  14.311 -0.3833  0.3600  0.0162
12958W        W29092   7.677  15.651  12.203  0.0216  0.2172  0.2432
12959W        W29093  16.996   4.843  10.132  0.1631  0.0891 -0.1863
12960W        W29094  16.852  11.061  11.080  0.2314  0.4450 -0.0533
12961W        W29095  10.139   3.037   2.952  0.0060  0.2264  0.0579
12962W        W29096   5.283   1.148   1.316  0.0473  0.2984  0.0826
12963W        W29097   6.045  17.548   3.342 -0.0947 -0.3385 -0.0509
12964W        W29098   6.480   2.361  14.334  0.2512 -0.1024 -0.0873
12965W        W29099  14.138  12.340  13.102  0.1870  0.1947  0.1474
12966W        W29100  16.352  11.596  10.410  0.0473 -0.2950  0.0177
12967W        W29101   6.698   1.145  13.108 -0.0897  0.2516 -0.4068
12968W        W29102  14.234   3.139   4.092 -0.0148  0.0422 -0.1891
12969W        W29103   5.041   7.157   2.466  0.1678 -0.3435  0.3884
12970W        W29104   6.172   7.360   3.233  0.1057 -0.1681 -0.0829
12971W        W29105  17.745  14.498  13.224 -0.0220  0.1566 -0.1927
12972W        W29106  18.203  15.231  11.381  0.0973  0.1716  0.0027
12973W        W29107  15.930   7.814   3.670 -0.1428 -0.1588  0.2031
12974W        W29108   4.265  15.885   5.546  0.0078 -0.0235 -0.0181
12975W        W29109   2.002  10.641  13.946  0.3155 -0.0253 -0.0626
12976W        W29110   4.354  12.484   5.007 -0.1943 -0.2150 -0.1038
12977W        W29111  10.992   4.872   1.144 -0.0297  0.3325  0.1587
12978W        W29112  14.668   1.121  14.997  0.0727 -0.0546 -0.1395
12979W        W29113   2.309  16.505   4.808  0.1058  0.1013 -0.2533
12980W        W29114   3.225  16.773  10.564  0.1088  0.0828 -0.3610
12981W        W29115  16.623   0.953  11.763  0.1520 -0.2555 -0.0070
12982W        W29116  11.328   5.714  11.230  0.0460  0.0700  0.0485
12983W        W29117   0.007   0.363  14.420 -0.1321 -0.1204 -0.1565
12984W        W29118  10.738   6.095  12.593 -0.1558 -0.0072  0.1165
12985W        W29119  18.412   9.174   0.963 -0.3499 -0.1636 -0.1002
12986W        W29120  10.758   0.391  13.674 -0.1395  0.2531  0.0865
12987W        W29121  18.394   4.781   2.025  0.0105  0.0765  0.0028
12988W        W29122  15.465   7.092  11.321 -0.2974 -0.0144  0.0852
12989W        W29123   5.953   3.923  12.973 -0.1933 -0.1462  0.0347
12990W        W29124  12.844   4.036  10.459  0.0825 -0.1394  0.0471
12991W        W29125  11.469  16.840  13.000  0.0905  0.0472  0.1392
12992W        W29126  10.361   6.492   1.919  0.4439 -0.1693  0.1397
12993W        W29127   1.718   7.577   0.546  0.1149  0.0021 -0.0319
12994W        W29128   1.179  18.170  15.041  0.0681 -0.2416 -0.0285
12995W        W29129   9.051  13.059  11.166  0.3537  0.1057 -0.0569
12996W        W29130   8.156  14.546  14.438 -0.0304 -0.0763 -0.2355
12997W        W29131  11.144  11.396   2.986 -0.0991  0.1776 -0.0381
12998W        W29132   8.582  15.146   2.291 -0.0132 -0.0264 -0.0550
12999W        W29133   9.150   9.115  14.063  0.3099 -0.2916 -0.3173
13000W        W29134  11.750  17.872  14.165 -0.2406 -0.0833 -0.0394
13001W        W29135  16.035  18.094   2.262  0.5088 -0.0927 -0.0006
13002W        W29136   9.360   9.832  11.815  0.0381  0.1771 -0.0215
13003W        W29137  10.331  14.091   2.327 -0.1894 -0.4378 -0.3091
13004W        W29138   1.818  13.077   4.267  0.1271 -0.0482  0.1076
13005W        W29139   7.991  14.352  13.636 -0.0920 -0.0317 -0.4051
13006W        W29140   3.307  18.875  13.175  0.0417 -0.2168  0.0483
13007W        W29141   5.064  16.883   2.573 -0.2796 -0.0514  0.0952
13008W        W29142   4.485   1.605  14.359  0.1945 -0.0989  0.0663
13009W        W29143   8.939  16.100  11.646  0.1889  0.0213  0.0885
13010W        W29144   8.654   9.513   3.856 -0.0665 -0.2170 -0.4081
13011W        W29145  12.384  11.051  12.973  0.2105 -0.0927  0.3732
13012W        W29146   0.218  18.854  14.418  0.0586 -0.1559  0.0036
13013W        W29147  15.587   0.180   1.635  0.1172  0.1395  0.3572
13014W        W29148   8.253  16.914  12.508  0.0642  0.1942  0.0547
13015W        W29149  18.485   3.090   4.379  0.2756 -0.0339  0.0679
13016W        W29150  17.409   0.275   2.273  0.0295 -0.0591  0.0388
13017W        W29151  11.325  14.674  13.207 -0.3064  0.0453  0.0727
13018W        W29152   1.494   1.594   4.777  0.1648 -0.1670  0.1123
13019W        W29153  18.060  13.592   5.075  0.1707  0.1326 -0.0695
13020W        W29154  18.680  18.974   0.797 -0.1591  0.0692  0.1131
13021W        W29155   4.859  17.283  12.915  0.1260  0.0266  0.1952
13022W        W29156  14.303  14.829  10.529 -0.0557  0.1507 -0.1458
13023W        W29157   6.765  11.798   0.298 -0.2305 -0.1890  0.1611
13024W        W29158  11.210   4.563  14.592  0.0205 -0.1299 -0.2709
13025W        W29159   6.823   6.123   0.024 -0.1308 -0.0650 -0.1631
13026W        W29160   6.362   7.026   0.310 -0.0693  0.2003 -0.4777
13027W        W29161  12.285   8.273   3.114  0.1831 -0.0783  0.1140
13028W        W29162   3.229   8.729   0.687 -0.2248 -0.0082  0.1636
13029W        W29163  16.342  15.595   3.677 -0.2165  0.0334 -0.2791
13030W        W29164  15.376  11.032  14.864  0.0501  0.0833 -0.2748
13031W        W29165   9.710   1.191  14.447 -0.1253  0.0351 -0.0961
13032W        W29166   8.150  12.726   2.018  0.0777 -0.1127  0.0232
13033W        W29167  16.516   1.469  11.509  0.1309  0.2154 -0.2261
13034W        W29168  12.536  11.394   1.064 -0.2480  0.0142 -0.3118
13035W        W29169  18.599   7.466   1.810 -0.2408  0.3534  0.1875
13036W        W29170   9.820   8.219  12.628  0.0856  0.1844 -0.1088
13037W        W29171   5.156   2.207   0.218 -0.4529  0.1540  0.2918
13038W        W29172  13.490  10.952  12.339  0.0305  0.0405 -0.1937
13039W        W29173   9.630   5.429  12.318 -0.3529 -0.1085  0.1292
13040W        W29174   9.291  17.974   0.190  0.0265 -0.1043 -0.0208
13041W        W29175   3.482  13.716  11.267  0.0332 -0.0414 -0.0766
13042W        W29176  14.993   4.133   2.808  0.0189 -0.3989 -0.0647
13043W        W29177  11.765   0.072   3.469  0.2293 -0.1827  0.2193
13044W        W29178   1.687  16.030  14.079 -0.2267  0.0588  0.0278
13045W        W29179   0.635   5.356   5.810  0.1227 -0.1078  0.2325
13046W        W29180   4.004   1.841   3.002 -0.1774 -0.0670  0.0512
13047W        W29181   7.736   4.249  12.439  0.2943 -0.2859  0.4413
13048W        W29182  18.375  14.402   1.232 -0.2187  0.1191  0.2258
13049W        W29183   7.921  11.955   4.134 -0.2394  0.1871  0.0955
13050W        W29184   3.270  12.764  13.100 -0.1216  0.0830 -0.1387
13051W        W29185  10.027  13.854   1.161  0.0402 -0.0360 -0.3781
13052W        W29186   1.963  15.152  13.734  0.2552  0.1024 -0.0092
13053W        W29187  16.119  13.251   4.651  0.1098 -0.0488  0.0819
13054W        W29188  16.455   2.872   4.919  0.0234 -0.3262 -0.1569
13055W        W29189  17.707  18.135   3.737  0.1297  0.2034 -0.1677
13056W        W29190   7.528  12.372   1.791  0.1017 -0.0839 -0.0860
13057W        W29191   1.090   1.991   4.647 -0.0760  0.1925  0.2357
13058W        W29192   6.126   8.815   3.148  0.1895  0.0724 -0.1742
13059W        W29193  12.011   5.492   0.411 -0.0126  0.2286 -0.0832
13060W        W29194   7.332   2.114  12.600  0.0028  0.0216  0.1474
13061W        W29195   2.865  11.723  12.707 -0.3063  0.3017 -0.0248
13062W        W29196   0.823  13.240   5.497 -0.1110 -0.0055 -0.0299
13063W        W29197   2.678  18.973  14.965  0.0578 -0.0667  0.0054
13064W        W29198   3.127   6.309  15.193 -0.3958 -0.2243  0.3319
13065W        W29199  12.134   7.711   0.902 -0.1213  0.2068 -0.0483
13066W        W29200  13.516  17.004  13.753  0.0500  0.2701 -0.1021
13067W        W29201   1.723   4.115   2.336  0.3665 -0.3172 -0.0176
13068W        W29202   2.255   2.926  14.760  0.2343  0.0021  0.1239
13069W        W29203  18.275   6.309  13.165  0.0653  0.2692 -0.0591
13070W        W29204   3.762   1.840  14.520 -0.0099  0.2499  0.0434
13071W        W29205  14.293   2.895   2.417 -0.1640  0.1081 -0.1724
13072W        W29206  13.913  13.735   4.914  0.3100 -0.3172 -0.2960
13073W        W29207  16.917   9.083   3.721 -0.2246  0.2453  0.0544
13074W        W29208  10.191   6.038  14.268  0.2491 -0.1040 -0.0606
13075W        W29209  17.725  16.088  14.450  0.0175  0.0063 -0.0237
13076W        W29210   7.146  12.158  11.645  0.0489 -0.0986  0.1859
13077W        W29211  16.619  11.109   4.618 -0.1870 -0.3704  0.1471
13078W        W29212  15.263   1.905   5.778  0.0918  0.2452 -0.1809
13079W        W29213   4.242   7.006   4.190  0.1440 -0.4193 -0.0091
13080W        W29214  15.269  14.198  13.416  0.0015 -0.1592 -0.0514
13081W        W29215   5.804   7.774  10.453 -0.0373 -0.2959 -0.1594
13082W        W29216   2.893  10.836  11.553  0.1838 -0.3193  0.0143
13083W        W29217  15.413   0.940   2.308 -0.0074 -0.0091 -0.0817
13084W        W29218  18.879   3.552  11.892 -0.1800 -0.0270  0.0823
13085W        W29219   1.631   4.247   3.633  0.0590 -0.0559 -0.1417
13086W        W29220   8.589   4.201   2.314  0.0689  0.0689  0.0062
13087W        W29221  12.118  13.998   1.034  0.0151 -0.2166 -0.0717
13088W        W29222  18.365  14.810   0.813 -0.3483  0.2400  0.1406
13089W        W29223  16.821   7.314   5.216 -0.2005 -0.2187  0.0338
13090W        W29224  13.550  10.408  12.375 -0.0099 -0.1063 -0.2156
13091W        W29225  12.468  16.222  12.248 -0.3370  0.0977  0.0769
13092W        W29226  12.854  18.446   2.034 -0.1143  0.1902  0.1764
13093W        W29227   7.888   4.742  15.021 -0.3563  0.0568  0.1949
13094W        W29228   5.495  18.867  12.609 -0.1463 -0.2755  0.1143
13095W        W29229   8.636  10.987   4.375 -0.1432  0.0434  0.0183
13096W        W29230   8.805   4.271   4.409  0.1837 -0.1248 -0.1709
13097W        W29231  15.944   2.838  13.983  0.0324 -0.0100 -0.3211
13098W        W29232  13.602  14.348   4.817  0.3489  0.2166  0.0327
13099W        W29233  13.721  16.404   3.094 -0.1110  0.3840 -0.0987
13100W        W29234  15.052   4.701  11.393  0.1855  0.3022 -0.0016
13101W        W29235   9.660   2.270   2.599 -0.0528  0.0770 -0.2711
13102W        W29236   5.862  15.395  12.695  0.1734 -0.3102 -0.5587
13103W        W29237   0.320   8.847  11.721  0.1397  0.0623  0.3713
13104W        W29238   2.453  18.757  11.653 -0.1194 -0.1269  0.1614
13105W        W29239  12.726   7.600   0.504  0.2476 -0.1620  0.1750
13106W        W29240   1.052  17.309   0.745 -0.0074  0.1613 -0.1110
13107W        W29241  14.360   8.228   0.478  0.1526 -0.1785  0.0974
13108W        W29242   1.786   1.650  11.296  0.0967 -0.1063 -0.3145
13109W        W29243   8.433  17.578   4.771 -0.0666 -0.1690 -0.2243
13110W        W29244  15.362   5.778  13.961 -0.0017  0.4721  0.1213
13111W        W29245   1.121   8.503  11.154  0.1848  0.0566  0.0904
13112W        W29246  13.602  14.606  10.380 -0.1432  0.4536 -0.1011
13113W        W29247  15.315   6.981   2.571  0.0015  0.1440  0.2453
13114W        W29248   7.432  11.838  14.854  0.2938 -0.0902 -0.0877
13115W        W29249  12.290  16.696  14.506  0.2975 -0.2563 -0.2170
13116W        W29250  17.508  17.216   3.624  0.0186 -0.2560  0.1691
13117W        W29251   4.987   7.998  12.397  0.1527 -0.1270  0.0970
13118W        W29252   9.138  17.571   2.634  0.1581  0.2345  0.1763
13119W        W29253   4.527  16.193  10.846 -0.1218 -0.0577  0.1215
13120W        W29254  15.095   8.172   2.076 -0.0098  0.3796  0.1119
13121W        W29255  14.089   1.660   0.898 -0.2873 -0.1310  0.2710
13122W        W29256   6.106  15.413  15.013  0.0593  0.0048 -0.0428
13123W        W29257   7.262   4.075  13.208 -0.1836 -0.2594  0.1058
13124W        W29258   3.635   3.363   9.635 -0.0276 -0.2860 -0.0061
13125W        W29259  10.059  13.056   5.484  0.0900 -0.0511 -0.0957
13126W        W29260  15.460   1.605   1.621  0.0634  0.0723 -0.1895
13127W        W29261   2.193  17.881  13.780 -0.2350 -0.0201  0.1457
13128W        W29262  13.251  18.582  13.943 -0.1499 -0.0261  0.0490
13129W        W29263  10.259   0.213   4.840 -0.4634  0.1756 -0.2938
13130W        W29264  14.221  11.459   3.667  0.3402  0.1768  0.0872
13131W        W29265  14.749   8.086  14.524  0.0351 -0.2822 -0.3346
13132W        W29266   8.130   3.619  12.125 -0.2161 -0.3304 -0.1044
13133W        W29267   0.447  18.558   1.798  0.0288 -0.1321 -0.0225
13134W        W29268   5.623  17.910   2.282  0.2490  0.0054 -0.0694
13135W        W29269   0.898   8.796  12.513  0.0836  0.2717 -0.0615
13136W        W29270  14.223  11.205   0.392  0.2985 -0.0856  0.0432
13137W        W29271  18.367  16.152   4.444 -0.2020 -0.1914  0.2690
13138W        W29272  16.500   4.916   0.503 -0.3410  0.0663 -0.1435
13139W        W29273   6.953   6.373   0.466 -0.1013  0.0647 -0.4026
13140W        W29274   5.907  15.956  11.362  0.1749 -0.2308  0.0401
13141W        W29275   5.509  12.711   4.308 -0.1102 -0.0234  0.1657
13142W        W29276   8.451   8.365   3.157 -0.0747 -0.1753  0.4983
13143W        W29277  14.629   4.699   9.981 -0.0280 -0.2217  0.5089
13144W        W29278   5.226  12.613  13.608  0.3546  0.3073  0.1719
13145W        W29279  14.138   7.335  11.673 -0.3143 -0.2788  0.0608
13146W        W29280  17.838  11.154  13.820 -0.1271  0.1636 -0.1068
13147W        W29281  10.998  14.568   0.807  0.0426 -0.0157 -0.1658
13148W        W29282  18.348   4.258  13.846 -0.0356 -0.1172 -0.1164
13149W        W29283   1.297   0.503  14.495  0.1028  0.2438 -0.0639
13150W        W29284  11.236   1.362   4.867 -0.1885 -0.1642  0.1973
13151W        W29285   9.468  12.557  12.709  0.0737  0.2896  0.1385
13152W        W29286   8.658  15.095  15.144  0.0690 -0.1283 -0.0944
13153W        W29287   5.244   2.141  11.544 -0.1263  0.3119  0.0882
13154W        W29288   8.157  11.752   4.942  0.0303  0.4282  0.1414
13155W        W29289   1.757   6.257   4.708  0.4641  0.0457 -0.2024
13156W        W29290  10.301   1.311   3.257  0.1128  0.0294 -0.0686
13157W        W29291   9.857   3.438  11.441  0.2156 -0.0411  0.0258
13158W        W29292   2.939   3.242  14.564 -0.1867  0.1948  0.0922
13159W        W29293   9.818   2.633   4.121  0.2469 -0.1128 -0.0507
13160W        W29294  16.670  10.000   4.038  0.0078  0.0550  0.3623
13161W        W29295  14.466   1.347   3.604  0.0232  0.0433 -0.0260
13162W        W29296   5.810  14.155  12.820  0.0109 -0.0558 -0.2105
13163W        W29297   2.976   9.317  15.271 -0.0758 -0.4481 -0.2210
13164W        W29298   8.185  17.161  14.141 -0.3321  0.0284 -0.1817
13165W        W29299  17.215   2.907   3.085 -0.2375  0.2477 -0.0972
13166W        W29300  16.825   4.797  11.031 -0.2808  0.1783  0.0958
13167W        W29301  10.403  17.375   5.173  0.1624  0.0835  0.1045
13168W        W29302  17.032  12.087  12.449 -0.1341 -0.0453  0.0747
13169W        W29303   6.694  15.180  10.407 -0.0098  0.1068  0.6093
13170W        W29304   2.651  11.793   4.346 -0.1689 -0.2855  0.1275
13171W        W29305  15.153  18.356  15.121 -0.3484  0.1518  0.2520
13172W        W29306   1.257  17.061  13.524 -0.3394 -0.2846  0.0464
13173W        W29307  15.533   0.859   2.825 -0.0379 -0.0335  0.2319
13174W        W29308   1.587  13.795   0.022 -0.0516 -0.1825 -0.1283
13175W        W29309  16.467  18.344   1.996  0.2023 -0.2258 -0.3387
13176W        W29310   4.856   4.226   3.176  0.2500 -0.0628 -0.1122
13177W        W29311   3.976   1.466  11.316 -0.0339 -0.1233  0.1674
13178W        W29312   0.591  17.072  15.227 -0.3080  0.0732 -0.2984
13179W        W29313  14.916   9.561   3.969  0.4104 -0.1813  0.1465
13180W        W29314  18.094  12.698  14.700 -0.1319 -0.1743  0.2217
13181W        W29315   2.040   9.369   1.048 -0.1361  0.0671  0.2160
13182W        W29316   1.588  13.469  13.837 -0.0778  0.0453 -0.0495
13183W        W29317  16.304   7.209  13.357  0.3643 -0.4033  0.0150
13184W        W29318   0.241  12.533  10.614 -0.1865  0.1507  0.0753
13185W        W29319  17.149   0.523   0.917 -0.3620 -0.1363 -0.0124
13186W        W29320  16.008  15.947  15.129 -0.1191 -0.1774 -0.2443
13187W        W29321   6.332   6.522  11.301  0.1443  0.0870  0.2597
13188W        W29322   1.931   5.386   1.650 -0.0976  0.0588 -0.0531
13189W        W29323   6.341   7.508  13.363 -0.2760 -0.1725 -0.0552
13190W        W29324  17.187   9.257   4.063  0.0595  0.0740 -0.5825
13191W        W29325   0.575  14.264   0.639  0.1325 -0.0300 -0.0164
13192W        W29326   6.165  12.915   4.914 -0.0948 -0.0722 -0.0037
13193W        W29327   1.001   5.911  12.952 -0.2443 -0.0326  0.3384
13194W        W29328   0.019  13.530   3.586  0.0955 -0.1011  0.3254
13195W        W29329   0.857   1.036   1.265 -0.0427  0.3514  0.0123
13196W        W29330  16.279  14.258   3.433 -0.2622 -0.0583  0.2379
13197W        W29331  11.339   4.999   2.683  0.0061 -0.0375 -0.0298
13198W        W29332   1.933   7.291  14.083 -0.2581 -0.0514 -0.0281
13199W        W29333  12.498   8.442   3.951 -0.0260  0.1333  0.1390
13200W        W29334   6.984   7.073   3.000  0.2337 -0.0222  0.2978
13201W        W29335   8.193  15.885  12.154 -0.0578  0.0870  0.0088
13202W        W29336   1.131   2.195   1.117 -0.1674 -0.2833 -0.0339
13203W        W29337   3.049   6.589   2.288 -0.0087  0.0031 -0.0432
13204W        W29338   9.095  12.051   3.244 -0.0512 -0.0709 -0.1772
13205W        W29339   9.996   5.954   0.173 -0.0899 -0.3777 -0.1570
13206W        W29340   9.755   6.407   3.905  0.1510  0.0590 -0.0187
13207W        W29341   4.556   3.322  13.051 -0.3728  0.0568 -0.2268
13208W        W29342   6.946  17.559   2.807 -0.0632 -0.4955  0.1376
13209W        W29343  17.903  14.996   0.717  0.0823 -0.0227 -0.1236
13210W        W29344  12.811  17.966  10.766  0.1052  0.0277 -0.0688
13211W        W29345   1.204   2.600  11.828 -0.1063 -0.0884  0.1512
13212W        W29346   6.858   0.598   0.388 -0.3230 -0.0767 -0.0923
13213W        W29347   9.909  15.167   5.240 -0.0116  0.0624  0.1576
13214W        W29348   7.916   0.018  12.475 -0.2419 -0.0316 -0.0444
13215W        W29349  10.323   4.446  10.396  0.2674  0.0406  0.0487
13216W        W29350   9.180   9.627   1.298  0.1043  0.3449  0.1045
13217W        W29351  16.668   4.414  12.564 -0.1806 -0.1003  0.0423
13218W        W29352  12.568  12.501   1.852  0.0853  0.2276  0.0447
13219W        W29353  10.719  16.334  12.749 -0.1620  0.3175 -0.1325
13220W        W29354   6.496   4.406   5.427  0.2520  0.1044  0.1893
13221W        W29355  17.901  14.984  13.289 -0.2968  0.0040  0.2238
13222W        W29356   6.080  17.835   1.412  0.1026 -0.1040 -0.0116
13223W        W29357  10.494  17.154  13.385  0.0120  0.1688  0.0512
13224W        W29358  17.184  14.987   2.966  0.1253 -0.2360 -0.4514
13225W        W29359  10.655  14.995   2.646  0.2127  0.1161  0.2388
13226W        W29360  12.530   2.246   1.784  0.0050  0.0193 -0.4113
13227W        W29361  12.474  16.924   5.499  0.0063  0.2275 -0.1642
13228W        W29362   6.291   5.405  14.227 -0.1615 -0.0430  0.4067
13229W        W29363  15.308   2.801   4.354 -0.2542  0.0750 -0.0164
13230W        W29364   5.946   9.024   2.239  0.1723 -0.1767 -0.0073
13231W        W29365  13.211   9.507  10.194  0.3401 -0.0492  0.1734
13232W        W29366   2.379   4.543  11.747  0.0933  0.4017  0.3579
13233W        W29367  12.233   0.518  11.671 -0.1829 -0.0253  0.2035
13234W        W29368  17.417  15.099   0.787 -0.2215  0.3122 -0.0680
13235W        W29369  17.944  16.449   4.605 -0.0677 -0.1075 -0.1220
13236W        W29370  10.379   6.996   0.945 -0.0948  0.0299  0.0272
13237W        W29371  10.779  13.852  11.104  0.1729 -0.0017  0.0871
13238W        W29372   9.865   3.254   3.293 -0.1350  0.1496 -0.4044
13239W        W29373   7.807  14.121  11.910  0.0860  0.2548 -0.1712
13240W        W29374   4.587  16.900   9.737 -0.0813  0.2333 -0.0650
13241W        W29375  16.048   8.453  11.172  0.0150  0.4207 -0.0181
13242W        W29376   5.324   9.777   1.695 -0.0112  0.0386 -0.0583
13243W        W29377   5.919   6.129   0.592 -0.0595 -0.0062  0.0193
13244W        W29378   4.365   8.963  13.773 -0.0925  0.0100 -0.1424
13245W        W29379   2.093   3.068   0.502  0.2237 -0.0523 -0.1167
13246W        W29380  14.202   3.431  13.530 -0.1592 -0.0451  0.0509
13247W        W29381  18.003  10.918  14.577 -0.2148 -0.1558  0.0191
13248W        W29382   0.089   3.559   1.649  0.0428 -0.1943 -0.0839
13249W        W29383   7.561   4.097   5.413  0.1676  0.1862 -0.2471
13250W        W29384   3.417   5.103   2.701 -0.1242  0.0034  0.1052
13251W        W29385   9.392   2.821  14.662  0.2699 -0.1209 -0.0442
13252W        W29386  11.484  18.294   0.263  0.3981  0.4315  0.1740
13253W        W29387   7.036  15.470   4.598 -0.2329  0.2443 -0.1624
13254W        W29388  13.620  17.617   1.271  0.1787  0.1370 -0.2450
13255W        W29389   8.061   0.826   2.392 -0.2882 -0.0521 -0.0037
13256W        W29390  11.338  15.653  11.474  0.2172 -0.1047  0.0152
13257W        W29391  18.661   4.051   0.140  0.1031 -0.0854 -0.1860
13258W        W29392   7.170  18.386   3.013 -0.1682  0.1117 -0.1281
13259W        W29393   9.524   5.953   3.499 -0.1506 -0.0997  0.2755
13260W        W29394   7.083   3.281  10.635  0.0724  0.1374  0.1420
13261W        W29395  16.848   3.031  13.234 -0.2090  0.0085 -0.0252
13262W        W29396   9.119  16.684   2.595 -0.0894  0.4113 -0.1872
13263W        W29397  14.088   1.537   1.712  0.0609 -0.1469  0.0780
13264W        W29398  12.338  12.663   2.331 -0.0556  0.0329 -0.0151
13265W        W29399   3.566   5.348  12.071  0.2180 -0.2514  0.0091
13266W        W29400   7.624   7.637   2.227 -0.2344  0.3769 -0.0316
13267W        W29401   2.855   3.210  11.244  0.4325 -0.1017 -0.1112
13268W        W29402  15.235  15.601  10.995 -0.1341  0.1604 -0.0214
13269W        W29403   9.105   6.706  11.294 -0.0644  0.1363 -0.2539
13270W        W29404   6.593   3.016   2.914  0.0644 -0.0493 -0.1403
13271W        W29405   6.051  15.812   0.641  0.1707  0.0944  0.0750
13272W        W29406   1.752   9.226  11.219  0.0619 -0.0075  0.1420
13273W        W29407   3.639  15.827  13.387  0.1633 -0.0052  0.1565
13274W        W29408   3.105   0.427   2.141 -0.1947 -0.0318 -0.4047
13275W        W29409  12.021  15.328   0.115  0.1300  0.0762 -0.2537
13276W        W29410   3.155  15.931  13.655  0.0258 -0.1281 -0.0360
13277W        W29411  12.983  15.928  13.027  0.2144 -0.0926 -0.0094
13278W        W29412   8.228   4.876   2.018  0.2465  0.0237 -0.1408
13279W        W29413  10.645  16.439   2.772 -0.1787 -0.2459 -0.1793
13280W        W29414   1.782   7.051   0.318  0.0061 -0.2059 -0.0098
13281W        W29415   4.373   6.864  13.287  0.2791 -0.2575 -0.0110
13282W        W29416   8.566  13.937   3.717  0.0068  0.1953  0.1613
13283W        W29417  17.176  12.995   2.416  0.1983 -0.1065  0.3083
13284W        W29418  18.360  10.882   3.353 -0.1006 -0.2272 -0.3295
13285W        W29419   7.483   7.358  14.133  0.0952  0.5713 -0.1267
13286W        W29420   2.964   7.350   1.249  0.1356  0.3865 -0.2215
13287W        W29421   9.831   7.729  13.945  0.1999  0.0392  0.1364
13288W        W29422  14.322   2.376   4.365 -0.5141  0.1023  0.0103
13289W        W29423   9.490   1.746  14.606 -0.1265 -0.2438 -0.0855
13290W        W29424   4.109  14.742   5.348 -0.1275  0.0104 -0.1037
13291W        W29425   5.696   6.921  11.585  0.1644  0.4342 -0.2421
13292W        W29426  17.800  15.088   3.789  0.1695  0.0541 -0.0212
13293W        W29427   2.195   5.730   5.546  0.0350 -0.1477 -0.0697
13294W        W29428  13.153   0.353   9.983 -0.0319  0.0745  0.0188
13295W        W29429   6.080  10.045  11.019  0.2262 -0.3227 -0.0482
13296W        W29430   8.193   2.443  10.831 -0.0209 -0.1906 -0.0143
13297W        W29431   3.083   4.730  14.703  0.0565 -0.3764 -0.1773
13298W        W29432   2.904  16.646   2.224 -0.0107  0.2146  0.4454
13299W        W29433   7.529  10.923  10.379  0.2126  0.1236 -0.1025
13300W        W29434  17.964   1.673   1.060 -0.0039  0.3370 -0.1499
13301W        W29435  15.960   8.125   3.202  0.1164 -0.1325  0.5257
13302W        W29436   1.999  16.136   2.063 -0.0189 -0.1488  0.0647
13303W        W29437  14.697  15.143  14.750  0.2832 -0.0295  0.0933
13304W        W29438  10.661   9.377  12.288  0.0960  0.1280  0.2251
13305W        W29439  11.146  11.636   1.994  0.0894 -0.0102 -0.2540
13306W        W29440   6.472   1.635  13.006  0.1263  0.2024 -0.2529
13307W        W29441   2.677   3.446   0.501 -0.0034 -0.0340  0.1077
13308W        W29442  12.869   8.579   4.620 -0.0166  0.2941  0.2800
13309W        W29443  14.894   3.477  11.622  0.1145  0.3007  0.2436
13310W        W29444   5.519   2.694  14.007 -0.0421 -0.3290 -0.0735
13311W        W29445   2.228   9.870   1.038  0.1661 -0.3884  0.3350
13312W        W29446  10.508  16.174   4.417 -0.5690  0.4391 -0.2593
13313W        W29447  14.904  16.185   1.759 -0.4729  0.1569 -0.1483
13314W        W29448   8.497   9.144   4.540 -0.1048  0.3194  0.0821
13315W        W29449   6.284  10.191  12.408 -0.1565 -0.0982 -0.3606
13316W        W29450  13.399   6.075  14.527 -0.0201 -0.0829  0.4360
13317W        W29451   1.018  11.688   0.328  0.0755  0.3091  0.1433
13318W        W29452   8.582  12.069   3.254  0.1433 -0.1003  0.2955
13319W        W29453   7.740  15.014  13.373  0.1668 -0.0830  0.0840
13320W        W29454   6.636  10.101   0.089 -0.4291 -0.0988 -0.0363
13321W        W29455   9.955   7.536   2.778  0.1483 -0.2887  0.1008
13322W        W29456   1.140   8.072   2.740 -0.0404  0.4775  0.1590
13323W        W29457   7.545   7.401  13.301  0.1144 -0.2714  0.1439
13324W        W29458   9.934   1.573   4.200  0.1053  0.0592  0.1895
13325W        W29459  10.664   4.058  13.596 -0.0652 -0.3202  0.2450
13326W        W29460   6.610  13.982   0.427 -0.0081  0.0653 -0.0025
13327W        W29461   8.666  15.380  13.637  0.1460  0.0761  0.1881
13328W        W29462  17.445   1.807   5.722  0.0438 -0.0724 -0.0523
13329W        W29463   3.553  16.320   3.896 -0.2521 -0.3165  0.0479
13330W        W29464  14.320  13.379   0.700  0.0051  0.0237 -0.2902
13331W        W29465  15.076   1.891   1.630  0.0112  0.1883  0.3005
13332W        W29466   1.726   5.124  11.857 -0.0459  0.0777  0.1939
13333W        W29467   9.980   7.992   5.135  0.3826 -0.2234 -0.0274
13334W        W29468   9.434  10.400   1.405 -0.0069  0.0465 -0.0149
13335W        W29469   2.145   5.968   4.592 -0.0297 -0.2049 -0.1197
13336W        W29470   7.165   4.118   2.452  0.2257  0.1172 -0.1604
13337W        W29471  15.919  18.822   3.173  0.2166 -0.1807 -0.2204
13338W        W29472  13.286   7.171   1.897 -0.1733  0.0652  0.2049
13339W        W29473  10.771   9.143   0.880  0.0154  0.2198  0.1113
13340W        W29474  17.482   1.462  11.549  0.0903  0.0121 -0.1752
13341W        W29475  11.636  15.855   2.022  0.2723 -0.1190 -0.2001
13342W        W29476   9.342  17.211   3.125 -0.2346 -0.1145 -0.1577
13343W        W29477   0.578  12.997   1.607  0.1122 -0.1211  0.1043
13344W        W29478   3.939   8.864  11.458  0.0167  0.0273  0.1451
13345W        W29479   7.781   8.969   2.306  0.3338 -0.1294  0.1035
13346W        W29480  14.212  14.214   2.220 -0.1447  0.0045 -0.1937
13347W        W29481   7.224   5.730   5.810 -0.0775  0.1390 -0.0059
13348W        W29482  16.567  17.926   0.866  0.0548  0.1139  0.2540
13349W        W29483   9.490   6.666   0.147 -0.1858  0.2906  0.0736
13350W        W29484  17.870  10.041  11.020 -0.1568  0.1877  0.0110
13351W        W29485  16.846  14.103   1.994 -0.0581  0.1440 -0.2437
13352W        W29486  16.582   9.450  11.581  0.0107  0.4084 -0.2774
13353W        W29487  18.714  15.189   0.869 -0.2686  0.3621  0.1486
13354W        W29488   4.091  15.741  12.998  0.1735  0.0219  0.0440
13355W        W29489   9.388  11.964   1.409 -0.0612  0.1516  0.0433
13356W        W29490  10.186  14.557  11.338 -0.0092 -0.0151  0.1499
13357W        W29491   5.479  15.509   4.302 -0.0325 -0.4047  0.1379
13358W        W29492  11.194  13.594   9.299 -0.1900 -0.1055 -0.2133
13359W        W29493   8.140  17.970  12.250 -0.0313  0.0209  0.1120
13360W        W29494  13.740  13.659   1.299 -0.1360  0.2445 -0.1892
13361W        W29495  10.908   0.828  13.880 -0.1979 -0.0883  0.1850
13362W        W29496  12.684   2.107  13.392  0.0037 -0.0841  0.0583
13363W        W29497   9.854   1.818   2.679 -0.0944 -0.3609 -0.2493
13364W        W29498  14.982   0.266   3.889  0.5678 -0.0650  0.1336
13365W        W29499   9.947  11.159  10.504  0.0697  0.0680  0.0081
13366W        W29500   8.050   1.540  12.953 -0.2801  0.0622  0.0423
13367W        W29501  17.279  14.949   5.177 -0.2624  0.1999 -0.3006
13368W        W29502   2.135   4.883   3.333 -0.1317  0.0708 -0.3347
13369W        W29503  10.320  15.458   3.899 -0.0636 -0.1300  0.1821
13370W        W29504   9.228   3.425   0.858 -0.1548  0.0243  0.3030
13371W        W29505   5.453   8.583   5.116 -0.0505  0.0206 -0.2343
13372W        W29506   3.093   9.963   1.358  0.1119 -0.0691  0.0223
13373W        W29507  17.377  13.116  10.552 -0.2206 -0.0328  0.0317
13374W        W29508  17.498  16.937   0.070 -0.1738  0.0479 -0.2203
13375W        W29509   3.063   2.967   3.662  0.1221 -0.1515 -0.0149
13376W        W29510   5.057   7.672   2.117  0.0501  0.1764 -0.0251
13377W        W29511   7.080   6.102  12.184  0.0102  0.1205 -0.0441
13378W        W29512  14.447  17.240   3.389 -0.1043 -0.0711 -0.1523
13379W        W29513   9.079  14.965  14.890  0.1428 -0.0322 -0.0130
13380W        W29514   2.875   1.368   5.123 -0.0572  0.2349 -0.3521
13381W        W29515  13.084  17.967  12.247  0.3028 -0.0678  0.1758
13382W        W29516  11.748   5.919   4.953 -0.2359  0.0340  0.0126
13383W        W29517   9.247   6.105  14.218 -0.0780 -0.4125 -0.0353
13384W        W29518   1.044  12.950  12.620 -0.2211  0.2756  0.2130
13385W        W29519  15.438  12.110   0.180 -0.2743  0.0669 -0.2384
13386W        W29520  17.883   6.425   6.113 -0.1097  0.0471  0.2707
13387W        W29521   4.508  10.475   2.928  0.3250 -0.2226  0.3184
13388W        W29522  15.914   5.148   4.179  0.1154  0.1331  0.0449
13389W        W29523   0.073  14.340  13.377  0.0630  0.3704 -0.2868
13390W        W29524   0.436  17.817  11.897  0.0603  0.0651  0.1346
13391W        W29525  17.891   5.118  13.867 -0.3275  0.0071 -0.0640
13392W        W29526  18.334   1.722   1.457 -0.2829 -0.2193  0.0216
13393W        W29527  17.098   9.545  14.507  0.0613  0.0512 -0.0400
13394W        W29528   3.662   6.845  13.384 -0.0135  0.0453  0.0463
13395W        W29529   5.911   8.588   1.016  0.0229 -0.1827  0.0867
13396W        W29530  12.428   4.465  14.950 -0.0012 -0.1716 -0.0206
13397W        W29531  17.481  11.714  11.930  0.2799  0.2736 -0.2630
13398W        W29532   0.753  13.604   2.717 -0.0749 -0.0225 -0.0927
13399W        W29533   4.701   1.084   0.644  0.1770 -0.3334  0.0215
13400W        W29534   9.266  15.075  12.799  0.0172 -0.0265  0.0348
13401W        W29535   7.991   6.146   2.369  0.1045  0.1639  0.1489
13402W        W29536   1.311   6.847  14.890  0.0098 -0.1370 -0.1156
13403W        W29537   0.461  11.824   1.110  0.2410  0.1483 -0.0244
13404W        W29538   4.030  16.651   3.271 -0.0433  0.0048  0.4197
13405W        W29539  10.706   1.238  12.038  0.6798  0.4787  0.3785
13406W        W29540   6.433   5.806  14.582  0.0629  0.0808  0.0394
13407W        W29541  10.088  10.560  10.597 -0.0922  0.0163  0.1650
13408W        W29542   3.221  11.495   1.036 -0.1238  0.0702 -0.0805
13409W        W29543   6.394  12.261   2.725  0.1431 -0.2031 -0.1010
13410W        W29544  15.795   8.142   0.028 -0.1286  0.5593 -0.1548
13411W        W29545   6.864  10.894   2.475  0.1332  0.2198  0.0115
13412W        W29546  14.235  14.461   0.189 -0.5587  0.0388 -0.4576
13413W        W29547   8.901  10.693   3.326 -0.0903  0.3796 -0.1514
13414W        W29548   2.580  15.785  11.930  0.0172 -0.0546 -0.0467
13415W        W29549  18.263  18.226  14.685 -0.1594 -0.0195  0.0150
13416W        W29550  16.740  18.496  13.420  0.1048 -0.1389  0.2198
13417W        W29551  17.756   8.136  11.331 -0.1566 -0.0469 -0.1371
13418W        W29552   6.681  12.888   3.807  0.0908  0.4599 -0.1796
13419W        W29553   8.232   2.137  14.232 -0.2947  0.1774 -0.0296
13420W        W29554   5.722   4.235   3.890 -0.0275  0.1485 -0.1953
13421W        W29555   4.611   6.630   4.060 -0.1994 -0.1046  0.1147
13422W        W29556  11.838   6.749  14.580  0.3012  0.5887  0.0576
13423W        W29557   5.485   1.090   2.683  0.4133  0.0679  0.0449
13424W        W29558   4.816   1.148   3.966  0.3583 -0.0153  0.1947
13425W        W29559  11.863  12.122  12.885 -0.3390  0.2538 -0.0034
13426W        W29560   7.271   4.978  13.388  0.1920  0.0348 -0.2558
13427W        W29561   4.851  12.461   3.117 -0.0377 -0.0314 -0.2883
13428W        W29562   9.473  18.863   0.840  0.2953 -0.0762 -0.1486
13429W        W29563  19.000  11.117  10.811  0.2556  0.2765 -0.1056
13430W        W29564  16.382   6.289   1.391 -0.1193 -0.0105 -0.1314
13431W        W29565   8.161  10.709   4.389  0.0518 -0.2707  0.1007
13432W        W29566  12.990  14.032  14.886 -0.0253 -0.3272  0.3088
13433W        W29567   1.371   3.602  11.048  0.2083  0.2208 -0.0773
13434W        W29568   0.053   6.728  11.542  0.2216  0.2825 -0.1151
13435W        W29569   7.471   3.499  12.381 -0.0452 -0.1246  0.0913
13436W        W29570   5.571   9.718  14.207  0.4620 -0.2414  0.0187
13437W        W29571   8.679  13.727   2.156 -0.0978 -0.1879 -0.0217
13438W        W29572  11.446   7.703   3.593  0.2799 -0.1582  0.1693
13439W        W29573  18.969   8.643  12.558 -0.1009  0.0410 -0.1577
13440W        W29574  15.262  17.138  11.146 -0.0839 -0.1163  0.3636
13441W        W29575  15.185   8.973  14.802 -0.0821 -0.3345  0.0548
13442W        W29576   9.418  10.473  14.506  0.0556  0.1095 -0.0902
13443W        W29577  11.367   9.183   1.921 -0.1739  0.0546 -0.1184
13444W        W29578   6.648  17.615  14.062 -0.2239 -0.1824 -0.3243
13445W        W29579   3.155   2.576   3.946 -0.2560 -0.2839 -0.0887
13446W        W29580   0.474  14.803   4.671 -0.0176  0.2010  0.1653
13447W        W29581   5.838   9.307  14.058  0.0926 -0.1252 -0.1209
13448W        W29582   2.544   7.164   0.054  0.0377 -0.2630 -0.1081
13449W        W29583   7.772  11.034  11.704 -0.2592 -0.0740  0.5114
13450W        W29584  14.425   1.681   0.422  0.3282  0.0302 -0.2383
13451W        W29585   5.008   8.873  14.306  0.0893  0.0534 -0.2019
13452W        W29586   6.138  18.377  15.089  0.1074 -0.0931  0.0251
13453W        W29587  15.562   7.228   5.024  0.1764  0.0496 -0.0729
13454W        W29588   0.936   3.982  15.142  0.2054  0.1952  0.0271
13455W        W29589  13.525   2.351   3.780 -0.1825 -0.1434 -0.1187
13456W        W29590   3.644  11.911  11.951 -0.3234  0.2480 -0.1268
13457W        W29591  11.914  13.591   4.864  0.0907 -0.0464  0.0194
13458W        W29592   7.625  16.684  11.148  0.1386 -0.2364 -0.0504
13459W        W29593  11.904  17.882   3.549  0.0037  0.2753  0.1068
13460W        W29594  10.135  11.259   2.819  0.0578 -0.1369  0.1802
13461W        W29595   9.199  14.734   0.028 -0.2962  0.0184  0.0077
13462W        W29596  13.232   2.562  11.246 -0.2809  0.2431 -0.0488
13463W        W29597   1.488  16.292   1.158 -0.2355 -0.0702  0.0018
13464W        W29598   7.321   1.817   1.436 -0.1499 -0.1549  0.1392
13465W        W29599   9.431   4.840   9.721 -0.0183 -0.0548 -0.1907
13466W        W29600   7.282   1.501   4.250  0.0945  0.6372 -0.0000
13467W        W29601   6.830   4.793   0.310  0.2428  0.2507  0.4079
13468W        W29602  15.214   6.645  11.326  0.0182  0.0201 -0.0270
13469W        W29603   1.006   5.019   2.621  0.3587  0.1752 -0.0391
13470W        W29604   1.686   3.444  10.627 -0.2175 -0.2727  0.1989
13471W        W29605   6.613  11.319   9.835  0.0900  0.0123  0.2563
13472W        W29606   2.177  10.211   1.457 -0.2778 -0.1962 -0.1515
13473W        W29607   8.327  16.031   2.425  0.0790  0.1334  0.1458
13474W        W29608   1.602   6.047  12.275 -0.0422 -0.0585 -0.0474
13475W        W29609   7.984  11.362   2.028  0.1673 -0.2801 -0.2078
13476W        W29610  16.345  13.507  13.826  0.3094 -0.0990 -0.1855
13477W        W29611  11.586   0.902  12.545  0.2714  0.3565 -0.0366
13478W        W29612   5.038   1.636   2.137  0.1414  0.2355 -0.2734
13479W        W29613   3.537   4.204   4.856  0.3479 -0.1481 -0.2629
13480W        W29614   9.270   0.543   2.763  0.0074  0.0835  0.5442
13481W        W29615  14.721   8.886  13.955 -0.0983 -0.0619 -0.1175
13482W        W29616   1.362   1.427  15.281  0.0376  0.1536 -0.2086
13483W        W29617  13.404   9.386  14.172  0.3135  0.0650 -0.0992
13484W        W29618   6.484  11.834  12.453 -0.1918  0.3461 -0.1243
13485W        W29619   5.740  16.205   0.570  0.0221  0.0164  0.3168
13486W        W29620  10.401   0.086  13.449 -0.0626 -0.0728  0.0144
13487W        W29621   0.120  15.237   2.823  0.0333 -0.1760  0.1418
13488W        W29622  11.228   0.577   0.816  0.1075  0.0338 -0.1376
13489W        W29623  17.879  13.160  10.682 -0.0116  0.4750  0.1825
13490W        W29624   1.649   6.966  14.442 -0.1320 -0.0104  0.0635
13491W        W29625   8.458  18.377  12.169  0.1434 -0.0839 -0.2125
13492W        W29626   5.164  14.546   9.917 -0.2112  0.0915 -0.2305
13493W        W29627  11.086   7.691   3.903 -0.0788  0.0602 -0.2261
13494W        W29628   5.463  14.659  14.870  0.1243  0.1601  0.2228
13495W        W29629   1.725  11.056  14.561  0.0356  0.0664 -0.3006
13496W        W29630  14.454  16.047  10.493  0.0817  0.2321  0.1287
13497W        W29631  14.879  14.231  14.347 -0.2550 -0.0756 -0.0847
13498W        W29632  12.181  13.868   1.947 -0.0603  0.2018  0.0329
13499W        W29633   4.084   6.633  13.594 -0.0074 -0.1498  0.1178
13500W        W29634   2.927   9.420  11.317 -0.0822 -0.2595 -0.0930
13501W        W29635   5.179  12.516   0.622  0.0308  0.0790  0.1354
13502W        W29636  10.949  17.068  13.091 -0.0313  0.0881 -0.0918
13503W        W29637   2.870  15.018   3.608  0.0690  0.1157 -0.0840
13504W        W29638  17.830  13.021  15.065 -0.1283 -0.0745  0.0073
13505W        W29639  17.169  13.571  11.417 -0.2796 -0.0517 -0.3694
13506W        W29640  16.444   5.550   5.991 -0.1754 -0.0611  0.0363
13507W        W29641   4.122  16.095  14.033  0.1400 -0.0646  0.1704
13508W        W29642   8.552   6.055   1.747 -0.1180 -0.0739  0.0694
13509W        W29643   4.024  10.590   1.412  0.3335  0.0507 -0.0910
13510W        W29644   6.516   7.341   1.124  0.2737 -0.2352  0.0361
13511W        W29645  18.571  12.783   2.371  0.4850 -0.1408  0.0754
13512W        W29646  12.530   2.574  14.989  0.0151  0.2211 -0.1957
13513W        W29647   4.170  13.133  12.356  0.0539  0.0349 -0.1418
13514W        W29648   7.656  16.961   1.596 -0.2037 -0.1621 -0.1360
13515W        W29649  17.066  17.078   2.307  0.1352 -0.1180 -0.0542
13516W        W29650   4.703  11.061   2.101  0.0793 -0.1600  0.0011
13517W        W29651   7.330   6.680   2.020  0.0246  0.0655 -0.4343
13518W        W29652  10.920   7.243  14.432  0.0064  0.2599  0.2586
13519W        W29653   6.045  10.135   0.474 -0.1190  0.0881  0.1935
13520W        W29654  17.379   1.783  11.865  0.4153  0.0393  0.0286
13521W        W29655  10.613  15.065   3.722  0.0701 -0.0290 -0.0448
13522W        W29656  13.356   3.270  12.877  0.2036  0.1075  0.1842
13523W        W29657   9.150   4.703   0.607  0.1290 -0.0968  0.0489
13524W        W29658  12.451  13.250  14.356 -0.3119 -0.0028 -0.0253
13525W        W29659  15.143  10.118   5.254 -0.1402  0.2998  0.2455
13526W        W29660  11.171   5.166  14.164 -0.1650  0.0952 -0.3042
13527W        W29661  15.878   9.606   3.458 -0.0785 -0.1165  0.0403
13528W        W29662  16.311   0.292   0.880 -0.1402  0.1547 -0.1094
13529W        W29663  12.605  10.295   2.072 -0.0185 -0.0698  0.0734
13530W        W29664  18.668  13.194  13.821  0.0853 -0.3243  0.0999
13531W        W29665  14.202   0.801   2.910 -0.2543  0.0428 -0.0811
13532W        W29666   6.862  14.302   3.258 -0.1753  0.0172  0.0820
13533W        W29667   7.719  17.658  13.710 -0.1473  0.0952  0.2822
13534W        W29668  10.350  16.529   3.532  0.0859  0.2149  0.1593
13535W        W29669   2.350   3.810   0.251  0.2006 -0.0058 -0.0975
13536W        W29670  10.568  11.106  12.197  0.1884  0.1484  0.0618
13537W        W29671  18.465   4.523  10.908 -0.2281 -0.0211  0.0379
13538W        W29672  13.681  12.813  11.709 -0.0578 -0.0727 -0.1184
13539W        W29673   0.248  16.114  13.371  0.1839  0.1269 -0.0010
13540W        W29674   3.622   9.270   2.499  0.0723  0.1613 -0.3414
13541W        W29675  11.988   4.620   0.611  0.0839  0.1954  0.0659
13542W        W29676   1.078  16.105   1.283  0.1586  0.0515  0.0672
13543W        W29677   8.416  10.989   3.306 -0.1197 -0.4223  0.1443
13544W        W29678  14.233  14.077  11.110  0.3238  0.1397 -0.2233
13545W        W29679   9.167  16.959  11.702  0.2977 -0.1611  0.1236
13546W        W29680  18.654  12.257  15.083  0.3783 -0.0962 -0.2809
13547W        W29681  18.105   0.364  12.896  0.1776 -0.0436 -0.3098
13548W        W29682   4.798   1.124  10.827  0.0367 -0.0044  0.0492
13549W        W29683   8.375  17.299  13.669 -0.2659  0.0209  0.5556
13550W        W29684  18.965   8.986   1.500  0.0809 -0.0918 -0.1112
13551W        W29685  16.144  13.720  10.486 -0.2222 -0.0633  0.3834
13552W        W29686   9.209  18.942  14.927 -0.1535  0.0574 -0.0091
13553W        W29687   6.010  15.028  11.149  0.1763 -0.3978 -0.0220
13554W        W29688   0.158   3.910   3.957 -0.3805  0.3850 -0.0620
13555W        W29689  13.948  11.523   0.790 -0.0528 -0.1153  0.0125
13556W        W29690   6.037   6.088  12.102  0.2048 -0.0320 -0.0193
13557W        W29691   7.564   8.132  14.240 -0.1688  0.0373 -0.1004
13558W        W29692  16.114   9.088   0.316  0.1228 -0.0077 -0.1505
13559W        W29693  17.520  16.252   5.017  0.1738  0.1534 -0.3120
13560W        W29694  15.375  12.706  12.925  0.0400  0.0367 -0.0696
13561W        W29695   1.157   1.961  11.923 -0.1903  0.1154  0.3316
13562W        W29696  13.712  10.982   1.696 -0.0973  0.0871 -0.0199
13563W        W29697   0.176   6.542   3.732  0.0030 -0.1415 -0.0207
13564W        W29698   8.227  14.723   2.175 -0.0923 -0.1969 -0.3646
13565W        W29699  12.701  10.606  11.159 -0.3894  0.2612 -0.2648
13566W        W29700  12.775   4.311  11.009 -0.0135  0.1399  0.0313
13567W        W29701   4.115  15.414   3.773 -0.2709 -0.0313 -0.2310
13568W        W29702   1.271   1.038  13.751 -0.0431  0.1600  0.0863
13569W        W29703  14.780   3.247   0.110 -0.2962 -0.1614  0.0147
13570W        W29704  17.800   9.518   5.374 -0.2513 -0.3672 -0.0346
13571W        W29705  11.515   7.082  14.360 -0.3974 -0.1627 -0.2143
13572W        W29706   3.945   2.875   0.786  0.1950  0.0388 -0.1452
13573W        W29707   1.045   7.572   4.855 -0.0546 -0.0836 -0.0728
13574W        W29708  12.924   4.895   3.377 -0.2855  0.0415 -0.0210
13575W        W29709   3.268   8.851  14.780 -0.0850  0.0296 -0.0292
13576W        W29710  12.212  10.467   0.821 -0.0434 -0.4372 -0.0888
13577W        W29711   6.606   9.203   3.433 -0.3683 -0.0604  0.2524
13578W        W29712  15.436   0.030   3.149 -0.0663  0.3445 -0.1338
13579W        W29713  11.377  11.014  10.827  0.0826  0.0565 -0.4099
13580W        W29714   7.522   8.170  11.056 -0.0087  0.2503  0.1533
13581W        W29715   9.999  15.224  14.882  0.0553 -0.0012 -0.6104
13582W        W29716  17.350   8.286   3.593 -0.1645 -0.0893  0.3748
13583W        W29717   8.309   9.627  12.565 -0.1864 -0.0307  0.0234
13584W        W29718  12.690   2.680   3.943 -0.3587 -0.1625  0.0454
13585W        W29719   3.036  16.749   5.166  0.1051 -0.1183  0.0613
13586W        W29720   9.287  10.269   2.691 -0.0107 -0.0309 -0.2132
13587W        W29721   7.811   7.993   3.234 -0.4188  0.2000 -0.2103
13588W        W29722   1.318   5.436  11.242  0.0396 -0.4105  0.3608
13589W        W29723   4.483  15.975   0.259 -0.0274  0.0554  0.2411
13590W        W29724  11.509   4.574   3.026  0.1454  0.0490  0.0305
13591W        W29725  11.590  13.898   0.723  0.0217 -0.1349  0.0781
13592W        W29726  16.657  18.298   3.251  0.0653 -0.2300  0.0704
13593W        W29727   6.103  15.413   3.422 -0.0330  0.1201 -0.4962
13594W        W29728  13.676   9.596   2.594 -0.0250  0.0594  0.1663
13595W        W29729  10.631   1.005  11.217  0.4214  0.0755  0.0175
13596W        W29730  14.478   9.667   1.759  0.2755  0.0611  0.1464
13597W        W29731   1.151   4.724  13.955  0.5614 -0.1516  0.0994
13598W        W29732  14.894   6.394  12.084  0.1975  0.1018  0.2353
13599W        W29733   3.845  16.894   1.194  0.0432  0.2351  0.1026
13600W        W29734   4.653   6.462  15.241  0.1781 -0.0164  0.2521
13601W        W29735  15.752  15.532   2.461  0.4486  0.1271  0.0523
13602W        W29736  18.273   0.511  11.388  0.0927 -0.0753 -0.0247
13603W        W29737  18.112  18.828   3.075  0.0442 -0.1146  0.1137
13604W        W29738  10.551  12.784   2.208 -0.1248 -0.1978 -0.2175
13605W        W29739   2.951  10.587  12.012  0.1518  0.0054  0.0252
13606W        W29740  10.459  10.715   5.767 -0.1235  0.2075 -0.3487
13607W        W29741  16.449   8.041  14.313  0.3079  0.0398  0.0878
13608W        W29742  13.005   4.437  13.333 -0.3775  0.0581 -0.1245
13609W        W29743   0.174   6.164   1.471  0.1422 -0.0816  0.0749
13610W        W29744  15.234  14.840   2.074 -0.0594  0.1208  0.3025
13611W        W29745   7.402  15.112  14.471  0.0121 -0.1510  0.1113
13612W        W29746  12.386   0.701  10.586 -0.1477 -0.0330  0.5041
13613W        W29747  13.422  10.025  14.808 -0.2782  0.0367  0.0732
13614W        W29748  15.131   4.874   4.531 -0.0903 -0.2235 -0.0258
13615W        W29749   4.569  13.166  13.573 -0.2492  0.4272  0.0008
13616W        W29750  16.421  18.092  11.634 -0.0504  0.1644  0.4203
13617W        W29751   0.254   1.244   5.300 -0.1365 -0.3686  0.0088
13618W        W29752  15.042  16.021  15.030  0.2449 -0.0244 -0.1883
13619W        W29753   2.654   3.182  10.481 -0.1013 -0.0220  0.0210
13620W        W29754  16.853   7.286   0.844 -0.2124 -0.0653  0.0160
13621W        W29755  18.471   3.420  14.390 -0.1841 -0.0408 -0.4850
13622W        W29756   3.983  17.388   4.985  0.0486  0.2827 -0.0710
13623W        W29757   0.500   6.542   4.652 -0.1740  0.1037 -0.0161
13624W        W29758  12.341   5.697  13.082 -0.1274  0.2473  0.0616
13625W        W29759  11.436   6.055   4.537  0.1613 -0.0989 -0.2428
13626W        W29760  12.052  12.239   2.545 -0.1354 -0.2088  0.0189
13627W        W29761  13.178   9.396   1.913 -0.0905 -0.3238  0.1916
13628W        W29762  16.795   7.920   4.795  0.2780  0.2088  0.0421
13629W        W29763  11.797   5.371   0.854 -0.0111 -0.1232 -0.0289
13630W        W29764  17.028   3.002  13.761  0.1305  0.4038  0.1860
13631W        W29765   5.301  10.248   4.075  0.1861  0.0685  0.0205
13632W        W29766   2.481  10.726  14.233  0.0364  0.3000 -0.1845
13633W        W29767   9.988  18.672   0.269 -0.0291 -0.5904  0.3309
13634W        W29768  10.858   0.575  11.872  0.1049  0.2090  0.0193
13635W        W29769   4.070  12.757   3.781  0.0859 -0.1794  0.0640
13636W        W29770   8.967  10.831  11.259 -0.2901  0.1093 -0.3917
13637W        W29771   9.622   6.336  10.496 -0.1327  0.0373 -0.0933
13638W        W29772   7.895  17.373   1.559  0.1973  0.2517 -0.1679
13639W        W29773  15.147   9.986   3.015  0.1369 -0.1895 -0.3526
13640W        W29774  17.390   9.883   4.775  0.0447  0.1223  0.0666
13641W        W29775   5.905  13.341  11.799 -0.3145 -0.1839  0.1420
13642W        W29776   6.954  15.835  14.273 -0.1239 -0.2112  0.0931
13643W        W29777   5.082   6.677  14.121  0.3121 -0.1253  0.0527
13644W        W29778   7.402   2.730  14.521 -0.2009  0.1800  0.2734
13645W        W29779   7.583   2.020  15.124 -0.2814 -0.0785  0.1798
13646W        W29780  16.939   1.779   4.153  0.1457 -0.1159 -0.0185
13647W        W29781   2.400   3.003  12.295 -0.3215 -0.0757  0.1908
13648W        W29782  12.683  11.388   0.202 -0.2897  0.1424  0.0112
13649W        W29783  10.521  14.271   0.594  0.0175  0.1842 -0.2159
13650W        W29784  18.991  17.803   0.588  0.1023  0.3259  0.1519
13651W        W29785   9.764  13.813  14.309  0.0248 -0.2790  0.0641
13652W        W29786   4.602  13.539   1.437  0.1497 -0.0646 -0.1382
13653W        W29787  11.817  14.655   0.600 -0.1111 -0.0601  0.1112
13654W        W29788  13.733  16.529   4.409 -0.1031  0.1059 -0.0480
13655W        W29789   9.977   1.248   0.044  0.1644  0.0046  0.0702
13656W        W29790   6.608  15.802   4.048 -0.0914  0.1315 -0.1336
13657W        W29791   4.640  18.128  15.219 -0.0657  0.0945  0.1444
13658W        W29792  18.770   1.155  10.839  0.0506 -0.0782 -0.2354
13659W        W29793   7.089   5.781  10.093 -0.0032  0.0461 -0.0364
13660W        W29794  10.805  18.589  15.118  0.5590  0.1145  0.0864
13661W        W29795   7.048  10.006   3.212  0.1354  0.0970  0.3862
13662W        W29796  12.782   9.265   5.135 -0.0898  0.1436 -0.0068
13663W        W29797   8.085   7.468  13.353  0.1724 -0.0235 -0.0338
13664W        W29798  13.146  11.167  13.573  0.1970  0.0384  0.2207
13665W        W29799   4.459   5.693  12.723 -0.1576  0.1160 -0.3674
13666W        W29800  15.618  12.750   2.657 -0.1169 -0.1391 -0.1604
13667W        W29801   3.973   5.741   2.691 -0.1378 -0.2899 -0.1232
13668W        W29802   0.282  11.878   2.427  0.1838 -0.2805  0.0601
13669W        W29803   5.193   3.431  10.851 -0.4440  0.0785  0.2014
13670W        W29804   9.157  17.740  12.406  0.1913  0.0425 -0.1218
13671W        W29805  11.099   9.355  13.697 -0.0258  0.4322 -0.0584
13672W        W29806   3.278  16.242   0.469  0.1783 -0.1568  0.0770
13673W        W29807  16.083  13.776   2.394  0.0802  0.2228 -0.0102
13674W        W29808   7.227  12.375  14.872  0.0465  0.0198 -0.1842
13675W        W29809  10.888   4.575  12.732  0.1897  0.1815  0.2110
13676W        W29810   8.669  13.843  13.280  0.1960  0.2344 -0.2361
13677W        W29811  13.430  16.099  14.682 -0.2337  0.1343  0.1019
13678W        W29812   7.471  17.935   4.368 -0.0215 -0.1431  0.4965
13679W        W29813   7.127  16.355  11.630  0.1142 -0.1870  0.2189
13680W        W29814   6.474  18.256  12.176  0.1199 -0.2028 -0.1305
13681W        W29815   9.176   1.818   1.967  0.2080  0.1083  0.0330
13682W        W29816   0.940  16.259   5.619 -0.0116 -0.1118  0.2272
13683W        W29817  16.083  16.259   4.790 -0.0712 -0.1102  0.0049
13684W        W29818   1.871   5.329  10.550  0.1397 -0.3993 -0.0613
13685W        W29819   0.242  14.147  11.906  0.0298 -0.2610  0.2706
13686W        W29820  17.251   1.346   0.304 -0.3677  0.0890  0.1236
13687W        W29821  17.001   0.619  14.329  0.0917 -0.0475  0.1846
13688W        W29822  18.190  10.020  12.093  0.0412 -0.2561 -0.0126
13689W        W29823   9.755  18.967   4.414 -0.4776  0.4230  0.0527
13690W        W29824  14.229   6.182  13.442  0.2979  0.2854 -0.0017
13691W        W29825   4.709  12.532   4.218 -0.1211  0.1073 -0.0104
13692W        W29826  15.182  15.468  13.943 -0.0375 -0.3065 -0.1306
13693W        W29827  16.188  17.669   4.526 -0.1481  0.0739  0.1765
13694W        W29828  11.581  12.552   4.307  0.1740 -0.0856 -0.1145
13695W        W29829   5.923   1.590  11.157 -0.1928 -0.1469  0.4883
13696W        W29830   8.243  16.345   2.781 -0.2839  0.0606 -0.0212
13697W        W29831   5.637  16.279  14.821 -0.0071  0.1309 -0.2520
13698W        W29832   1.932   3.163  11.596  0.4199  0.0425 -0.0644
13699W        W29833  18.912  10.182   3.374 -0.0881  0.1245 -0.1731
13700W        W29834   5.465   2.926   9.453  0.1379  0.1336 -0.0727
13701W        W29835  13.415  17.310  11.200  0.1890 -0.3395 -0.1042
13702W        W29836   2.548   6.002   0.620 -0.0343 -0.0105  0.1762
13703W        W29837   2.611   7.181   2.149  0.0278  0.0450  0.1706
13704W        W29838  17.171   8.218   3.077 -0.0753 -0.0187 -0.0264
13705W        W29839   9.848   2.078   3.998 -0.0975  0.3233 -0.0160
13706W        W29840   1.031   6.227   5.368 -0.0730 -0.0867 -0.0735
13707W        W29841   6.659   3.456   5.573 -0.2527  0.2473  0.0770
13708W        W29842  12.530  12.199   4.101  0.1310 -0.1141 -0.0565
13709W        W29843   5.748  18.859   1.505 -0.0102 -0.1937 -0.1552
13710W        W29844  18.154   8.745  14.085 -0.2392  0.0555 -0.1629
13711W        W29845  10.535   5.451  10.308 -0.2848  0.1739  0.0507
13712W        W29846   3.401  18.884  12.144  0.2516 -0.0462 -0.1766
13713W        W29847  14.901   6.897  12.315  0.1865 -0.3535  0.2786
13714W        W29848   1.921   3.740  11.120 -0.0937 -0.1996 -0.0912
13715W        W29849   7.979   9.311   0.956  0.0708 -0.1118  0.0767
13716W        W29850   9.625   6.564  11.168 -0.0296  0.1665  0.1439
13717W        W29851   9.837   1.499  10.922 -0.1593  0.3688 -0.3260
13718W        W29852  18.014   0.655  14.384 -0.1274 -0.1261  0.0579
13719W        W29853   3.334   9.250   3.242 -0.0155  0.0133  0.1562
13720W        W29854  16.316   1.410  12.468 -0.0852  0.0273 -0.1140
13721W        W29855  17.227  12.485   4.769 -0.1390  0.0911  0.0860
13722W        W29856  16.548  17.387   1.072  0.0858  0.0856 -0.1005
13723W        W29857  11.870  11.509   3.347 -0.1344 -0.0164 -0.2345
13724W        W29858   5.769  14.229  14.648 -0.0493 -0.1231  0.0797
13725W        W29859  10.907   6.722   3.065 -0.0145  0.2303 -0.0618
13726W        W29860   5.917  14.080  13.338 -0.0933 -0.0244  0.0861
13727W        W29861   2.907  15.856   4.872  0.1161  0.2228  0.1363
13728W        W29862  10.436  15.338   4.639 -0.0199  0.1607 -0.0154
13729W        W29863   3.878  11.795   5.216  0.0583  0.0442 -0.0383
13730W        W29864  11.930   3.050  12.947 -0.0143  0.2972 -0.1638
13731W        W29865   7.850  14.395   5.605  0.0264 -0.1216  0.1672
13732W        W29866   4.270   2.468  10.260 -0.0884 -0.2094 -0.3657
13733W        W29867   1.891   6.129  10.782  0.0109 -0.2051 -0.1259
13734W        W29868  17.949  14.420  11.126 -0.1168 -0.0634  0.1033
13735W        W29869  14.614  18.089   1.537 -0.1581 -0.0794 -0.1640
13736W        W29870  11.031  10.820   0.506  0.1817  0.1652  0.0554
13737W        W29871  12.121  16.578   4.772  0.3625  0.1760 -0.3247
13738W        W29872  12.601  16.327   4.993 -0.0408  0.1027 -0.0007
13739W        W29873  16.389   0.337  11.006 -0.3498  0.0372 -0.4848
13740W        W29874   1.062  13.916  12.791  0.5046  0.1976  0.4569
13741W        W29875  12.461  17.141  14.399 -0.2206 -0.3841 -0.0766
13742W        W29876   0.985  12.296   5.587  0.5253 -0.1845 -0.1796
13743W        W29877  15.634  16.895   4.093  0.0627  0.2740 -0.2317
13744W        W29878   1.292  12.276   0.057 -0.2440 -0.2851 -0.1001
13745W        W29879  17.102   3.273   1.761 -0.1464  0.2230  0.1639
13746W        W29880  17.745   2.914   5.317  0.1020 -0.1101 -0.1847
13747W        W29881   8.038   5.369   1.929 -0.0453  0.3277  0.2039
13748W        W29882   0.013   6.941   9.877 -0.0277 -0.1529  0.3106
13749W        W29883   2.673  17.248   1.547 -0.0276 -0.0613 -0.1096
13750W        W29884  18.778   0.516   2.566  0.3292  0.0291 -0.1770
13751W        W29885   1.439  12.756  12.991  0.0779  0.0367 -0.1589
13752W        W29886  16.726  11.708  12.365  0.5193  0.0723 -0.2568
13753W        W29887   5.737   9.483   3.835  0.2087  0.1173 -0.1710
13754W        W29888   8.366  14.230   4.435  0.0752 -0.0433 -0.1099
13755W        W29889  15.861   3.384   5.270  0.0696  0.0161 -0.3286
13756W        W29890  12.920   9.180   0.462  0.2822  0.1845 -0.2508
13757W        W29891  12.021  16.834  10.912  0.0212 -0.2604 -0.2423
13758W        W29892   6.973  14.962  11.355 -0.2090 -0.1851 -0.1718
13759W        W29893   2.566   9.815   2.106  0.0152 -0.0519 -0.2191
13760W        W29894   3.134   1.440  11.362 -0.1764  0.1551 -0.2697
13761W        W29895   3.093   9.896  14.132 -0.0909 -0.0934 -0.1390
13762W        W29896   1.170  12.739  12.134  0.0631 -0.0469 -0.2061
13763W        W29897  12.649   6.515   4.032  0.1719  0.1485 -0.1633
13764W        W29898  11.820   3.598  14.188 -0.1203  0.1986 -0.0998
13765W        W29899   0.461  14.399  12.441  0.0178  0.0101  0.1918
13766W        W29900  10.176  11.708   5.859  0.1599 -0.1684  0.0478
13767W        W29901   2.486   8.272   0.176 -0.0638  0.1157  0.2458
13768W        W29902  18.798   7.602   4.576 -0.0323  0.1773  0.1618
13769W        W29903  14.158   4.079  10.705  0.0884 -0.0982 -0.2826
13770W        W29904  15.949   4.542   2.374  0.1642 -0.0826  0.0190
13771W        W29905   3.046  15.854   0.790  0.2004  0.0667 -0.4840
13772W        W29906   5.273  10.075  12.183 -0.1545 -0.3055 -0.0094
13773W        W29907   5.263  15.440  13.571 -0.3342  0.1151 -0.0526
13774W        W29908   1.416  18.252   3.058  0.1376 -0.0921  0.3192
13775W        W29909   3.331   9.175   4.706  0.0539  0.0034  0.0840
13776W        W29910  18.701   3.630  11.299 -0.2468  0.2168 -0.1367
13777W        W29911   5.752  10.624   3.279  0.0060  0.2035  0.1368
13778W        W29912   5.839  14.243  15.148  0.4582 -0.1951  0.0205
13779W        W29913  12.003   5.260  11.847  0.1133 -0.1230 -0.0584
13780W        W29914  16.291  17.808   1.243  0.0677  0.0744  0.0047
13781W        W29915   4.079   4.852   3.160 -0.0096 -0.0525  0.1989
13782W        W29916   8.879   8.761   4.556  0.2638 -0.2497  0.1753
13783W        W29917   8.403   1.916   0.837  0.1889  0.1694  0.0313
13784W        W29918  17.204   4.336   3.897  0.1191  0.0367  0.3573
13785W        W29919   0.886   4.106   1.146  0.3370 -0.1400  0.1778
13786W        W29920   6.430  14.292   5.210  0.0978  0.0178 -0.0243
13787W        W29921   9.181   7.178   9.982 -0.2400 -0.4330  0.2890
13788W        W29922  12.681  13.955  12.471 -0.0391  0.1194  0.2742
13789W        W29923   6.999  17.352   2.308 -0.0114  0.2540  0.1058
13790W        W29924  16.159   5.518   3.737 -0.3410 -0.1199  0.1872
13791W        W29925  10.342  14.652   1.361  0.1293  0.0224 -0.0384
13792W        W29926   5.012  15.302   1.940 -0.1260  0.0618 -0.3112
13793W        W29927   8.423  18.855  12.041  0.0096 -0.1431 -0.0721
13794W        W29928  17.628   2.252  14.568 -0.0662 -0.0507  0.0087
13795W        W29929  17.812   2.299   9.907 -0.1791 -0.0822  0.2078
13796W        W29930  14.086  12.832   0.305  0.2180  0.0463 -0.1001
13797W        W29931   3.004  12.045   4.035 -0.3532  0.0095  0.2435
13798W        W29932  10.514   9.969   0.514  0.5126  0.1479  0.1570
13799W        W29933   6.228   5.629   4.736  0.2099  0.0207 -0.0132
13800W        W29934  15.433  13.406   2.877 -0.0477  0.0980 -0.0470
13801W        W29935  18.185  10.437  10.856 -0.2092 -0.0582  0.2542
13802W        W29936  15.122  15.098   3.838  0.1217  0.1643  0.0516
13803W        W29937   0.315   0.054   0.756 -0.0565  0.1661  0.0243
13804W        W29938   9.441   5.866   1.079 -0.0283  0.0670  0.0780
13805W        W29939   4.727   2.239  13.223  0.0816 -0.0430  0.0433
13806W        W29940   9.351  10.372   3.948 -0.0865  0.1064 -0.2245
13807W        W29941   4.362   4.203   2.471  0.1307 -0.0594  0.0453
13808W        W29942  15.166   2.162   4.265 -0.0803 -0.1557 -0.0648
13809W        W29943   9.432   4.793  11.282 -0.2055  0.0078 -0.0050
13810W        W29944  13.868   1.958   0.532 -0.0035 -0.0122  0.0325
13811W        W29945   4.574  13.990   1.208 -0.2025 -0.0565  0.3058
13812W        W29946   0.563   8.623  14.896 -0.0999  0.0654  0.1242
13813W        W29947   8.579   7.787   4.470  0.1454 -0.2317 -0.0708
13814W        W29948   9.890   6.769   9.317  0.0314  0.0127 -0.1162
13815W        W29949   8.272   5.711   4.753  0.1413 -0.1645 -0.0049
13816W        W29950  16.828  12.296  10.776 -0.0245 -0.0170  0.2490
13817W        W29951   0.629   1.136   2.813 -0.0983  0.2014 -0.1261
13818W        W29952   8.770   2.762  12.412 -0.0967 -0.0601  0.3194
13819W        W29953  18.202  14.932  13.710 -0.3936  0.1459 -0.0933
13820W        W29954  17.148  15.521   0.808 -0.1367  0.1249 -0.3619
13821W        W29955  17.286   3.075   5.047 -0.0108  0.0966  0.0218
13822W        W29956  16.277  18.636  14.988  0.0595  0.1057 -0.0754
13823W        W29957  17.914   3.421  13.107 -0.0816  0.5417  0.2688
13824W        W29958   3.071  18.623   0.558 -0.0242 -0.1737 -0.1267
13825W        W29959   4.938  11.784  10.718  0.0416 -0.1626  0.0053
13826W        W29960   7.144   0.649   3.569  0.0196  0.2517  0.0337
13827W        W29961   3.530   2.006   0.692 -0.1294  0.1885  0.1537
13828W        W29962   5.138  14.023  11.613 -0.4105 -0.0567  0.1398
13829W        W29963   8.710  16.476  14.057  0.0989  0.0225 -0.0874
13830W        W29964  10.294   7.577  12.571 -0.0359  0.2012  0.1488
13831W        W29965  10.541   2.651  12.556  0.0941  0.3632  0.2929
13832W        W29966   0.587  16.111  10.877 -0.1701 -0.2064  0.0287
13833W        W29967   9.181   8.116   1.131  0.0829 -0.2053  0.0930
13834W        W29968  18.313  15.164  12.623  0.1918 -0.0720  0.4596
13835W        W29969  10.796   4.295  10.546 -0.0810  0.0199 -0.1029
13836W        W29970  18.762   9.210   5.067 -0.1335  0.2575 -0.0318
13837W        W29971  10.268  14.819   3.455 -0.3064  0.1523  0.1188
13838W        W29972  16.568  13.525  12.255  0.2493  0.0136 -0.0968
13839W        W29973   5.282  17.563   4.569  0.1743  0.0781 -0.0267
13840W        W29974   5.516   2.658   3.577  0.0943  0.3308  0.2571
13841W        W29975  13.320  10.165   0.495  0.1258  0.1373 -0.1135
13842W        W29976  14.509  18.776   0.768  0.1400 -0.1705  0.2351
13843W        W29977   8.720   2.679   0.565  0.1813  0.2256  0.0864
13844W        W29978  18.300   1.768   5.233 -0.0922  0.1672 -0.0037
13845W        W29979   4.166   6.425  15.067  0.2566 -0.1947  0.2289
13846W        W29980   3.381   3.706  12.413 -0.1076 -0.2444  0.1839
13847W        W29981  18.519  18.286  11.388 -0.2792 -0.0307  0.0470
13848W        W29982  15.118   9.908   0.590 -0.1766 -0.0204 -0.1013
13849W        W29983  18.895  14.654   1.005  0.0526  0.0884 -0.3514
13850W        W29984   0.894  11.699  13.748 -0.1457  0.1404 -0.2511
13851W        W29985  18.586  12.027  14.149  0.0762 -0.1888 -0.1971
13852W        W29986  13.250  10.666  13.548  0.1701  0.0595 -0.2147
13853W        W29987   9.039   3.010   1.306 -0.0495 -0.0617  0.0497
13854W        W29988  11.606   0.129  14.065  0.0614 -0.1685  0.2659
13855W        W29989  18.709  17.807   2.638  0.1407 -0.2291  0.2232
13856W        W29990  10.987  16.917  11.501  0.1384  0.0556  0.0084
13857W        W29991   0.064   6.961  13.861  0.2907  0.0701  0.5124
13858W        W29992  14.811  17.633  12.970  0.3027  0.1039  0.0349
13859W        W29993   2.753  10.540   0.207  0.2025  0.2082 -0.2357
13860W        W29994   6.248   7.830   1.479  0.1937  0.2568  0.0147
13861W        W29995   8.643   6.224  14.055 -0.0628  0.0786  0.0411
13862W        W29996   0.779  15.042   0.044 -0.0713 -0.0827  0.1477
13863W        W29997  18.331  14.268  11.451  0.0319 -0.0505 -0.2463
13864W        W29998  11.667   8.507  10.946  0.0427 -0.2273 -0.2460
13865W        W29999  14.073  18.727   4.386 -0.1014 -0.3838 -0.3047
13866W        W30000  17.848   2.873  15.071  0.0993 -0.1410 -0.1041
13867W        W30001   7.771  10.561  11.454  0.3815  0.1601  0.1613
13868W        W30002   8.657  13.277   2.885  0.2456 -0.0204 -0.1955
13869W        W30003   5.428   6.792  13.684 -0.0466 -0.1572 -0.1574
13870W        W30004   4.115  14.373   2.461 -0.2041  0.0645  0.1091
13871W        W30005   2.880  14.846   3.183 -0.0198  0.1955 -0.3761
13872W        W30006   8.875   5.619  14.899 -0.0449 -0.2369  0.3892
13873W        W30007   0.710   2.476  15.253 -0.1354 -0.0896 -0.1092
13874W        W30008  18.638  18.669  13.329  0.1411 -0.0228 -0.1297
13875W        W30009  16.367  15.930   1.876 -0.1658  0.0242  0.0313
13876W        W30010  13.306   2.496   0.697 -0.2439  0.0118 -0.1362
13877W        W30011   8.523   5.570   1.875 -0.2167  0.0413 -0.0219
13878W        W30012   8.754   8.949  13.790 -0.0470 -0.0830 -0.2963
13879W        W30013  18.368   1.929  14.456 -0.1882  0.2176 -0.0761
13880W        W30014  11.682   0.820  11.690  0.3567  0.1979  0.0821
13881W        W30015   3.928  16.834  12.615 -0.0228  0.3874  0.1947
13882W        W30016  12.403   6.818   2.052  0.3566 -0.0001 -0.0981
13883W        W30017  18.788  11.802  15.272 -0.2399 -0.0108 -0.1895
13884W        W30018  14.547   9.434   4.513 -0.0869  0.0263  0.2760
13885W        W30019  17.346  14.410  15.134 -0.0626  0.0820  0.0202
13886W        W30020   4.190  18.295  14.471 -0.0926 -0.3061 -0.2157
13887W        W30021   1.393  15.294   3.125 -0.1017  0.0519 -0.3774
13888W        W30022  13.768   5.147  11.259 -0.0022 -0.1647 -0.1444
13889W        W30023   2.980  10.992  15.273 -0.0442  0.1270 -0.0431
13890W        W30024  11.480  16.043   0.002  0.4052 -0.1796  0.0931
13891W        W30025  16.674  12.945  10.707 -0.0589  0.2865  0.0443
13892W        W30026   3.317   3.541   4.205 -0.1646  0.0154 -0.0583
13893W        W30027   7.621  10.783   8.983  0.0552 -0.1933  0.0099
13894W        W30028  15.862  16.537  11.465  0.2161 -0.3315  0.0528
13895W        W30029   5.527   1.670  14.666 -0.0683  0.2166  0.0143
13896W        W30030   6.434  14.522   3.575 -0.2993  0.0470  0.0373
13897W        W30031  15.697  10.799  14.174  0.3676 -0.3130  0.1833
13898W        W30032   3.156  10.428  11.026 -0.2076  0.3859  0.0728
13899W        W30033   3.437  18.959  11.592  0.0481  0.2358 -0.0125
13900W        W30034  12.777   4.788  13.020  0.4414 -0.0606 -0.3141
13901W        W30035  10.590  16.616  13.207 -0.1226  0.2040  0.0030
13902W        W30036  18.883  10.904   0.493  0.1066 -0.3401  0.3196
13903W        W30037   4.821  11.404  12.615  0.3364  0.0410  0.0012
13904W        W30038  12.694  14.066  10.164 -0.0793  0.0279 -0.0135
13905W        W30039   0.771   4.247   2.111  0.1859  0.0159 -0.1741
13906W        W30040  13.109   5.279  12.349  0.1922 -0.0316 -0.2160
13907W        W30041   5.880  10.582   1.422 -0.2159  0.0490 -0.0940
13908W        W30042  10.574   0.101  14.365  0.2548  0.0744 -0.0066
13909W        W30043  14.044   2.142  15.114 -0.0965 -0.2606 -0.2379
13910W        W30044   4.119  10.557  14.964  0.3173 -0.0455 -0.1267
13911W        W30045   2.064  10.862   4.529 -0.0068 -0.2995  0.1016
13912W        W30046  14.457   5.896   2.599  0.1587  0.1478 -0.1145
13913W        W30047   4.241  17.586   3.800 -0.0265  0.0349 -0.0513
13914W        W30048   7.609   2.955   0.031  0.2952  0.1422 -0.1208
13915W        W30049  12.895  10.202  10.475  0.1074 -0.0672  0.1229
13916W        W30050  18.103   0.204   1.264  0.1655  0.0431  0.1878
13917W        W30051   4.090  18.270  13.405  0.1780  0.1665 -0.1032
13918W        W30052  17.596  17.456   0.512  0.0291 -0.0311 -0.1726
13919W        W30053  17.946   3.016   4.831 -0.1555 -0.0194 -0.1538
13920W        W30054  15.406   5.759  10.004 -0.3913  0.2228  0.1826
13921W        W30055  14.247  15.583  13.729  0.2558 -0.3798  0.0848
13922W        W30056   3.238  17.707   1.213  0.0911  0.0562 -0.3457
13923W        W30057  12.189   3.018  11.151 -0.0587 -0.0478  0.2747
13924W        W30058   3.439   0.618   1.785  0.0912  0.1074  0.2035
13925W        W30059   9.340   2.997   2.459 -0.0670 -0.3939 -0.2067
13926W        W30060  18.058   5.512  12.574  0.1257  0.0703 -0.0437
13927W        W30061   8.114  10.868   1.244  0.1815 -0.0419 -0.2498
13928W        W30062  13.598   3.282   1.994  0.0886  0.0687  0.0445
13929W        W30063   4.631  14.909   4.312 -0.1124  0.2353  0.2176
13930W        W30064  15.645   4.664   3.765  0.0691 -0.1661  0.2649
13931W        W30065  18.837  12.598   1.283  0.0941  0.3070 -0.1037
13932W        W30066  13.454   0.877  15.091 -0.1951  0.2280 -0.1420
13933W        W30067  18.240  16.364  14.845  0.3271 -0.1066 -0.1162
13934W        W30068  10.618   2.068   1.329 -0.1252  0.0059 -0.0786
13935W        W30069  18.871  15.925   4.521 -0.1989 -0.0374 -0.2331
13936W        W30070   3.531   8.969   5.474  0.0318 -0.3149 -0.1255
13937W        W30071  15.989   7.176  15.261 -0.0771 -0.2075 -0.2046
13938W        W30072  12.829   8.491  11.285  0.3078 -0.2554  0.1763
13939W        W30073   4.512   2.981   1.810  0.0386  0.1560  0.0975
13940W        W30074   5.088  11.932   3.147 -0.4089  0.1507  0.0181
13941W        W30075  11.395   0.240  13.357  0.1128 -0.2231 -0.1016
13942W        W30076   5.206  11.215   1.773 -0.0796  0.0363 -0.1177
13943W        W30077   6.762  17.371   1.401 -0.0632  0.1714  0.1293
13944W        W30078   7.902  15.529   0.068 -0.3465  0.3258  0.4103
13945W        W30079  12.248   3.962  13.259 -0.0142  0.0517 -0.0341
13946W        W30080  14.383  11.427   4.131  0.0821 -0.0759 -0.1979
13947W        W30081   3.245   5.808  14.396 -0.0038 -0.0265 -0.1518
13948W        W30082  13.050  12.271  14.727 -0.1500  0.1829  0.0047
13949W        W30083  16.233  10.358   2.713  0.0515 -0.0903  0.1866
13950W        W30084   0.761  10.479  11.561  0.1765  0.1475  0.1832
13951W        W30085  11.834   1.463   5.521 -0.2086  0.1158  0.0369
13952W        W30086   2.502   0.300  10.979 -0.2383  0.0667 -0.0263
13953W        W30087   7.855   3.712  10.773 -0.2033  0.3222 -0.2364
13954W        W30088   0.765  16.989  13.749 -0.1199 -0.1012  0.1511
13955W        W30089   3.799   6.685   2.761  0.2573 -0.2554 -0.0714
13956W        W30090  17.742   3.440  12.278 -0.0497 -0.1868 -0.0872
13957W        W30091   7.032   2.402   0.255 -0.0992 -0.0270 -0.2785
13958W        W30092  13.687   1.834  12.604 -0.2025 -0.2768  0.3376
13959W        W30093   5.412  15.843   4.768  0.1709  0.2369 -0.1325
13960W        W30094   1.121   8.131   4.033  0.1708 -0.1447  0.1331
13961W        W30095   1.079  14.877  11.500 -0.1902 -0.0969  0.0973
13962W        W30096   4.438   7.430   4.307 -0.1640 -0.0643 -0.0431
13963W        W30097  15.929   6.305  14.453 -0.0306  0.0050 -0.0515
13964W        W30098  18.015   3.416   3.486  0.0331 -0.1028 -0.1310
13965W        W30099  16.906   7.858   0.784  0.2641 -0.1266 -0.1063
13966W        W30100  14.813   9.845   3.514  0.1289  0.1768 -0.3380
13967W        W30101  15.779  15.563  11.681  0.3402 -0.1274  0.5511
13968W        W30102   4.987  15.722  12.660 -0.3776 -0.0970  0.0535
13969W        W30103   5.348  15.318  12.645 -0.1653  0.0128 -0.1398
13970W        W30104   9.600  17.380  14.925 -0.0422 -0.1478 -0.0776
13971W        W30105   2.383  17.259   4.557  0.0454  0.1250 -0.3665
13972W        W30106   1.544  16.484  11.598  0.0736 -0.1373 -0.1832
13973W        W30107   0.052   3.266   0.140  0.2932 -0.2672 -0.0695
13974W        W30108   7.839  13.402   4.144  0.2950 -0.3989  0.1865
13975W        W30109  17.447   6.077   3.496  0.0534  0.1941  0.3100
13976W        W30110   1.440   7.289   4.573  0.2511  0.0570  0.1918
13977W        W30111  11.944   3.499  12.210  0.3550 -0.1156  0.1329
13978W        W30112   4.402   3.812   2.156 -0.2200 -0.0460  0.0886
13979W        W30113  13.607   5.603  11.559  0.1287 -0.1709 -0.0901
13980W        W30114  12.851  13.159   0.053  0.1629  0.3369 -0.0218
13981W        W30115   2.208  14.718  14.956  0.0641  0.2298 -0.0640
13982W        W30116  12.089  13.786   0.281 -0.0190 -0.0705  0.1336
13983W        W30117  11.492  13.178   3.765  0.0544  0.3339 -0.3706
13984W        W30118  11.509   8.688   9.589 -0.0091 -0.1327  0.2559
13985W        W30119  11.192  10.164   2.973  0.0988 -0.1158  0.0709
13986W        W30120   8.537  13.214  12.418  0.2182  0.0621  0.3748
13987W        W30121   3.889  10.712  14.086 -0.1472  0.1676  0.5950
13988W        W30122  15.225  16.357   2.928  0.1941  0.0966  0.0588
13989W        W30123  16.804  13.885  11.637  0.0300  0.3983  0.1946
13990W        W30124   1.970   9.402   3.744  0.0504  0.1287  0.0328
13991W        W30125  15.514   7.558  14.598  0.0384 -0.1327 -0.1256
13992W        W30126  10.866   8.328   1.524  0.1425 -0.1233 -0.2017
13993W        W30127  10.557  10.262  12.111  0.2000  0.1294 -0.1968
13994W        W30128   2.576   2.685  12.678  0.0395  0.3595 -0.3025
13995W        W30129   7.044  11.253  10.621 -0.0892 -0.0817  0.0899
13996W        W30130  11.477  12.942   2.298 -0.0711 -0.0492  0.2880
13997W        W30131   5.024  16.220   1.039  0.1621 -0.2671 -0.1617
13998W        W30132   7.861  12.659  12.362 -0.0225  0.1474 -0.1828
13999W        W30133   0.505  11.598   0.642  0.4524 -0.0431  0.1797
14000W        W30134   8.329  18.216  12.635  0.2321 -0.1873  0.4922
14001W        W30135  16.629  11.240  13.454  0.1074  0.0632 -0.0827
14002W        W30136  16.964  16.803   0.251  0.2049  0.0937  0.1822
14003W        W30137   1.968  12.193  13.338 -0.0296  0.0903 -0.0996
14004W        W30138  16.722  11.630   2.786  0.0357  0.0201 -0.1831
14005W        W30139  12.787   4.045   1.860 -0.0155  0.0270 -0.2610
14006W        W30140  14.521  15.945   1.520  0.0310 -0.0097  0.0313
14007W        W30141  12.972   2.100   1.922  0.0389  0.2294 -0.0289
14008W        W30142  12.164  13.371   4.467 -0.0429 -0.0181  0.0146
14009W        W30143   3.754   0.182  10.772 -0.1278  0.0884  0.2637
14010W        W30144  16.001   0.821   0.458  0.0015 -0.0126 -0.1574
14011W        W30145   8.691   4.707   2.205  0.0264  0.1534 -0.2102
14012W        W30146  15.329   4.269  10.661 -0.1642 -0.1537 -0.0726
14013W        W30147  15.712  14.500  10.674 -0.2645 -0.1661  0.1897
14014W        W30148   9.105  10.077  12.369  0.0767  0.1930  0.0089
14015W        W30149   7.674  16.959   3.314 -0.0289 -0.0854  0.0635
14016W        W30150   5.929   9.533   4.324  0.3620 -0.1062  0.0012
14017W        W30151   0.869  16.047   0.547  0.4818 -0.4883  0.0815
14018W        W30152   0.799  12.491   6.052 -0.0301 -0.0071 -0.3499
14019W        W30153   7.528  14.685   4.652 -0.0177 -0.3705 -0.0866
14020W        W30154   7.750   1.610   4.957 -0.0569  0.2016 -0.3268
14021W        W30155   6.545   8.082   3.601  0.0649  0.2844 -0.1121
14022W        W30156  14.461  17.334  14.741 -0.1183 -0.1837  0.0145
14023W        W30157   3.644   4.667  14.766 -0.0762 -0.1507  0.0913
14024W        W30158   7.238  13.723   5.871 -0.0508  0.2195  0.1157
14025W        W30159  16.367   3.789  15.208  0.2468  0.2263  0.1056
14026W        W30160   3.255  18.855   4.562 -0.0374  0.2908 -0.1844
14027W        W30161  11.864   9.365   1.805  0.0936 -0.4261 -0.2817
14028W        W30162  10.194  10.190   2.736  0.0207  0.0528  0.0474
14029W        W30163  10.808   3.510   3.767 -0.1514  0.2082 -0.1006
14030W        W30164   4.572  17.618   3.215 -0.0672 -0.1945  0.0349
14031W        W30165   5.358   0.244  13.470  0.0817 -0.2009 -0.2916
14032W        W30166  10.926   9.267  11.365  0.0973  0.4689  0.0850
14033W        W30167   8.932   9.601   0.194 -0.1661  0.0427  0.1760
14034W        W30168   0.060  16.679   0.049 -0.0305  0.2178  0.1828
14035W        W30169   4.603  12.130  13.756  0.5436  0.1731 -0.2164
14036W        W30170  17.803   6.323   2.432  0.0357 -0.1725 -0.1311
14037W        W30171   6.887   0.674   4.548  0.0811  0.0211 -0.1243
14038W        W30172  13.897  16.523   9.508  0.3422 -0.0863  0.0993
14039W        W30173  14.871   1.935   0.324 -0.0368 -0.2487  0.0188
14040W        W30174   0.679   3.007  13.932 -0.0504  0.0902  0.2935
14041W        W30175  12.757   8.243   5.130  0.0407  0.1360  0.0015
14042W        W30176   3.255  11.627   2.956  0.1610 -0.1724  0.1077
14043W        W30177   7.020  13.757   2.933 -0.0163 -0.2178 -0.0443
14044W        W30178  11.030  16.527  11.271  0.1028 -0.1529  0.0743
14045W        W30179   9.562  10.366  10.596 -0.3675  0.0469  0.0880
14046W        W30180   2.954   2.138   0.932 -0.3032 -0.0239  0.0505
14047W        W30181  18.161   4.208  12.365  0.0536  0.1238  0.0201
14048W        W30182  16.122   9.328  15.014 -0.2590  0.0088  0.0546
14049W        W30183  13.295  16.008   4.330  0.2885  0.0981 -0.1411
14050W        W30184  11.629   2.602   0.813 -0.0138  0.1273 -0.2986
14051W        W30185  12.231   8.681  12.966  0.0957 -0.5183  0.7059
14052W        W30186   6.461   2.365   1.117 -0.1071  0.0518  0.4324
14053W        W30187  18.758   5.268   5.207  0.0480 -0.0260 -0.2040
14054W        W30188   1.006  12.235   3.809  0.0743 -0.2222  0.1035
14055W        W30189   8.138   8.946   5.285  0.0483 -0.0206 -0.2346
14056W        W30190  15.688  18.714  12.150 -0.0233  0.0346 -0.0581
14057W        W30191   3.623   7.807   1.806  0.3534 -0.2624  0.2550
14058W        W30192  14.220   4.363   3.716  0.0310  0.1021 -0.0686
14059W        W30193  11.358   1.171  11.537 -0.0982 -0.1477  0.1216
14060W        W30194  13.406   0.798  13.694 -0.1641  0.0549  0.1060
14061W        W30195  15.603  11.529  14.860  0.0366 -0.2339  0.0959
14062W        W30196  15.575  13.813   0.745  0.2038  0.1078 -0.0964
14063W        W30197  13.284   3.302  14.324  0.3660 -0.0212 -0.0220
14064W        W30198  16.163   8.590  14.264 -0.0019 -0.1686  0.0393
14065W        W30199  12.369  18.049  11.702 -0.1012  0.1625 -0.0394
14066W        W30200   8.871  10.653  14.633  0.0646 -0.0834  0.1196
14067W        W30201  11.767   5.082  14.006 -0.2079 -0.2431 -0.0799
14068W        W30202  16.439   2.232  12.908 -0.2692  0.0030  0.2189
14069W        W30203  14.786  16.101   0.652 -0.0196 -0.1648  0.2676
14070W        W30204  10.137   1.585   2.299  0.0588 -0.0438 -0.0201
14071W        W30205   5.295   9.054  11.696 -0.1174  0.3129  0.0594
14072W        W30206  15.079   4.066   4.704  0.2743  0.1119  0.0955
14073W        W30207   7.097  13.366  13.057  0.1491  0.0833  0.0422
14074W        W30208   7.317  15.104   1.436 -0.1559  0.3012 -0.0725
14075W        W30209  17.972   1.826  13.270  0.1440  0.2950 -0.4383
14076W        W30210  11.259  10.595  11.046 -0.1843 -0.1628  0.0555
14077W        W30211   5.561   7.200   0.480  0.1052 -0.2219  0.4909
14078W        W30212   4.940   5.531  12.841 -0.0431  0.2280  0.6380
14079W        W30213  18.714   4.129  11.162  0.1307 -0.3099 -0.3051
14080W        W30214  10.024   0.555   3.494 -0.0966 -0.0508 -0.1580
14081W        W30215  12.052  10.214   3.258 -0.0410  0.1046 -0.1589
14082W        W30216  18.301  11.881  11.189  0.3199 -0.2233  0.0911
14083W        W30217  12.501   9.190  12.721 -0.3829  0.0251 -0.0099
14084W        W30218  12.175  17.283  10.799 -0.3112  0.1555  0.1032
14085W        W30219   7.534   2.010  12.157 -0.0489 -0.1057 -0.1970
14086W        W30220   6.686   0.461   1.155  0.2326 -0.2964 -0.0543
14087W        W30221   9.594   3.151   4.220 -0.1051  0.1118 -0.3118
14088W        W30222   2.672   1.520   3.241  0.0761 -0.2153  0.0180
14089W        W30223   6.925  11.593   1.825 -0.5584  0.0635 -0.0978
14090W        W30224  18.961   9.838   2.145 -0.1032 -0.0401  0.1383
14091W        W30225   7.814  12.550   4.647 -0.0421  0.1261  0.0562
14092W        W30226   6.460   0.753   0.693  0.0626 -0.1106  0.2227
14093W        W30227   9.404   1.459  10.326 -0.2267 -0.0795 -0.0355
14094W        W30228  18.411   9.261   4.352  0.0237  0.0271 -0.0679
14095W        W30229  14.112  14.858   3.867  0.0037 -0.0975  0.1323
14096W        W30230   3.693   4.803   3.852  0.0211 -0.1082 -0.0037
14097W        W30231  15.624  18.827   1.253 -0.0450 -0.2794  0.0305
14098W        W30232  13.282  15.236   0.681  0.0631  0.0346 -0.0645
14099W        W30233  11.229  18.650   5.516 -0.1111  0.2421 -0.0388
14100W        W30234  17.577   0.018   5.246  0.3822 -0.1216 -0.2074
14101W        W30235   4.734  11.302  13.229  0.2163 -0.3768 -0.2122
14102W        W30236  14.702   3.362   5.710  0.1115 -0.0899 -0.1256
14103W        W30237  11.539   9.421  12.518 -0.0881 -0.3024 -0.2974
14104W        W30238   7.659   5.273  12.548  0.2023 -0.0859  0.2479
14105W        W30239   3.273  16.928   2.080  0.0737 -0.1151  0.0985
14106W        W30240   1.132  15.577   1.287 -0.2180 -0.1504  0.2214
14107W        W30241  14.067  11.297  11.606  0.2672 -0.0591  0.1845
14108W        W30242  15.744  18.813  11.049 -0.3097  0.0738 -0.4991
14109W        W30243  12.261  13.558  10.379 -0.1745 -0.1265  0.0932
14110W        W30244  15.234   1.742   4.512 -0.0144  0.1345  0.0505
14111W        W30245  12.565   9.590   2.838  0.0478  0.0029  0.2385
14112W        W30246   5.964   9.542  12.933  0.0641 -0.3641  0.0239
14113W        W30247  18.875  12.680  13.215  0.1864  0.0135  0.1343
14114W        W30248   5.000   6.919  14.591  0.0468 -0.0536 -0.0045
14115W        W30249   6.372  12.102  12.900 -0.2412  0.2058  0.3556
14116W        W30250   7.491  16.140   2.076  0.0679 -0.3002 -0.1109
14117W        W30251   2.236  18.566   3.822 -0.2030 -0.1207  0.1214
14118W        W30252  18.450   6.088   0.176  0.2412 -0.1734  0.2377
14119W        W30253   0.910  14.305   1.990 -0.3371 -0.0203 -0.0747
14120W        W30254   3.047   8.665  10.698  0.2671 -0.1404 -0.3057
14121W        W30255   9.406   1.559  12.019 -0.1523  0.0882 -0.3481
14122W        W30256   7.076   3.913   5.001 -0.1743 -0.1397  0.2060
14123W        W30257   9.986   0.327  10.881 -0.5247  0.0846  0.0821
14124W        W30258  18.380   4.068   4.396  0.2041 -0.0832  0.0360
14125W        W30259  13.371  13.351   1.024 -0.1933 -0.0859  0.1550
14126W        W30260   4.364  18.626  13.080  0.2133 -0.3776 -0.0485
14127W        W30261  13.805   0.312  10.228 -0.0835  0.1410  0.1809
14128W        W30262   0.618   6.800  12.972  0.4802  0.0827 -0.3069
14129W        W30263  10.408  11.636   0.289  0.0433 -0.1425  0.1734
14130W        W30264   4.729   6.029   2.641  0.1147  0.0780 -0.1355
14131W        W30265  16.036   0.328   0.479  0.1007  0.2266 -0.0752
14132W        W30266   0.816  12.662   2.852 -0.2808 -0.1450 -0.2145
14133W        W30267   1.094  14.795   3.551  0.2156 -0.1275 -0.3018
14134W        W30268  17.511   1.416  14.864  0.3224  0.2273  0.1272
14135W        W30269   6.028  14.937   3.652  0.3261  0.0081  0.0065
14136W        W30270   0.034   8.328  15.235  0.2123  0.0201 -0.1814
14137W        W30271   7.891  15.703   2.408 -0.2183  0.1017  0.1100
14138W        W30272  12.859  17.118  12.113  0.0735  0.3088 -0.0149
14139W        W30273   1.845   9.194  13.403  0.1856  0.0988  0.1970
14140W        W30274  18.407  18.292   4.524 -0.0545  0.2388  0.0006
14141W        W30275  15.716  16.188   5.188  0.0696  0.1895 -0.1527
14142W        W30276  18.544  14.782  10.723 -0.3552  0.2020 -0.3818
14143W        W30277   7.657   2.747   3.997  0.0537  0.0392 -0.0675
14144W        W30278   5.500   9.059   3.644 -0.0426  0.3658 -0.2191
14145W        W30279  15.204   6.180  13.194  0.0757  0.1755  0.0006
14146W        W30280   5.835   0.205  14.676 -0.0861  0.3099 -0.0484
14147W        W30281  11.497   4.866  14.335 -0.0252  0.3271 -0.1931
14148W        W30282   4.418   9.536   3.927 -0.1112  0.1800 -0.2744
14149W        W30283  15.479   0.998   3.386 -0.2194 -0.0481  0.1115
14150W        W30284   4.630   7.857   1.225 -0.0375  0.2126 -0.0190
14151W        W30285   9.238   0.035  12.585 -0.1106 -0.1200 -0.0959
14152W        W30286  11.660   3.360  10.021  0.0560 -0.4607  0.0710
14153W        W30287  12.570   1.999  13.887 -0.1216 -0.1424 -0.2881
14154W        W30288  16.979  16.193  12.811  0.0508 -0.3731 -0.0035
14155W        W30289   8.533  11.906  11.428  0.1377  0.1071  0.0317
14156W        W30290  18.510   0.118   2.789  0.1311 -0.2661  0.0806
14157W        W30291  11.134  14.030   0.253 -0.2407  0.2102  0.2766
14158W        W30292  14.819  14.633   1.868  0.1771  0.0702 -0.0553
14159W        W30293  12.969   3.247  12.444  0.0780 -0.0679 -0.2635
14160W        W30294  15.154   0.800   5.895 -0.0230 -0.0343 -0.3317
14161W        W30295  10.633  13.663   2.913 -0.0338  0.1558 -0.0426
14162W        W30296   7.782   7.800  12.988 -0.0758 -0.0973  0.2382
14163W        W30297  11.489   9.512   3.602 -0.3506  0.2778 -0.0872
14164W        W30298  18.070  16.540  13.660 -0.2330 -0.2154  0.0768
14165W        W30299   6.400   3.474   2.861  0.0652 -0.3123 -0.2565
14166W        W30300  10.550  18.554   2.800 -0.0801  0.0839 -0.2519
14167W        W30301  15.400  13.432   1.941 -0.1039 -0.0134  0.0004
14168W        W30302  12.470   3.707  10.467 -0.2014 -0.0431 -0.3022
14169W        W30303   3.917  18.740  10.670 -0.0487 -0.1981  0.1300
14170W        W30304  17.207  11.962   1.999 -0.0689 -0.2489  0.0665
14171W        W30305   3.447   8.001   0.478 -0.2157  0.0799  0.1610
14172W        W30306   0.174   7.939  14.938 -0.1748  0.3633  0.1194
14173W        W30307  16.120   2.524  10.903  0.0983 -0.0285  0.0320
14174W        W30308   6.908   4.372   1.692  0.3168  0.0254  0.0665
14175W        W30309   3.888   3.221  10.036 -0.1506 -0.0749 -0.3627
14176W        W30310   7.613   9.466  14.345 -0.0252 -0.1396  0.0710
14177W        W30311   5.626   5.088  10.139 -0.4149  0.1096  0.0417
14178W        W30312   1.450   5.034  12.290 -0.2700  0.2112  0.0288
14179W        W30313   9.298   2.614   2.909 -0.2517  0.1426  0.3667
14180W        W30314   9.110   6.308   1.855  0.2979 -0.1429 -0.0887
14181W        W30315  16.107  17.191  14.655  0.1529 -0.0491 -0.0665
14182W        W30316   6.693  13.678  15.241 -0.1150 -0.1898  0.3528
14183W        W30317   3.543   2.525  15.287 -0.2965 -0.2154 -0.1014
14184W        W30318  18.740  10.049  13.350 -0.0641  0.4181 -0.1270
14185W        W30319   5.761  16.070  13.202 -0.0126 -0.2159 -0.1013
14186W        W30320  13.288   8.692  11.806 -0.0764 -0.1150  0.1649
14187W        W30321   0.625   9.083   4.327  0.3668  0.3447 -0.3669
14188W        W30322   9.113   5.263  13.137 -0.1041 -0.2904 -0.0270
14189W        W30323  10.776  15.074   0.675 -0.0975  0.0274 -0.0941
14190W        W30324   0.594   7.022  14.168  0.1626  0.1054 -0.2627
14191W        W30325   3.765  14.888  11.140 -0.3124  0.0031  0.0579
14192W        W30326   4.536   5.305   4.572  0.0549  0.1373 -0.1910
14193W        W30327  17.153  17.215   0.385 -0.2993 -0.2251 -0.0845
14194W        W30328   8.172  14.043  14.198 -0.0472 -0.0939 -0.0809
14195W        W30329  11.707   7.685   2.517  0.0558 -0.1113 -0.1466
14196W        W30330   7.398   7.502   4.833 -0.2594 -0.3238  0.0347
14197W        W30331  13.139  16.518   1.503  0.0357  0.1748 -0.2058
14198W        W30332   9.955   5.185  10.473 -0.2680  0.0855 -0.3354
14199W        W30333   6.277   3.973  13.296 -0.0683  0.0599  0.4377
14200W        W30334  13.012  11.479   0.751 -0.1859  0.0682 -0.2281
14201W        W30335   6.652  16.600   3.374  0.0057 -0.2115  0.1467
14202W        W30336  17.432  10.315  11.441 -0.0390 -0.0918 -0.2231
14203W        W30337   9.831  15.780  14.782  0.0153  0.1084 -0.2715
14204W        W30338  15.220   9.376   1.423  0.1821  0.0394  0.0465
14205W        W30339   2.046   2.178  13.253 -0.0109 -0.1651 -0.0035
14206W        W30340  15.847  10.717   4.917 -0.0013 -0.3529 -0.0938
14207W        W30341  15.399   1.677  13.808  0.2201 -0.0542  0.2022
14208W        W30342   9.572  12.663   2.387 -0.0866 -0.2278  0.4527
14209W        W30343   7.209   5.755  13.774  0.3598  0.1727 -0.1305
14210W        W30344   8.810  18.002  11.615 -0.1503  0.5020  0.0495
14211W        W30345  16.744  19.006   0.851 -0.2440  0.0410 -0.1693
14212W        W30346  14.246   9.668  11.662  0.0430  0.2342  0.0351
14213W        W30347   1.391  11.856   9.687 -0.0186  0.4167  0.1263
14214W        W30348  10.122   9.311   2.274 -0.1294  0.1435 -0.0884
14215W        W30349  15.830   9.355  12.004 -0.1735 -0.0364 -0.1308
14216W        W30350   1.513  14.051  11.708 -0.0713 -0.1098  0.0009
14217W        W30351   1.639   3.380  12.950  0.0723 -0.0107  0.2448
14218W        W30352   3.827  10.419  11.425  0.0842 -0.0545  0.0687
14219W        W30353  11.742  14.922   0.123  0.0982  0.0520 -0.0341
14220W        W30354   5.679   3.434  15.054  0.0680  0.1542  0.0506
14221W        W30355  11.145  15.044   9.764  0.0001 -0.0520 -0.0324
14222W        W30356   5.192   1.219  10.506  0.2298  0.3230  0.0315
14223W        W30357  15.189   5.896  12.753 -0.2081  0.2940 -0.2258
14224W        W30358   6.008  17.930  11.578 -0.0370 -0.0906  0.1305
14225W        W30359  16.168   8.005   4.821 -0.1575 -0.1159 -0.0923
14226W        W30360   3.282   3.766  11.830 -0.3379  0.1253  0.2499
14227W        W30361   4.965   2.612  11.604  0.2403  0.3864  0.0304
14228W        W30362   9.786  17.473   4.493 -0.2805  0.2761  0.1331
14229W        W30363   1.333   8.248  10.788  0.1360  0.0263 -0.3134
14230W        W30364   7.824  14.316  12.860  0.1002 -0.0889 -0.1349
14231W        W30365   1.556  17.584  12.091  0.1768 -0.0766 -0.1123
14232W        W30366  11.649   1.709   4.024 -0.0454  0.3642  0.0177
14233W        W30367   8.236  17.177   2.441  0.1344  0.0508  0.1556
14234W        W30368   4.033  12.747  11.723  0.1031  0.0891 -0.0362
14235W        W30369   1.098  17.553   4.064 -0.4402 -0.1115 -0.2130
14236W        W30370   8.675  10.273  12.660 -0.0360  0.0173  0.2339
14237W        W30371  18.683   2.997  13.007 -0.3956 -0.2902  0.0052
14238W        W30372   4.765   3.911  12.079 -0.1104  0.0635 -0.0070
14239W        W30373  16.282  13.460   2.850  0.1373  0.2520  0.1454
14240W        W30374   5.057   3.806  13.579 -0.0803 -0.1971  0.3706
14241W        W30375  10.028   4.542  13.134  0.1368  0.1379  0.0578
14242W        W30376   0.748   1.054   4.685  0.0180 -0.0568 -0.2343
14243W        W30377   5.767   4.032  14.145  0.0198  0.0194  0.1858
14244W        W30378   5.164   1.187   2.308 -0.2956 -0.0893 -0.0736
14245W        W30379  17.427   3.180   2.201  0.1170  0.0159 -0.1905
14246W        W30380   6.873  17.601   1.864 -0.1564  0.1576 -0.1552
14247W        W30381   6.428   2.946   5.580  0.1387  0.1133 -0.1154
14248W        W30382  17.549   8.988   0.975 -0.0308  0.1696  0.2207
14249W        W30383  18.750  18.843   5.212 -0.1955 -0.0478 -0.1041
14250W        W30384  17.554  10.376  12.063  0.0284  0.1273  0.0997
14251W        W30385  15.288  17.377  14.024  0.1584 -0.0323 -0.0448
14252W        W30386  18.310   4.945   4.342 -0.0419  0.2412  0.0919
14253W        W30387  13.504   9.425  13.222  0.0739  0.3092  0.0203
14254W        W30388  11.270   6.104  13.603  0.0303 -0.2167 -0.3467
14255W        W30389  16.737  14.156  14.027 -0.1878 -0.3447 -0.0726
14256W        W30390   5.638  11.978  12.471 -0.2651 -0.2179 -0.0486
14257W        W30391   7.450  13.653   0.555 -0.2364  0.1016 -0.0803
14258W        W30392   6.635  16.823   4.537  0.2986  0.1177  0.1145
14259W        W30393  11.858  11.122  11.670  0.0373 -0.0518  0.3042
14260W        W30394   3.231   7.684   0.990 -0.1899  0.1080 -0.2944
14261W        W30395  15.375  18.640   0.236  0.1542 -0.1444 -0.1933
14262W        W30396   6.812   7.594   5.168  0.0413  0.0311 -0.1667
14263W        W30397   4.646  14.000  11.923 -0.0493  0.1407 -0.1311
14264W        W30398   1.741   5.215   2.093 -0.1865 -0.0788 -0.3086
14265W        W30399   1.351   3.816  13.156 -0.1815 -0.1823 -0.1156
14266W        W30400   8.427  17.280   0.622 -0.0096 -0.4468  0.2254
14267W        W30401  16.243  18.507   5.875  0.0133  0.1064  0.0741
14268W        W30402   5.178  18.312  14.174  0.2897 -0.0840 -0.3441
14269W        W30403  10.288   1.302  14.339  0.5180  0.3314 -0.1337
14270W        W30404  18.536  13.268  11.315 -0.0852  0.1059 -0.3490
14271W        W30405   0.039  13.111  12.918  0.1373 -0.2176  0.0821
14272W        W30406   2.057  10.265  14.672 -0.0883  0.1449 -0.2884
14273W        W30407   0.262   6.735   0.183 -0.1587 -0.0560  0.0881
14274W        W30408   0.136   8.437   1.764 -0.2603 -0.1851  0.1498
14275W        W30409   1.971   2.885  13.803  0.0555 -0.1463 -0.0256
14276W        W30410  11.569  11.518  11.707  0.0312 -0.2174 -0.0194
14277W        W30411  10.818   2.781   2.500 -0.1435  0.0669 -0.0056
14278W        W30412   2.561  18.747   0.565  0.0068 -0.2532 -0.2165
14279W        W30413   7.935   0.370  15.281  0.0307 -0.1630 -0.1370
14280W        W30414   6.821   6.668  10.783 -0.0381 -0.1066  0.4281
14281W        W30415   4.246  10.462  14.487 -0.0166 -0.0210  0.1924
14282W        W30416   3.931  14.437  14.847 -0.1872 -0.4816 -0.0546
14283W        W30417  17.626   3.333   3.748  0.1463  0.1133  0.1877
14284W        W30418  14.028  12.478  12.073  0.3645  0.1818 -0.0174
14285W        W30419   6.981   7.163  14.860 -0.0305 -0.0995  0.0748
14286W        W30420  16.814   6.025   1.484 -0.0850  0.0479  0.0195
14287W        W30421  10.820  11.376   2.259  0.1252 -0.0775  0.1866
14288W        W30422   5.850   6.466  13.444  0.1858  0.0624 -0.2611
14289W        W30423  10.446  16.720   1.779 -0.0850  0.1240  0.0978
14290W        W30424  17.161   8.206  13.432 -0.0424  0.1611  0.1123
14291W        W30425   5.527   3.086  10.785  0.1665  0.0818  0.0928
14292W        W30426  18.657  11.458  14.916 -0.0046 -0.0721  0.0108
14293W        W30427  12.309   7.988  14.214 -0.1914  0.1143  0.0148
14294W        W30428  15.414   2.093  10.630 -0.0189  0.1419  0.0317
14295W        W30429   0.848  17.585   1.727  0.0109 -0.0126  0.1887
14296W        W30430   7.689   0.446  11.534  0.2313 -0.1376 -0.0349
14297W        W30431   6.332  17.558   1.014  0.2216 -0.0808 -0.0901
14298W        W30432   5.406  13.754   0.901  0.1058 -0.2798 -0.2012
14299W        W30433   9.164  16.072   2.252 -0.0922  0.0411  0.0153
14300W        W30434   0.884  12.980   0.494 -0.0662  0.0968 -0.1226
14301W        W30435   9.517   6.149  10.054  0.0489 -0.0668 -0.0398
14302W        W30436  17.397  17.938   2.128  0.5178  0.1305 -0.2447
14303W        W30437  19.007   7.969  14.363 -0.0685  0.0687 -0.0811
14304W        W30438   2.684   4.465  14.520 -0.1240  0.0195  0.2415
14305W        W30439   8.117   2.348  11.336 -0.2742 -0.0527  0.2664
14306W        W30440   9.117  12.592  11.863 -0.1042 -0.2471 -0.0245
14307W        W30441   3.939   6.030  14.878  0.2987 -0.1848 -0.0091
14308W        W30442  14.452   7.897   0.108 -0.1300  0.0001 -0.1422
14309W        W30443   1.940  18.817  11.859 -0.1931 -0.2588  0.1757
14310W        W30444   0.221   4.944   3.871 -0.0788  0.3786 -0.1823
14311W        W30445  17.157  18.233  11.235 -0.2182 -0.0926 -0.1677
14312W        W30446   1.204  13.274   3.632  0.3238  0.2660 -0.1342
14313W        W30447  11.283  16.076  13.528 -0.0381  0.4624 -0.0561
14314W        W30448   3.273   1.146  10.890 -0.1056 -0.1385 -0.0942
14315W        W30449   8.282   9.786  14.473 -0.0030 -0.2120  0.1176
14316W        W30450  14.270  15.140  12.531 -0.0462  0.1334 -0.1254
14317W        W30451  16.917  11.217  12.498 -0.0695 -0.1801  0.0124
14318W        W30452   9.631  10.442   0.467  0.0471  0.0925 -0.0569
14319W        W30453   7.108  14.786   2.362  0.2092 -0.0348  0.0461
14320W        W30454   1.684  18.390  13.116 -0.0343  0.2051 -0.0261
14321W        W30455   2.051  18.896   3.233 -0.2525  0.0518 -0.1116
14322W        W30456  11.381  17.422  11.027  0.0194 -0.3197  0.2586
14323W        W30457  18.472   8.060   1.275 -0.1072 -0.3839  0.1807
14324W        W30458  17.102   3.648  14.704  0.3961  0.1777 -0.0144
14325W        W30459   4.972   5.719  13.992 -0.1707 -0.0109  0.2494
14326W        W30460  10.960  18.108   4.530  0.1930  0.1231  0.1426
14327W        W30461   1.195   0.749  10.463 -0.0403 -0.0396  0.0170
14328W        W30462   5.272   3.644   3.822 -0.1823  0.0219 -0.1559
14329W        W30463  11.425  15.665  14.143 -0.1906 -0.1677  0.0175
14330W        W30464   8.455   5.705  11.772  0.1509 -0.1229 -0.1015
14331W        W30465  16.997   9.587   4.899 -0.0178  0.1210  0.0207
14332W        W30466   4.411   3.992  11.085  0.0301  0.1703 -0.0913
14333W        W30467   1.057   5.784   4.965 -0.0960  0.0587 -0.2604
14334W        W30468   7.984   2.184   0.086 -0.1592  0.1709 -0.0310
14335W        W30469  12.296  16.880   0.847  0.4080 -0.0180  0.2246
14336W        W30470  14.944   2.750   3.746 -0.0806 -0.2503 -0.3140
14337W        W30471  17.878  13.952   3.008 -0.2405 -0.0361 -0.0669
14338W        W30472   6.317   1.942   1.459  0.1895 -0.0352  0.3217
14339W        W30473  11.700   3.777  13.234  0.2668  0.4151  0.2003
14340W        W30474  14.756  16.677   2.079 -0.0294  0.2169 -0.2907
14341W        W30475   6.838  15.240   0.492 -0.2753  0.4872 -0.1541
14342W        W30476  11.938   1.816  14.812  0.0987 -0.0804  0.0151
14343W        W30477  18.917  15.590  14.009  0.3146 -0.4269 -0.0622
14344W        W30478  11.796   2.415  13.681  0.0491  0.0157  0.1651
14345W        W30479   6.404  10.377   4.303 -0.0325 -0.1755 -0.0819
14346W        W30480   7.096   4.887   1.638 -0.1708  0.2018 -0.0973
14347W        W30481  12.483   6.426   5.246  0.2516 -0.1737 -0.3630
14348W        W30482   6.719   1.165  13.689  0.1846  0.1429 -0.0870
14349W        W30483  15.638  17.296  10.855  0.0458 -0.2816 -0.1527
14350W        W30484  11.414   2.079   0.897  0.1020  0.1555 -0.1029
14351W        W30485  15.722   3.996  13.270  0.1710  0.3472 -0.0544
14352W        W30486   5.754  17.473   4.681 -0.0453 -0.0992  0.1692
14353W        W30487  12.295  14.235   3.684 -0.0392  0.1071 -0.1907
14354W        W30488   7.487   4.530  14.268 -0.1609 -0.1122  0.1330
14355W        W30489  10.604   0.665  12.295 -0.0659 -0.0400  0.0452
14356W        W30490  18.535   1.600   4.688 -0.2047 -0.3304  0.0149
14357W        W30491   8.409   0.928  14.879  0.3469  0.1021  0.0627
14358W        W30492   0.106   8.064   0.635  0.3322  0.1688 -0.2351
14359W        W30493   8.134  13.757   4.896 -0.2766  0.2974 -0.2545
14360W        W30494   7.657   8.309  13.739  0.0307 -0.0615  0.2192
14361W        W30495  11.412  18.192  11.423  0.0145 -0.1563 -0.0388
14362W        W30496  15.135   1.091   0.373  0.1005  0.0128  0.0420
14363W        W30497   2.297  12.868   3.111  0.0455  0.0786 -0.0283
14364W        W30498   1.634  18.216  11.835 -0.0193  0.2485 -0.2597
14365W        W30499  18.238   7.151  14.155  0.1373  0.3063 -0.1047
14366W        W30500   0.194  14.483  11.504  0.3253 -0.0201 -0.1515
14367W        W30501  16.202   8.490  12.533 -0.2176 -0.4687 -0.1331
14368W        W30502   3.021   8.212  12.449  0.3330 -0.2188  0.0089
14369W        W30503   2.643   2.167   4.465  0.3039  0.4141  0.2349
14370W        W30504   8.424  12.355  13.493 -0.0536  0.2382  0.3063
14371W        W30505  13.939  14.241  12.474  0.2637 -0.2730 -0.0641
14372W        W30506   9.000  13.015   4.577 -0.1563 -0.0992 -0.2333
14373W        W30507  17.795   4.396   4.911 -0.1295 -0.1982 -0.1866
14374W        W30508  18.266   9.337   4.861 -0.0323 -0.0514 -0.2202
14375W        W30509  12.418   0.397  11.213  0.1097 -0.0375 -0.0835
14376W        W30510   3.478  14.789   1.331  0.1544  0.0838 -0.1647
14377W        W30511  12.770   1.342   1.020  0.1700  0.1819 -0.0682
14378W        W30512   3.698   7.526  11.839 -0.2666  0.1073 -0.1899
14379W        W30513   1.270  16.312  15.081 -0.1234 -0.1899 -0.3289
14380W        W30514   6.913   3.565   3.049 -0.0334  0.3831 -0.2217
14381W        W30515  11.739   7.412   2.112 -0.1498  0.0887 -0.0877
14382W        W30516   8.021  18.307  13.963 -0.2018 -0.1354 -0.2325
14383W        W30517  10.323   5.077   2.209  0.1375  0.1204  0.0365
14384W        W30518   4.134  14.283  12.552  0.1534 -0.0368  0.1514
14385W        W30519   3.841   3.543   0.333  0.0281 -0.0789 -0.0543
14386W        W30520   2.463   0.640  12.401  0.2009  0.3125  0.2191
14387W        W30521   4.912  13.253   4.500 -0.0778 -0.0984 -0.0818
14388W        W30522  14.457   4.037  11.143  0.0089 -0.1175  0.2324
14389W        W30523  16.432  14.730   5.150 -0.4180  0.0264  0.0930
14390W        W30524   8.767   2.244  10.808 -0.2614 -0.0363  0.0646
14391W        W30525  12.883  11.853   4.294  0.2469  0.1099  0.1263
14392W        W30526   6.590   4.106   2.682  0.0799 -0.0246 -0.1343
14393W        W30527   8.443   3.796   3.710 -0.1555 -0.0449  0.0116
14394W        W30528   1.684   0.862   5.607  0.2434  0.4408  0.3442
14395W        W30529   6.965   3.232  14.380 -0.1552 -0.0108 -0.0460
14396W        W30530   9.723  10.762  10.328  0.2096  0.2453 -0.0251
14397W        W30531   0.419  14.682   1.838  0.1398 -0.0939  0.4319
14398W        W30532   5.576   5.957   4.186  0.2010 -0.5613 -0.0944
14399W        W30533  12.938  12.748  13.617 -0.1118 -0.2681 -0.0657
14400W        W30534  11.074  12.297   0.311  0.2825 -0.1579  0.0620
14401W        W30535  11.732   8.383  13.962 -0.6016 -0.1951 -0.2594
14402W        W30536   4.581  15.856   9.710  0.1382 -0.0533  0.0547
14403W        W30537   8.873   0.902  11.137  0.0877  0.1933 -0.0391
14404W        W30538   9.424   5.173  12.723  0.0614  0.2350  0.3745
14405W        W30539  14.193   4.838   1.323  0.5303 -0.0714 -0.0188
14406W        W30540  10.662  16.439  13.688 -0.2037  0.1731 -0.0828
14407W        W30541  16.036   7.792  14.670 -0.0666 -0.2205  0.1601
14408W        W30542   4.277  14.291   1.561 -0.1189 -0.2871 -0.2745
14409W        W30543   8.575   0.470  11.217  0.1373  0.1193  0.0580
14410W        W30544  16.889   6.194   2.309 -0.2018 -0.4050 -0.1857
14411W        W30545   9.850   3.152   1.718 -0.1794  0.2433 -0.0940
14412W        W30546   2.704   4.573  15.086 -0.0937 -0.5482 -0.0485
14413W        W30547   8.993  12.917   0.983 -0.2095 -0.3317 -0.2703
14414W        W30548   0.203  11.895  11.717 -0.2128  0.0476  0.0684
14415W        W30549  14.242   4.084  11.641  0.1586 -0.0420 -0.0464
14416W        W30550   7.817  17.541   3.301  0.4099  0.0861 -0.0725
14417W        W30551  13.678  11.052  11.324  0.0384  0.0350 -0.2084
14418W        W30552  11.761  11.044   4.284  0.0489 -0.0424 -0.0901
14419W        W30553  11.757  16.389   3.339 -0.0920 -0.0551  0.0234
14420W        W30554   6.034  11.295   4.458 -0.1388  0.2635 -0.0873
14421W        W30555  10.603   2.657  13.043  0.0638 -0.5582  0.0915
14422W        W30556  14.916  12.301  12.241  0.1437  0.2225  0.1171
14423W        W30557   3.195  11.774  13.074  0.1565 -0.1458 -0.0532
14424W        W30558   5.563   6.440   0.747  0.1814 -0.5423  0.0344
14425W        W30559   4.766   7.300   1.215  0.0177 -0.1966 -0.0778
14426W        W30560  14.717   3.626  10.672  0.1480 -0.0500 -0.5395
14427W        W30561   1.962   9.580   2.321 -0.1421  0.2992  0.0475
14428W        W30562   0.772   9.420  13.332  0.1434  0.0015 -0.0490
14429W        W30563  10.352   5.570   4.669  0.2823  0.1193  0.0780
14430W        W30564  10.020   9.887   1.018 -0.1594 -0.1627  0.0858
14431W        W30565   7.370   9.142  11.227 -0.0743  0.0249 -0.2443
14432W        W30566   9.177  14.609   4.517 -0.1977 -0.2970  0.1913
14433W        W30567  14.496   6.715  12.156  0.1928 -0.0263 -0.0230
14434W        W30568   0.580   9.919   0.833 -0.3752 -0.0332  0.0142
14435W        W30569   5.726  15.163   2.903 -0.2296 -0.1354 -0.0342
14436W        W30570  15.631  18.069   1.873  0.3155  0.0786  0.1005
14437W        W30571  11.116  18.728  14.228  0.0167  0.0655 -0.0713
14438W        W30572   3.464  11.465  12.758 -0.0680 -0.4093  0.2134
14439W        W30573   2.585  18.220  14.124  0.0592  0.1050 -0.2082
14440W        W30574  16.194   9.636   0.613 -0.3246 -0.0586 -0.0819
14441W        W30575   1.812   0.128  10.307 -0.1177 -0.1210 -0.2115
14442W        W30576   4.578  17.790   5.276  0.1613 -0.0904  0.1695
14443W        W30577   7.329   7.876   3.099  0.0415 -0.0971  0.1005
14444W        W30578   4.956   7.414  15.110 -0.0943 -0.1011 -0.0707
14445W        W30579   4.046   3.000   2.100  0.0288 -0.0704 -0.1921
14446W        W30580   9.493  13.780  11.170  0.1277 -0.3252 -0.0160
14447W        W30581   8.438  12.150   1.246 -0.0359 -0.0013 -0.0377
14448W        W30582  18.113   3.958   0.010 -0.1608 -0.1390 -0.2618
14449W        W30583  13.270   7.137  11.499 -0.1454 -0.2093  0.0322
14450W        W30584   2.865  18.468   2.959 -0.0384 -0.1203 -0.2944
14451W        W30585  11.025  17.936   5.021 -0.1053 -0.0089 -0.0423
14452W        W30586  18.374   6.929   2.787 -0.1665  0.0085 -0.0919
14453W        W30587  16.076  12.351  12.306 -0.0793 -0.1403 -0.1505
14454W        W30588   1.569  12.886  10.661 -0.1504  0.0246 -0.0917
14455W        W30589   1.409  15.726   0.213 -0.3390 -0.1839  0.1072
14456W        W30590   9.737  18.985  12.716 -0.2517 -0.0094  0.1930
14457W        W30591  13.043   2.481  14.818  0.0797 -0.1593  0.0815
14458W        W30592   7.702   5.068   4.150  0.1751  0.0356  0.1554
14459W        W30593  10.730   9.846  14.585 -0.0522 -0.2505  0.0267
14460W        W30594   7.203  13.431   1.746 -0.0112 -0.1780 -0.1249
14461W        W30595  11.024   7.161   0.255 -0.3807 -0.0099 -0.3094
14462W        W30596   2.935  10.690   0.893 -0.3329  0.3006 -0.0374
14463W        W30597   5.155   6.912   9.968  0.0295  0.2306  0.4012
14464W        W30598  13.854   8.042   1.200 -0.0462  0.4903 -0.1755
14465W        W30599   1.050   5.317   1.195 -0.3124 -0.1968  0.1305
14466W        W30600  15.867  17.749   3.505 -0.1851 -0.1213 -0.2154
14467W        W30601  16.367  15.871   1.092 -0.2751  0.2578 -0.0829
14468W        W30602  15.594   6.385   3.785  0.1823 -0.1891 -0.0327
14469W        W30603  16.082  11.119   4.733 -0.2437 -0.0280  0.0313
14470W        W30604   2.956   3.562   3.734 -0.0037 -0.0873  0.2583
14471W        W30605  13.886  12.839   1.695  0.0693 -0.2964 -0.1232
14472W        W30606  15.716   2.795  13.152  0.1347  0.0058  0.0411
14473W        W30607   4.700  15.684  13.613 -0.2161 -0.1792  0.1469
14474W        W30608   8.369  11.919   3.741 -0.1023 -0.1949  0.0108
14475W        W30609  17.147   1.807  13.165 -0.2926  0.1286 -0.3239
14476W        W30610   1.766   6.928   5.273  0.0052  0.3657 -0.0886
14477W        W30611  17.095  17.167  13.089 -0.1651  0.2013  0.0036
14478W        W30612   5.250   8.439  14.328  0.1492  0.0211 -0.0542
14479W        W30613   5.308  13.075  14.793 -0.0028 -0.2522 -0.0369
14480W        W30614  10.153   4.152   3.043  0.0196 -0.0798 -0.0889
14481W        W30615   4.712   0.136  11.736 -0.0129 -0.1432  0.2109
14482W        W30616  17.899  15.593   2.225  0.0124  0.0479 -0.0385
14483W        W30617  13.422   6.229   1.255 -0.3947  0.1241  0.0787
14484W        W30618  17.549   9.213  13.614 -0.1689 -0.1078 -0.2058
14485W        W30619   5.961   0.730   9.686 -0.0364  0.0478 -0.0081
14486W        W30620   0.591   5.686   0.218  0.0174 -0.0163 -0.0548
14487W        W30621  15.321   4.238   5.149 -0.0285  0.1055 -0.1663
14488W        W30622  14.193   0.409  14.860  0.2208  0.0182  0.2468
14489W        W30623   1.340   8.034  14.523  0.4113 -0.2821  0.1123
14490W        W30624  18.292  17.798   1.190 -0.4132  0.0622 -0.0457
14491W        W30625   5.691   2.483  12.362  0.3165 -0.2502  0.1182
14492W        W30626  16.073  12.012   4.598  0.0127 -0.1382  0.0788
14493W        W30627   0.079   3.108   4.102 -0.0714 -0.3482  0.0367
14494W        W30628   6.909   0.808  11.802 -0.0860  0.1433  0.2888
14495W        W30629   2.230  14.595  12.735 -0.0603  0.1356 -0.3144
14496W        W30630   0.404  12.706   0.319 -0.1557  0.0385 -0.0659
14497W        W30631  14.582  18.525   0.084 -0.1512 -0.0320  0.1423
14498W        W30632   5.595   2.280  11.904  0.1680 -0.2555  0.0015
14499W        W30633   0.953   9.455  14.867 -0.0460  0.0271 -0.1372
14500W        W30634  16.809   9.434  14.946  0.0208  0.1784  0.1634
14501W        W30635   9.608   3.511   2.478 -0.0597 -0.1744  0.2076
14502W        W30636   7.389   9.266  13.280 -0.1017 -0.2975  0.1921
14503W        W30637   4.714   0.553   3.654 -0.1125  0.3733 -0.4784
14504W        W30638  17.593  17.834  11.770  0.0100 -0.1408 -0.1026
14505W        W30639   3.275   0.111   1.191 -0.1046  0.0056  0.0127
14506W        W30640  12.020   8.477  12.498  0.3316  0.0810 -0.0812
14507W        W30641   1.918   4.443   5.142  0.1700  0.1049 -0.4665
14508W        W30642   7.978   7.551  14.867 -0.2908 -0.1305  0.0211
14509W        W30643  12.278   7.793   1.445 -0.0879 -0.1261  0.2840
14510W        W30644  16.488  16.809  14.635  0.1284  0.0708 -0.0315
14511W        W30645   8.523   5.213   3.426 -0.0718  0.1647  0.2725
14512W        W30646   1.146  18.746  14.911 -0.0893 -0.2176  0.0621
14513W        W30647   2.717  15.595   4.160  0.2598 -0.0029  0.2292
14514W        W30648  18.030  11.296  11.854  0.0444 -0.0698  0.0854
14515W        W30649   0.479   0.806  11.679 -0.1377  0.0087 -0.2195
14516W        W30650  15.968  15.940   5.638 -0.0081 -0.1807  0.1311
14517W        W30651  12.004  14.069  12.574  0.0381  0.1071 -0.0566
14518W        W30652   9.867   6.124  11.607  0.1261  0.2114  0.0529
14519W        W30653   9.685  17.879   1.623  0.1352 -0.0713  0.1944
14520W        W30654   6.384  17.145   4.040 -0.1233  0.1269  0.1237
14521W        W30655  15.932   9.371  10.460  0.0023 -0.1960 -0.0865
14522W        W30656   8.755   5.152  14.883 -0.2130 -0.1675  0.3351
14523W        W30657  12.451   5.875  12.608 -0.1394 -0.0971  0.2904
14524W        W30658  16.616  11.341  10.734  0.4290 -0.2323 -0.0021
14525W        W30659   7.338  18.956   0.649 -0.1888  0.1202  0.5720
14526W        W30660  14.562  16.812  14.535  0.2313  0.1147 -0.0527
14527W        W30661  10.279   4.970   5.711 -0.0680  0.0038  0.4610
14528W        W30662   8.041   5.426   0.574  0.0081  0.3341 -0.2506
14529W        W30663   3.427   5.629  10.618  0.0574  0.1970  0.0421
14530W        W30664  11.128   9.203  10.806 -0.3882  0.2616  0.1272
14531W        W30665  14.149   3.334   2.297  0.2311  0.0565  0.2263
14532W        W30666   5.967   0.604   4.520  0.0303 -0.1627  0.2492
14533W        W30667   7.727  14.207   1.230  0.1405 -0.0414 -0.1574
14534W        W30668  16.616   7.461   4.384  0.0946  0.0805  0.1070
14535W        W30669  18.623   3.652   1.825  0.0067 -0.1710 -0.1323
14536W        W30670   7.560   9.217   3.165 -0.2449 -0.2704 -0.1079
14537W        W30671  10.048   7.016   3.368 -0.1743  0.2889  0.2211
14538W        W30672  13.723  12.808  11.192  0.0979  0.2590  0.0951
14539W        W30673  17.912  14.370  12.406  0.2538 -0.0425  0.0678
14540W        W30674  12.179  18.706  14.558  0.1067  0.0479  0.2756
14541W        W30675   6.995  13.260   2.129 -0.1863  0.0179 -0.1512
14542W        W30676  16.327   3.339  14.061  0.1052 -0.2762  0.1248
14543W        W30677  12.577  12.962   1.966  0.0173 -0.3000  0.0452
14544W        W30678   0.385   2.547  10.761 -0.1224 -0.1225  0.2448
14545W        W30679   9.023   7.170  13.230  0.0837 -0.0974 -0.1928
14546W        W30680   4.965  14.347   2.264 -0.1029 -0.1981 -0.2682
14547W        W30681   3.182   4.388  15.053  0.2016 -0.1114 -0.2822
14548W        W30682  15.151   4.009   2.328 -0.0825 -0.0727  0.0660
14549W        W30683  16.019   8.606   4.015  0.2450 -0.1732  0.3972
14550W        W30684   9.657   5.073   1.451  0.3715  0.0199 -0.1451
14551W        W30685  16.961   8.752   1.161  0.2898  0.1237  0.4135
14552W        W30686   8.593  14.566   0.786  0.0776 -0.1420 -0.1572
14553W        W30687   8.997   3.538  14.763 -0.0409 -0.2364 -0.2853
14554W        W30688  10.439  16.623  10.234  0.0679  0.0880 -0.1359
14555W        W30689   9.549  10.127   4.841 -0.0911  0.2654  0.1336
14556W        W30690   6.387  15.660  12.799  0.0491 -0.1396 -0.1963
14557W        W30691   9.685   9.638  14.984 -0.4357  0.2171  0.1454
14558W        W30692   8.342  10.726  10.549 -0.1775  0.0601  0.2446
14559W        W30693  14.683   3.857   2.231 -0.1973 -0.0224  0.0052
14560W        W30694   8.659   6.483   2.028  0.0885  0.2971 -0.0487
14561W        W30695   3.310  17.490  10.187 -0.1071 -0.0999  0.1931
14562W        W30696  10.362   0.648  12.750 -0.1275 -0.0063 -0.0291
14563W        W30697   8.509  14.917  13.610 -0.1673  0.1538 -0.1548
14564W        W30698   4.598   0.418  12.696  0.0892  0.1967  0.2132
14565W        W30699  17.190   2.422   2.034 -0.2463  0.2111  0.1558
14566W        W30700  11.716  12.941  11.306 -0.1101 -0.3114  0.0206
14567W        W30701  12.513   7.347   4.903  0.2118 -0.0707  0.1026
14568W        W30702   4.272   8.370   4.608 -0.0433 -0.2690 -0.0724
14569W        W30703  10.688   6.780  14.304 -0.1624  0.0564  0.0179
14570W        W30704  11.585   4.472  10.901  0.1260 -0.0788 -0.0842
14571W        W30705   0.404  12.389   2.293  0.1849  0.1044  0.3059
14572W        W30706   2.977  12.902   3.009  0.1522  0.1268  0.3916
14573W        W30707   1.244  15.256  11.124 -0.1169 -0.1292  0.3466
14574W        W30708   2.838   6.636  12.111  0.0383  0.0957 -0.3997
14575W        W30709  17.557   0.758  14.273 -0.0083 -0.0692 -0.0393
14576W        W30710   7.770  13.011  13.674  0.1874 -0.0155 -0.2071
14577W        W30711   5.216  13.410  15.177 -0.1198 -0.0770  0.0602
14578W        W30712   4.102   8.305   1.855 -0.0050 -0.2468  0.0496
14579W        W30713   9.209   6.622   5.701  0.0594 -0.1177 -0.0992
14580W        W30714  10.897   7.981   0.640  0.2367  0.1227 -0.0398
14581W        W30715  16.736  10.123   5.533  0.1968 -0.0506 -0.3112
14582W        W30716  12.382  14.854   5.024 -0.1427 -0.0034 -0.1934
14583W        W30717   3.973  18.657   0.372  0.2230  0.0304 -0.0920
14584W        W30718   7.743   9.739  15.207 -0.2914 -0.0471 -0.2227
14585W        W30719  14.835   7.609  10.635  0.2251  0.1688 -0.1587
14586W        W30720   6.718   4.359  11.187  0.0199  0.0703 -0.0618
14587W        W30721   4.997  14.197  12.270  0.0337 -0.0071  0.1956
14588W        W30722   5.467   2.069  12.657 -0.0666 -0.0270 -0.0859
14589W        W30723  18.407  11.152   0.533 -0.4492  0.1083 -0.0184
14590W        W30724   4.504   3.294   3.181  0.0596  0.0510 -0.1672
14591W        W30725   5.472  12.985  10.922  0.1851 -0.1851 -0.0679
14592W        W30726  14.672   3.666   4.893  0.3645  0.1156  0.3107
14593W        W30727   4.683  14.856  14.515 -0.4165 -0.2035 -0.0665
14594W        W30728  11.008  15.245  10.302 -0.2116  0.1243  0.2258
14595W        W30729   2.473   7.962  11.196 -0.0582 -0.0392 -0.1755
14596W        W30730  11.422   5.198  15.226 -0.1109 -0.1058 -0.1156
14597W        W30731  15.414  14.409   4.058 -0.0433 -0.0482  0.4618
14598W        W30732   8.373  16.398   1.773 -0.0108  0.1636  0.0024
14599W        W30733   7.165  15.660  12.034  0.1814 -0.3642  0.3735
14600W        W30734   4.277   7.498  11.264  0.2954 -0.0295  0.0011
14601W        W30735   9.943   3.632   0.141 -0.0771 -0.0701  0.0206
14602W        W30736  13.172   8.992   4.889 -0.3006  0.2596 -0.1664
14603W        W30737  15.667  11.025  13.300  0.0339 -0.1101 -0.2794
14604W        W30738  16.587  14.155   4.752  0.3865 -0.2304  0.3640
14605W        W30739  11.061  11.543   5.555  0.0624  0.0652  0.3313
14606W        W30740  18.313   5.050  12.646  0.0504 -0.1121 -0.2867
14607W        W30741  13.592  13.160   1.510  0.1026  0.2685  0.1951
14608W        W30742  17.011  14.196   3.882  0.1766  0.1369 -0.0511
14609W        W30743  14.712   1.055  11.070 -0.1533 -0.0667 -0.2156
14610W        W30744   2.532  14.234   2.122  0.0604  0.0919 -0.0186
14611W        W30745   1.191   3.687  14.567 -0.0376  0.0781 -0.0996
14612W        W30746   3.340   1.952  14.192  0.1034 -0.3993 -0.0852
14613W        W30747  11.900  12.564  11.686  0.0368  0.2419  0.0539
14614W        W30748  12.137  16.521   1.247  0.0427  0.3157  0.2010
14615W        W30749  15.833   2.503  13.538  0.0046  0.0697 -0.2871
14616W        W30750  12.189   2.096  13.133  0.2542 -0.0877 -0.3239
14617W        W30751   1.795   2.744  14.535 -0.2788 -0.3857 -0.1080
14618W        W30752   1.668  11.581  12.629 -0.0639  0.0681 -0.0671
14619W        W30753  15.187  12.104   4.301  0.2389 -0.0397  0.3685
14620W        W30754   9.693   0.216  14.933 -0.0687  0.4315  0.2577
14621W        W30755  16.453   8.204   2.269 -0.0268 -0.1970 -0.0070
14622W        W30756  12.256   1.251   5.228  0.5604  0.0347  0.0167
14623W        W30757  18.297   7.130  11.132 -0.1375 -0.2277  0.1950
14624W        W30758  14.901   5.550   5.273 -0.0190  0.0392 -0.2193
14625W        W30759   6.818  16.205   0.051  0.1032  0.3895  0.1636
14626W        W30760  11.892   4.620  12.660 -0.0045  0.0009  0.0034
14627W        W30761  18.716   9.083  13.075 -0.0675  0.0102 -0.1802
14628W        W30762  12.607   4.680  12.125  0.1787 -0.1880 -0.1266
14629W        W30763   6.775  11.640   5.837 -0.2150 -0.3106  0.2202
14630W        W30764  17.883  11.801  14.392 -0.0333 -0.0989 -0.0341
14631W        W30765  17.962   2.960   1.560  0.1684  0.2257 -0.1703
14632W        W30766  17.490   7.077   0.792 -0.1194  0.4137 -0.0205
14633W        W30767  11.181  10.305   0.622  0.0252 -0.1969 -0.0721
14634W        W30768  12.414  13.473  15.172 -0.1054  0.0241 -0.0353
14635W        W30769   7.187   4.763  10.267  0.1524  0.0955 -0.1884
14636W        W30770  16.330  16.947   5.186  0.0751  0.3601 -0.1131
14637W        W30771   9.725   0.922   2.608 -0.0950  0.0555 -0.2042
14638W        W30772   3.340  13.759  12.878 -0.4027 -0.4413 -0.0698
14639W        W30773   7.334  16.994  10.450 -0.0110  0.0861  0.0682
14640W        W30774   3.820   7.798  14.310 -0.3584  0.1494 -0.0427
14641W        W30775   6.068   1.923  13.395 -0.0612 -0.1019 -0.0508
14642W        W30776   2.820   0.396   3.227  0.0636 -0.1056  0.0273
14643W        W30777   9.463  14.524  12.832  0.0761 -0.1851 -0.1643
14644W        W30778  10.222  18.009  11.655 -0.1328  0.0861  0.0869
14645W        W30779   9.415   9.168   1.089 -0.3284  0.0335 -0.0791
14646W        W30780  10.699  17.634  13.406 -0.0141 -0.0471  0.1005
14647W        W30781   8.688   3.057   0.927 -0.2039  0.1208  0.1485
14648W        W30782  13.267   5.821  12.104  0.2207 -0.4383  0.0092
14649W        W30783   4.498   5.548   2.202 -0.0484  0.1248  0.1048
14650W        W30784  12.092   4.075  11.749 -0.1109  0.2568  0.1013
14651W        W30785   3.597   6.517   0.390  0.0989 -0.0725  0.0704
14652W        W30786   6.047   6.068   3.514  0.0367  0.1965  0.2071
14653W        W30787  12.864   2.125   4.551  0.0828  0.1213 -0.0219
14654W        W30788  11.585  17.202   3.321  0.0673 -0.3258  0.3637
14655W        W30789  11.664   9.149   4.126 -0.2336 -0.2277  0.0630
14656W        W30790   5.068   2.258   3.322  0.1381 -0.2998 -0.0794
14657W        W30791  11.548  13.135  14.148 -0.0413  0.0361  0.3484
14658W        W30792  13.797   8.183  14.813  0.0579  0.1413 -0.2528
14659W        W30793  10.860   3.279   4.242 -0.2413  0.0207 -0.1508
14660W        W30794   3.844  15.880   3.796  0.0209  0.2566 -0.1929
14661W        W30795   7.561   7.739   0.843  0.3244  0.1080 -0.1722
14662W        W30796  13.964  13.704  12.885 -0.1025 -0.0582  0.0359
14663W        W30797   4.590  10.688  10.357 -0.0712 -0.1983 -0.1477
14664W        W30798   3.998  16.054   4.655  0.1627  0.0970  0.0406
14665W        W30799   3.032   5.709  10.225 -0.1892 -0.5607  0.1422
14666W        W30800   4.444  16.373   3.008 -0.2233 -0.0670  0.2583
14667W        W30801   0.407  17.864  12.749  0.1440  0.1130  0.0219
14668W        W30802   6.301  16.029  12.363  0.0363 -0.1493 -0.1634
14669W        W30803   0.572   4.198   2.680  0.3095  0.1326 -0.0062
14670W        W30804   7.335   6.584  11.241  0.2603 -0.0089  0.0299
14671W        W30805   7.780  15.666   4.818 -0.1968 -0.1370 -0.0124
14672W        W30806  13.709   6.840  12.168 -0.0225 -0.1544  0.0656
14673W        W30807  18.389  12.959  11.646  0.0917  0.4074 -0.0021
14674W        W30808  10.388  16.159   0.123 -0.1601  0.2389  0.1496
14675W        W30809  13.459  17.634   3.752  0.0375 -0.0238 -0.0027
14676W        W30810   9.866  12.226  12.547 -0.1940 -0.3456  0.3548
14677W        W30811  18.492  12.918   1.597  0.2362  0.2622  0.2013
14678W        W30812   9.113   0.831   5.552 -0.1504 -0.1392  0.1137
14679W        W30813  13.735  13.444  14.556 -0.2136 -0.0712  0.0417
14680W        W30814  13.889  16.699  13.370  0.1112 -0.2269  0.0549
14681W        W30815  18.364   9.577  11.948 -0.2612 -0.1364  0.1690
14682W        W30816   7.268  10.956  11.890  0.0389 -0.0434 -0.1817
14683W        W30817  13.809  15.092  10.185  0.0403  0.1332 -0.1844
14684W        W30818  17.106  11.905  13.711  0.1756 -0.0762 -0.1582
14685W        W30819   0.287  13.271   4.849  0.0624 -0.2256  0.0970
14686W        W30820   9.502   8.065  12.016  0.0912 -0.0289 -0.0447
14687W        W30821  14.804  18.023   2.578 -0.1049  0.1790 -0.2099
14688W        W30822  16.561   6.498  14.113  0.0156  0.0599 -0.1249
14689W        W30823   1.033  18.006  11.805 -0.2016  0.1749  0.0431
14690W        W30824  17.425   1.428   4.198  0.0500  0.0023  0.4225
14691W        W30825   3.979   0.724   9.979 -0.2637 -0.0426 -0.0514
14692W        W30826   0.542  17.139   1.614  0.0816  0.3602  0.1263
14693W        W30827   3.592  10.579  12.001 -0.1767 -0.0293  0.0298
14694W        W30828   1.132  18.771  10.287  0.2152  0.1225 -0.2697
14695W        W30829   9.542   7.245  11.946  0.2944  0.0731 -0.0578
14696W        W30830  10.296  14.804  13.229 -0.0732 -0.1149 -0.2911
14697W        W30831  17.242   6.977  12.529  0.0757  0.2028 -0.0534
14698W        W30832   3.042   1.575  13.922  0.0484  0.2769 -0.0277
14699W        W30833   7.649  11.169  12.172 -0.1126 -0.0700 -0.1882
14700W        W30834   1.121  17.482  12.932 -0.0403 -0.1017  0.3436
14701W        W30835  11.318   9.940  13.525 -0.1368  0.3748  0.1072
14702W        W30836   4.964  15.600   0.994 -0.0562 -0.0719 -0.0591
14703W        W30837   3.012  14.297   4.869  0.1600  0.0167  0.0796
14704W        W30838   7.937   3.819   5.020 -0.0514 -0.2899  0.0489
14705W        W30839   2.242  14.032  11.489 -0.0925  0.2406 -0.4073
14706W        W30840   6.135  14.030   2.692  0.0179  0.2461  0.0730
14707W        W30841   8.595   3.851   4.202  0.0111  0.1106 -0.2314
14708W        W30842  14.474   0.751  13.565 -0.1998 -0.2628  0.0093
14709W        W30843   8.619   6.179  13.379  0.1632 -0.1668  0.2448
14710W        W30844  17.277   9.125  13.172  0.0206  0.3000  0.2184
14711W        W30845   0.316  16.616  13.069  0.0355 -0.4705  0.3153
14712W        W30846  17.244   6.009   4.803 -0.1264  0.0070 -0.0243
14713W        W30847   6.310  17.261  12.696  0.1132  0.1151  0.2349
14714W        W30848   3.423  17.114  10.909  0.1066  0.0524  0.1064
14715W        W30849  13.526  16.400  12.981 -0.1490 -0.2640  0.0678
14716W        W30850   2.137  16.902   4.104 -0.3382  0.1290  0.2136
14717W        W30851   1.208  13.126  13.307  0.2089  0.0254 -0.0701
14718W        W30852   0.720  11.661  10.852 -0.1535 -0.2558  0.0229
14719W        W30853  11.660   8.722   0.027 -0.3157 -0.0488 -0.1346
14720W        W30854   6.711   5.677  13.394 -0.2960  0.2111 -0.3813
14721W        W30855   7.516  17.550  11.017  0.2098 -0.1019 -0.1937
14722W        W30856   7.631   7.612  11.592 -0.3071  0.1285  0.0534
14723W        W30857   2.962   1.181   0.998 -0.1055 -0.0539  0.0177
14724W        W30858  11.197   0.267  10.670 -0.0951 -0.2551 -0.0291
14725W        W30859   3.448   1.423  14.217  0.3043 -0.0958  0.3902
14726W        W30860  18.853   3.677  13.115  0.2727  0.0136 -0.2966
14727W        W30861  10.734  18.930  10.416 -0.0233 -0.0614 -0.3090
14728W        W30862  14.029   4.252  11.209  0.0108 -0.2129  0.0771
14729W        W30863   6.840   1.709  13.614  0.1771 -0.0539  0.1310
14730W        W30864  14.327  10.116   3.482 -0.2249  0.2867 -0.1633
14731W        W30865   7.478  18.490   2.399 -0.3669 -0.2309  0.0771
14732W        W30866   2.013   2.525   2.382 -0.1008  0.0384  0.2899
14733W        W30867   3.093   2.679   2.670  0.2724 -0.0364 -0.1964
14734W        W30868   7.721   1.592   4.060 -0.0698 -0.2760 -0.0226
14735W        W30869   8.083  16.301   1.265 -0.0107  0.1167 -0.2430
14736W        W30870   6.068   4.826  10.543 -0.1340  0.0286  0.1797
14737W        W30871  10.099   0.041   3.491  0.1781  0.2851 -0.0143
14738W        W30872   1.029   6.468   0.532 -0.1361 -0.1671 -0.0431
14739W        W30873  13.213  13.181   2.453  0.1018  0.0697 -0.1238
14740W        W30874  16.985  10.940  13.400 -0.2223  0.1293 -0.1273
14741W        W30875  12.739   1.162  14.794  0.1478 -0.0388 -0.1850
14742W        W30876  13.085  14.471   2.000  0.3609 -0.1120  0.0815
14743W        W30877   0.857  15.170   4.352 -0.1936  0.2459 -0.0778
14744W        W30878  13.742  16.008   3.385  0.1584 -0.1794 -0.1009
14745W        W30879   5.598   1.092  14.518  0.0380 -0.1300  0.2119
14746W        W30880  15.866  12.317   4.120 -0.0842  0.1191  0.0110
14747W        W30881   2.569  15.150   1.582  0.1515 -0.0988  0.2718
14748W        W30882   2.347   8.526   5.037 -0.0882 -0.1804  0.0519
14749W        W30883   9.314  11.051   3.230 -0.0447  0.0542  0.1261
14750W        W30884   1.307  13.685  11.443 -0.2527  0.2633  0.0743
14751W        W30885  10.063   0.852  13.113  0.0179  0.1059  0.1638
14752W        W30886   9.378  18.548  10.901  0.0347  0.1366  0.2358
14753W        W30887   7.688   3.681   1.354 -0.2425  0.0150  0.0407
14754W        W30888   1.192  13.351   2.833 -0.0099  0.0314  0.0556
14755W        W30889  17.584   2.083  13.037 -0.0702  0.3029  0.1148
14756W        W30890  16.890  18.329   1.005  0.2029  0.3252  0.0834
14757W        W30891   8.984  11.395   2.217 -0.3147  0.0691  0.0887
14758W        W30892   6.503   6.466  12.340 -0.1016  0.2579  0.0908
14759W        W30893  10.731   5.322   3.328  0.1033  0.0351  0.1080
14760W        W30894  18.267   8.341  14.811  0.4499  0.1164  0.2469
14761W        W30895   9.482  17.587  12.822 -0.1442  0.1183  0.0839
14762W        W30896  11.132  14.646   1.344  0.2863 -0.0134 -0.1553
14763W        W30897   8.447   4.182   3.005 -0.2173  0.3678 -0.3165
14764W        W30898  18.833  11.988   4.814 -0.0619 -0.2470  0.0361
14765W        W30899  10.901   5.374  14.534  0.1104  0.3781 -0.0661
14766W        W30900   6.398   5.515  10.251 -0.1440 -0.0589 -0.0061
14767W        W30901   6.548   4.288  13.032  0.2098 -0.4436  0.1293
14768W        W30902   6.163   3.006   5.058 -0.1501  0.3099 -0.1751
14769W        W30903   4.442  11.468  15.232 -0.0718 -0.1681 -0.1128
14770W        W30904   3.298  17.551  13.818 -0.2402 -0.0823 -0.3496
14771W        W30905  16.208   5.855   4.059 -0.2289  0.0070 -0.1174
14772W        W30906  10.112  13.993  10.541  0.1460 -0.1245 -0.0909
14773W        W30907   2.645   7.855   2.826  0.0621 -0.1159 -0.1347
14774W        W30908   9.542   1.876  15.156  0.0163 -0.0714 -0.0322
14775W        W30909   7.670   5.338   0.859  0.0226  0.3856 -0.1863
14776W        W30910  18.144  17.696  14.708  0.1823 -0.1939 -0.2264
14777W        W30911  14.387  13.748   3.033 -0.3197  0.0554 -0.4044
14778W        W30912  10.359  14.288   3.299  0.1594 -0.3736  0.2591
14779W        W30913   7.428   8.688  12.077  0.2693 -0.0234  0.1302
14780W        W30914   7.999  13.403   0.702 -0.0079  0.1441  0.0381
14781W        W30915   5.201  14.157   1.436  0.0390 -0.1637 -0.3551
14782W        W30916   4.052  17.533   3.282  0.1743 -0.1527 -0.4076
14783W        W30917  13.316   4.674  11.652 -0.0173  0.1010 -0.1188
14784W        W30918  14.418   5.527  14.341  0.1635  0.0558 -0.0362
14785W        W30919   5.114  13.617   4.218 -0.1186 -0.0511 -0.0273
14786W        W30920   8.709  12.536   9.876 -0.2201 -0.1917 -0.1550
14787W        W30921   0.745   3.151   2.774 -0.0151 -0.0102  0.3826
14788W        W30922  10.003   4.217  10.821  0.1991 -0.2344  0.2552
14789W        W30923   0.018  12.476   3.832  0.0405 -0.0661 -0.1897
14790W        W30924   1.159   9.108  13.892 -0.0629  0.0016  0.0477
14791W        W30925  15.805  17.911   0.832  0.0559  0.1230  0.0450
14792W        W30926  11.825   6.707  12.333 -0.0491  0.3406  0.0683
14793W        W30927   9.605   9.902  10.412  0.0872 -0.1172 -0.0451
14794W        W30928   9.445  13.317  11.405 -0.2133 -0.1986  0.2564
14795W        W30929   1.233  16.833   0.450  0.2527  0.1588  0.1811
14796W        W30930   3.168  14.671   3.904  0.1664  0.0994  0.0713
14797W        W30931  16.767   5.683  15.167 -0.1766 -0.1028  0.0351
14798W        W30932   1.967   5.667   3.465  0.1634  0.2639  0.0928
14799W        W30933   4.650  14.199   0.675  0.0372 -0.0059  0.0095
14800W        W30934  15.843   2.416   5.209 -0.2476 -0.1669 -0.0566
14801W        W30935  17.022   4.820   3.772  0.0768 -0.2500  0.1323
14802W        W30936  14.138   3.426  14.717 -0.2490  0.0170 -0.1252
14803W        W30937   7.006   1.961   3.399 -0.0622 -0.3405 -0.0881
14804W        W30938   3.709   8.408   0.339  0.0528  0.0442  0.1578
14805W        W30939  15.475  11.603   0.085  0.0375 -0.2485  0.2393
14806W        W30940   9.715  12.165   3.926  0.4795 -0.0315  0.2319
14807W        W30941   3.646   4.502  15.272 -0.0470  0.2864 -0.0719
14808W        W30942   8.363   6.783  15.232  0.4482 -0.1864 -0.0770
14809W        W30943   6.700  11.063  12.134  0.2204  0.0802  0.2647
14810W        W30944   7.183   6.843   3.397  0.0641  0.1554 -0.0250
14811W        W30945   1.580   3.945  14.360  0.1020  0.1322  0.0705
14812W        W30946  14.948   2.318   5.123 -0.1443 -0.1358 -0.0670
14813W        W30947   6.579   6.509   0.142 -0.0779  0.0073  0.1653
14814W        W30948  18.714  12.874   4.042  0.1484 -0.0405  0.1798
14815W        W30949  17.310  18.639  12.091 -0.1669  0.1145  0.0917
14816W        W30950   5.221   6.821   2.735 -0.2755 -0.1019  0.1475
14817W        W30951  18.271   2.258  13.961 -0.0844  0.1059 -0.0162
14818W        W30952  17.299   4.709   0.609 -0.0603  0.0317 -0.3108
14819W        W30953  17.789   0.253   0.060  0.3285  0.1065  0.1001
14820W        W30954  12.887  14.863  12.885  0.1075 -0.0829  0.0249
14821W        W30955  12.671   4.913  13.569 -0.1755  0.0270  0.0527
14822W        W30956  17.084   9.649  13.012 -0.2966 -0.3576 -0.3592
14823W        W30957   1.770  15.700   5.216  0.0611 -0.0925  0.1716
14824W        W30958   4.472  11.294  11.947 -0.1322 -0.0678  0.1133
14825W        W30959   7.893  18.654  10.004 -0.1413 -0.0336 -0.0836
14826W        W30960  12.321  17.812   5.027  0.3778  0.0108  0.2844
14827W        W30961   3.854  10.135  13.172 -0.0563 -0.0410 -0.1341
14828W        W30962   5.561  16.992   2.748  0.2270  0.1547 -0.0090
14829W        W30963   5.142   1.202  12.845 -0.1748 -0.2829  0.1107
14830W        W30964  16.392  10.227  13.063  0.1975  0.1519 -0.0503
14831W        W30965  15.633   3.275  10.815 -0.2608  0.0302 -0.2342
14832W        W30966  10.381   9.706   2.733 -0.0214  0.0049 -0.1822
14833W        W30967  15.786  15.043   9.936  0.0198  0.1278 -0.0102
14834W        W30968   2.153  11.212   0.341  0.2392 -0.2937 -0.0646
14835W        W30969  10.312  13.363   4.158  0.1562 -0.1315 -0.2599
14836W        W30970  15.125   7.952   2.922 -0.1043 -0.1355  0.0691
14837W        W30971  14.978   4.324   1.485 -0.3231  0.2331 -0.0844
14838W        W30972   6.741   4.080   3.211 -0.1166 -0.0008 -0.4283
14839W        W30973   8.105  16.893  11.176 -0.0873 -0.1834  0.1599
14840W        W30974   8.375  11.178  12.868  0.1440  0.0170  0.1227
14841W        W30975  12.185  14.564   1.378 -0.0425 -0.5635 -0.0493
14842W        W30976  14.081  14.050  14.240  0.1001 -0.0986  0.3264
14843W        W30977  12.300  11.267   0.640 -0.0717  0.2442  0.1418
14844W        W30978   5.218  17.260  14.579 -0.1467  0.3380  0.3375
14845W        W30979   1.503   5.593   3.051  0.0217  0.3473 -0.1059
14846W        W30980   0.354  10.854   2.984 -0.3005 -0.2184  0.3039
14847W        W30981   1.578   0.682  12.397 -0.3330 -0.1707 -0.0696
14848W        W30982   8.227   3.308   3.634 -0.0112  0.0732 -0.1866
14849W        W30983  15.990  14.182  14.614 -0.1313  0.1034 -0.0455
14850W        W30984   5.838  16.134  15.259 -0.1432  0.2453 -0.0936
14851W        W30985   0.896   1.078   3.253 -0.2427  0.2222 -0.1072
14852W        W30986   4.997  12.576   3.727  0.2149  0.0804 -0.0434
14853W        W30987  11.091   1.126  11.094  0.0212  0.3077 -0.0102
14854W        W30988   2.282  11.927   0.788 -0.0372 -0.2031  0.0461
14855W        W30989  15.373  16.305   4.174 -0.1109  0.2095  0.0188
14856W        W30990   9.486  14.876  14.536  0.3755  0.3738  0.1092
14857W        W30991  13.849   0.305   1.066  0.0639  0.0948 -0.1559
14858W        W30992  18.189  14.634  14.097  0.0225  0.2280  0.0328
14859W        W30993  17.041   2.906   2.110 -0.2717 -0.0131 -0.0221
14860W        W30994  15.172   5.321   3.987 -0.0029  0.1708 -0.0725
14861W        W30995  12.752   1.233  13.898  0.0715 -0.1951  0.0707
14862W        W30996  16.158  11.271  11.986 -0.0559  0.0359  0.0110
14863W        W30997  16.911   7.347  10.780  0.0207 -0.0804 -0.0095
14864W        W30998  14.849  11.228  10.095 -0.0052 -0.1699  0.1114
14865W        W30999  14.401  14.169  14.625 -0.1502 -0.0344 -0.0565
14866W        W31000  15.104  15.050  11.120  0.1388  0.1780 -0.0164
14867W        W31001   2.342   9.523  14.023 -0.0787  0.2372 -0.2407
14868W        W31002  12.540   4.292   4.385 -0.0973 -0.0150  0.0002
14869W        W31003   5.781  14.891  15.197 -0.2343 -0.1038 -0.0426
14870W        W31004  16.416   0.820  12.934  0.1771  0.0953 -0.0468
14871W        W31005   0.956   7.093   4.802  0.3175  0.0674 -0.3795
14872W        W31006  16.426  18.381  13.055 -0.1392  0.1292 -0.0975
14873W        W31007   5.528   7.429  12.796  0.1694 -0.2207 -0.0480
14874W        W31008  10.070   0.355  13.023  0.0913  0.6459  0.0095
14875W        W31009  10.508  10.271  14.914 -0.3384 -0.0244  0.3305
14876W        W31010  16.527   5.956   2.744  0.2589 -0.2922  0.0432
14877W        W31011   1.351   6.634   2.852 -0.1978 -0.1528 -0.0529
14878W        W31012  11.558  18.603   5.040 -0.2449 -0.1087 -0.4560
14879W        W31013  18.812   8.576  12.058 -0.1395 -0.0868  0.5109
14880W        W31014   4.124  10.260   2.697 -0.3964 -0.0021 -0.1180
14881W        W31015  17.367  18.211  12.551 -0.3688 -0.0900  0.1630
14882W        W31016   0.600   2.447   0.516 -0.2347  0.0313 -0.3003
14883W        W31017   8.658   3.396  10.727  0.3315 -0.0030 -0.1006
14884W        W31018  10.402   7.374  11.641  0.2322 -0.5083  0.1429
14885W        W31019   3.420   7.734  13.529  0.4124 -0.0569 -0.0486
14886W        W31020   9.925  13.713  12.829  0.2789  0.2554 -0.1905
14887W        W31021  13.625   6.301   1.731  0.1339  0.0527 -0.2472
14888W        W31022   6.720  13.171  10.542  0.2292 -0.0038  0.0292
14889W        W31023  15.482   7.315   0.765  0.1592 -0.3129 -0.1505
14890W        W31024   9.720   8.770   3.863 -0.2330 -0.0570 -0.2191
14891W        W31025   0.522   2.450   3.939  0.0542 -0.1575  0.0508
14892W        W31026   3.799   1.147   1.565 -0.1390 -0.2849 -0.1455
14893W        W31027   3.054   6.716   5.568  0.1565  0.0058 -0.0522
14894W        W31028  15.327  17.163   2.876  0.0229 -0.0629 -0.1836
14895W        W31029   8.174   6.000   9.422  0.0981  0.0590  0.0467
14896W        W31030  10.667  16.157   3.585 -0.2375 -0.0963  0.3997
14897W        W31031   9.677  12.302   2.965 -0.1972 -0.1977  0.0494
14898W        W31032   5.703   9.251  11.886  0.1250 -0.1309  0.1017
14899W        W31033   2.472   4.748   0.180  0.1414 -0.1157 -0.3821
14900W        W31034  14.399   3.185  10.785 -0.2623  0.3352 -0.1009
14901W        W31035   8.291  15.503  14.917  0.0618  0.3787  0.0874
14902W        W31036  15.651  18.010  11.425 -0.4272  0.1797 -0.1908
14903W        W31037   7.724  16.323  14.983  0.3821 -0.1384 -0.1613
14904W        W31038   7.911  13.318   5.016  0.0704  0.0531  0.4887
14905W        W31039  11.564   5.629  13.436  0.0089 -0.0868 -0.0902
14906W        W31040  12.069  17.091   4.664  0.1843 -0.1112 -0.3331
14907W        W31041  14.324   2.045   5.460 -0.3991  0.0942 -0.0650
14908W        W31042   6.173   8.188   4.520 -0.0251 -0.2286  0.2214
14909W        W31043   1.389   3.897   2.741 -0.1781 -0.3082  0.1185
14910W        W31044   5.788   9.748  11.340  0.2530 -0.0870 -0.0820
14911W        W31045   1.631   5.180  10.940  0.2945  0.1154 -0.1665
14912W        W31046   4.083   5.682  10.738  0.0217  0.0129 -0.0771
14913W        W31047  13.921  16.573   0.557 -0.2572 -0.3497 -0.4441
14914W        W31048   8.005  14.802  13.829 -0.0034  0.2744 -0.0139
14915W        W31049   3.955   9.414   0.398 -0.0414 -0.0596 -0.1424
14916W        W31050   3.768   2.585  12.925 -0.1513 -0.1047 -0.1298
14917W        W31051   2.515   9.623   0.137  0.4057 -0.0554  0.1365
14918W        W31052  13.893  18.145   2.053  0.1946 -0.0290 -0.2296
14919W        W31053  14.851  16.938   9.662 -0.1119  0.2231  0.0115
14920W        W31054   0.007   4.438   3.303  0.1079 -0.1866 -0.0091
14921W        W31055   3.472  11.677  13.596  0.0434  0.1371 -0.1638
14922W        W31056  16.643  15.704   5.105  0.2394 -0.1486  0.3142
14923W        W31057   8.943  11.372  10.446 -0.1453 -0.2475 -0.0164
14924W        W31058  11.206   2.383  12.868  0.0658 -0.0586 -0.1395
14925W        W31059  10.990   1.858  14.049  0.1167 -0.1858 -0.1006
14926W        W31060   6.810  10.966   1.520  0.1814 -0.0254  0.1231
14927W        W31061  18.650   4.774   2.509  0.1656 -0.2754 -0.1718
14928W        W31062   1.544   0.803  14.120 -0.0831  0.0545 -0.1063
14929W        W31063   7.909   5.998   3.152  0.3214  0.1665  0.1108
14930W        W31064  10.861   4.149   2.802  0.1941 -0.4272  0.1727
14931W        W31065  11.850  14.293   4.298 -0.1126  0.1863  0.1818
14932W        W31066  10.395  16.759  11.688  0.2819  0.0373 -0.2053
14933W        W31067   3.216  12.717   0.373  0.2585 -0.1254  0.0647
14934W        W31068   0.102   0.696  12.763  0.2123 -0.1569 -0.0425
14935W        W31069   7.835  13.084   4.566 -0.1989  0.2964  0.0696
14936W        W31070   4.318  10.671  12.227  0.0960 -0.1028  0.1242
14937W        W31071  13.208   0.309  12.115 -0.0305 -0.2941 -0.4265
14938W        W31072  10.111  12.356  14.583 -0.1559 -0.0179 -0.0242
14939W        W31073   8.617   7.735   9.424  0.0392 -0.0077  0.0681
14940W        W31074   4.153   1.277   0.450  0.0662  0.1250 -0.0711
14941W        W31075   1.811   7.724  14.881  0.0487 -0.2062  0.0323
14942W        W31076   5.965  16.737   2.178 -0.1321 -0.1169  0.0764
14943W        W31077   2.004   2.577   0.781  0.4913  0.2854  0.1696
14944W        W31078   2.964   7.404   4.814  0.1462  0.0314 -0.1500
14945W        W31079  15.565   9.105   0.406 -0.0587 -0.2684 -0.2570
14946W        W31080  16.461   7.580  15.181  0.4829  0.0284 -0.1642
14947W        W31081   2.040  12.463   2.001  0.2482 -0.2034  0.4222
14948W        W31082   9.183  13.439   3.289 -0.1572 -0.1831 -0.0850
14949W        W31083  10.408   0.918   3.642  0.0358  0.0859  0.1190
14950W        W31084   0.174   7.842   4.347  0.0557 -0.1433 -0.3593
14951W        W31085   9.081  13.642   2.865  0.1932 -0.1925  0.3038
14952W        W31086   3.291   6.926   2.642  0.0565  0.0504  0.2255
14953W        W31087  17.124   9.708   2.448  0.0909 -0.1960  0.1857
14954W        W31088   8.577   1.436  14.104 -0.1313 -0.0696  0.1331
14955W        W31089   1.887   5.491  12.880 -0.0464 -0.0291  0.4365
14956W        W31090   6.157   0.587   5.091 -0.3557  0.1161  0.1379
14957W        W31091   1.144   9.642  13.559 -0.1962  0.2244  0.1046
14958W        W31092  13.312  18.256   4.289 -0.3650 -0.2372  0.2492
14959W        W31093   4.300   7.561   1.041 -0.0709 -0.1241  0.2542
14960W        W31094   0.357   2.759  14.211 -0.1252  0.0452  0.0034
14961W        W31095  13.788   5.881   1.576  0.0653  0.0614 -0.0505
14962W        W31096  18.798   8.860   1.061 -0.3217 -0.0863  0.2865
14963W        W31097   4.091  10.730  12.694 -0.1030 -0.0529 -0.4168
14964W        W31098  12.525   7.872  15.084  0.1766 -0.2518 -0.1131
14965W        W31099  14.514   3.060   0.596 -0.0028 -0.0389  0.2395
14966W        W31100  13.386   8.036  15.169  0.0126 -0.0502  0.2588
14967W        W31101  16.804  11.257  14.626 -0.0656  0.1567  0.0629
14968W        W31102  16.199  12.490   5.186 -0.2387  0.0844  0.0109
14969W        W31103   5.685   9.674   0.399  0.3006 -0.0404 -0.0236
14970W        W31104  11.563  10.635  14.960 -0.1972 -0.2934  0.1145
14971W        W31105  12.216  16.233   1.678  0.1355  0.0338  0.1668
14972W        W31106  18.758   7.201  10.804  0.2661 -0.1941  0.1875
14973W        W31107  11.411  18.684   0.527 -0.0019 -0.3474  0.1900
14974W        W31108   1.439  14.817  11.085 -0.1536  0.1536  0.3242
14975W        W31109   0.382   0.007  13.976  0.2113  0.0322  0.3282
14976W        W31110   4.490  14.491  14.910 -0.3100  0.2236  0.0894
14977W        W31111   3.496   4.627   1.710 -0.1358  0.0512 -0.1564
14978W        W31112  16.562  14.408  11.628  0.1165  0.1414 -0.0378
14979W        W31113   2.237   7.349  13.348  0.1387  0.3182  0.0510
14980W        W31114  14.418   8.822   1.499 -0.2244 -0.1058  0.2503
14981W        W31115  10.607  10.294   3.715  0.0098 -0.0247  0.1714
14982W        W31116  11.555   5.620   0.164  0.1338  0.1354  0.0504
14983W        W31117   8.715  14.359   4.038  0.1212  0.2029 -0.0274
14984W        W31118   4.852  11.742   9.784  0.2186  0.1022 -0.0102
14985W        W31119  18.056  15.467   1.564  0.0428  0.0172  0.2328
14986W        W31120   1.105  14.206   0.685 -0.1381 -0.0474  0.0219
14987W        W31121   7.580  10.419  14.665  0.0617 -0.2067  0.0476
14988W        W31122  17.697  14.501  11.936 -0.1212  0.0621  0.0459
14989W        W31123   9.921  17.402   1.479 -0.2813  0.0154  0.0347
14990W        W31124  15.310   5.009  12.765 -0.0636  0.3370  0.1799
14991W        W31125  10.783   3.781  10.907 -0.1333  0.1016 -0.2215
14992W        W31126   3.295   2.713   4.802  0.2134  0.2505  0.1991
14993W        W31127   5.552  12.127  15.068 -0.2359  0.4592 -0.1617
14994W        W31128  18.124   7.616   0.066  0.0064  0.0976 -0.1629
14995W        W31129   6.605   4.741   4.753  0.4487 -0.2529  0.3084
14996W        W31130   8.190  17.845  13.647  0.0310  0.2683 -0.0017
14997W        W31131   2.594  12.284  11.212 -0.1046  0.2472 -0.0743
14998W        W31132  12.902   3.897   1.099  0.0154 -0.3698 -0.0637
14999W        W31133   7.414  13.250  14.322 -0.2480 -0.1872 -0.0172
15000W        W31134  14.301   4.355   2.967  0.2600  0.0112  0.1322
15001W        W31135   6.538   2.838   4.286 -0.2133 -0.1630  0.0623
15002W        W31136   9.864  14.423  12.544  0.1236  0.2092 -0.1554
15003W        W31137   0.920  16.990  11.026  0.0964  0.0644  0.0740
15004W        W31138  17.961   0.835  10.895 -0.1031  0.1685 -0.0246
15005W        W31139  18.954  17.091   1.609  0.1028  0.1974  0.0140
15006W        W31140   5.433  11.747   2.776  0.0820  0.2765 -0.0505
15007W        W31141  10.793   5.351  13.049 -0.1007  0.1883 -0.1482
15008W        W31142   6.208  17.320  12.222 -0.0707 -0.0589  0.1713
15009W        W31143  14.415  14.240   3.247 -0.0377 -0.0657  0.5133
15010W        W31144   6.661   7.262   3.476  0.2175 -0.0759  0.4495
15011W        W31145   1.970   6.590   2.053  0.0420 -0.2339 -0.1557
15012W        W31146  14.659   9.187  10.244  0.0592 -0.4295  0.0283
15013W        W31147   7.823   2.669   4.548 -0.0018  0.2957  0.1167
15014W        W31148  13.466   6.960  15.239 -0.0859 -0.1460 -0.1901
15015W        W31149  17.405   1.911   4.250 -0.0905  0.2285 -0.0914
15016W        W31150  11.082  15.665  15.031 -0.0383 -0.2199 -0.1188
15017W        W31151  12.921  18.018   0.683  0.1282 -0.1272  0.1982
15018W        W31152  13.914  15.336   4.301  0.1494  0.1873  0.0985
15019W        W31153   4.214  16.761   2.751  0.2946  0.1357 -0.2122
15020W        W31154  11.217   4.453   0.665 -0.0506 -0.0586 -0.0509
15021W        W31155   5.811   1.150  11.603  0.0611  0.0039 -0.3648
15022W        W31156   0.615  15.078  14.187  0.4624 -0.1450 -0.1623
15023W        W31157   1.962  13.452  11.843  0.0373  0.2774  0.0479
15024W        W31158  12.096   7.822  13.312  0.2738 -0.0429 -0.0359
15025W        W31159   7.028   1.544   3.610 -0.1356  0.1067 -0.0762
15026W        W31160   4.593  15.611  11.774 -0.1587  0.2419 -0.0136
15027W        W31161   7.740  16.559   2.972  0.2629 -0.0083  0.5370
15028W        W31162  18.602   4.045  11.682 -0.1360  0.0368  0.2493
15029W        W31163  17.214   1.670  15.173  0.1941 -0.1709  0.1476
15030W        W31164  13.118  10.847   3.272 -0.1119 -0.2530  0.1490
15031W        W31165   3.814  16.476   0.498 -0.2643  0.2292 -0.2152
15032W        W31166  11.987   3.877   0.647 -0.2434 -0.0171 -0.2532
15033W        W31167  11.140   9.633  11.706 -0.0466  0.0017  0.0172
15034W        W31168  12.779  10.979  12.640 -0.2063  0.2362  0.0177
15035W        W31169  11.302  17.185   4.968 -0.1009  0.0291  0.1399
15036W        W31170   5.709  10.441  13.788  0.0839  0.3333  0.2272
15037W        W31171  10.863  12.711  15.259  0.2955 -0.4280  0.3598
15038W        W31172  10.286   9.989   1.660 -0.3791 -0.2206  0.2069
15039W        W31173  11.014  18.382   2.003 -0.1018 -0.2158 -0.1850
15040W        W31174  11.729   9.790   3.124 -0.2359  0.0306 -0.2298
15041W        W31175  14.760  10.385  12.161 -0.1079  0.0399  0.1321
15042W        W31176   3.393  10.421   3.932  0.0336  0.2322  0.1071
15043W        W31177   1.525  15.155  14.066 -0.3048  0.0329  0.0631
15044W        W31178   9.193  14.342  11.020 -0.2193  0.1407  0.0206
15045W        W31179   1.848   7.210  15.050 -0.0833 -0.3214 -0.1583
15046W        W31180   5.532   1.547   1.439  0.1915  0.0139  0.2010
15047W        W31181   2.535  10.686   1.883 -0.1998 -0.0076 -0.1226
15048W        W31182   6.512   1.309   3.653  0.2023  0.0574  0.2695
15049W        W31183  15.659   4.887  14.626  0.0045 -0.1715 -0.2362
15050W        W31184  12.174  16.051  10.372  0.1983  0.0667  0.1102
15051W        W31185   5.981   6.237  10.890 -0.0707 -0.1140  0.1186
15052W        W31186   0.485  15.707   0.500 -0.0188 -0.0802 -0.4077
15053W        W31187  17.013   5.065   3.337  0.0292 -0.0750 -0.1005
15054W        W31188  11.274   8.977   4.375 -0.1166 -0.2428 -0.1787
15055W        W31189   1.987   0.284   3.620 -0.0397  0.1008  0.0298
15056W        W31190   7.097   6.339  11.723  0.1620 -0.1931  0.1984
15057W        W31191   3.502  17.889   2.176  0.0906  0.2802 -0.3432
15058W        W31192  12.980   0.154   3.591  0.2602  0.0277  0.3859
15059W        W31193   6.574  10.138  11.922 -0.2765 -0.2009 -0.0851
15060W        W31194   3.871   6.071   1.894  0.0860 -0.2848  0.1132
15061W        W31195  17.117   3.030   2.587  0.2052  0.1734  0.3117
15062W        W31196  12.509  18.856   1.906  0.2386 -0.0513  0.3956
15063W        W31197  16.714   2.018  15.185  0.1934  0.4217  0.3038
15064W        W31198  18.288  11.081  14.128 -0.0930 -0.0612 -0.1882
15065W        W31199   4.371   0.691  12.322 -0.2487  0.2808 -0.2648
15066W        W31200  10.001  16.623   4.704 -0.3021 -0.2015  0.2547
15067W        W31201  13.198   5.607  14.807  0.3351 -0.0083 -0.2153
15068W        W31202  17.039  11.633  14.937 -0.2547  0.0320  0.1374
15069W        W31203   7.443   7.857   5.202 -0.3066  0.0135  0.0660
15070W        W31204  11.178   9.802   3.863 -0.0344 -0.2463 -0.0886
15071W        W31205   1.277  18.221   4.192  0.1328 -0.3408  0.2765
15072W        W31206  18.141  18.465   2.336  0.1072  0.3256 -0.0840
15073W        W31207   0.857  17.275  13.326 -0.0181 -0.0627  0.3737
15074W        W31208  14.207  18.640   3.925 -0.2112  0.3222 -0.3702
15075W        W31209   3.346   1.412   0.646  0.0066 -0.0011  0.0766
15076W        W31210  18.119  11.507   0.642 -0.2598  0.0246 -0.4013
15077W        W31211   2.169  16.869  11.725 -0.1046 -0.4046  0.2232
15078W        W31212  18.964   5.301  12.123  0.0861 -0.0747  0.1130
15079W        W31213   2.834   5.678   2.366  0.2367  0.0486  0.0008
15080W        W31214  12.956  13.903  12.928  0.2046 -0.1927  0.1357
15081W        W31215   5.061  17.296   4.212  0.0859 -0.2209  0.1792
15082W        W31216  15.152   7.259   3.538  0.2191  0.3363  0.1030
15083W        W31217  12.643   1.034  12.641  0.0191  0.0287 -0.0980
15084W        W31218   0.402  17.359   5.125  0.1596  0.0267  0.0251
15085W        W31219   5.227   2.459  10.251  0.0212  0.2880  0.0851
15086W        W31220  16.502   3.110  12.805  0.3697  0.0413 -0.1531
15087W        W31221   9.539   7.445   0.656  0.1702  0.1368 -0.4944
15088W        W31222  14.630   3.131  14.457 -0.0998  0.0398 -0.1002
15089W        W31223   6.827   6.988  12.497 -0.0431 -0.0957 -0.0425
15090W        W31224   1.886  17.171   5.326 -0.3936 -0.0659  0.2742
15091W        W31225   5.995  10.125  14.171 -0.2348  0.0581 -0.0338
15092W        W31226  18.839  16.796   0.497  0.0658 -0.0799 -0.0558
15093W        W31227  13.090  18.522  12.456  0.1236  0.0173 -0.1162
15094W        W31228  10.341   3.454   0.353  0.0546  0.0212 -0.0231
15095W        W31229   1.049  11.218  13.900 -0.2085 -0.0374  0.5035
15096W        W31230   1.798   7.432  13.634 -0.0048 -0.2027 -0.3211
15097W        W31231   7.633   1.217   4.494 -0.1741  0.0031  0.1413
15098W        W31232  14.170   6.339   2.887 -0.1322 -0.2809  0.0200
15099W        W31233  16.428  15.211  13.299  0.4713 -0.1043 -0.3866
15100W        W31234  10.534  18.148  13.876  0.2693  0.1150  0.1121
15101W        W31235  12.521  18.914  14.110 -0.2985  0.1429 -0.3373
15102W        W31236   9.145   7.300   1.772 -0.1742 -0.1933 -0.4218
15103W        W31237   5.664  17.522   5.507  0.1092  0.0564  0.2985
15104W        W31238   3.050   2.740  14.433 -0.1186 -0.2010 -0.2820
15105W        W31239  16.136  17.683  13.961  0.3276  0.1612  0.1246
15106W        W31240  16.442   7.259  10.905 -0.3035  0.0076  0.0139
15107W        W31241   2.243   0.575   1.901  0.0541 -0.0860  0.0468
15108W        W31242  12.593  10.092  13.907 -0.0672  0.0568 -0.2006
15109W        W31243   8.191  16.617   3.270  0.1183  0.0999 -0.1289
15110W        W31244   5.723   9.049   0.212 -0.0420  0.1905  0.0608
15111W        W31245   6.355   6.063   5.064  0.0924 -0.0124  0.0031
15112W        W31246  18.840   5.777   2.751  0.0444 -0.1081  0.0531
15113W        W31247  11.538   1.202  10.804  0.3011 -0.0368  0.0802
15114W        W31248   3.357  11.314  13.936 -0.3862 -0.1079 -0.2308
15115W        W31249  11.443  18.121   2.860  0.0269 -0.2772  0.1190
15116W        W31250   2.553  13.491   1.509  0.0635  0.2264  0.0279
15117W        W31251   2.551   8.263  12.631 -0.0822 -0.0414 -0.3117
15118W        W31252  11.117   8.400  11.723  0.0542 -0.0440 -0.2741
15119W        W31253   1.273   9.897   0.866  0.2302  0.2229 -0.1489
15120W        W31254   8.291   1.010   5.386  0.0671 -0.0172  0.1402
15121W        W31255   2.033  17.540  15.136 -0.0386  0.2766 -0.3267
15122W        W31256  16.902  14.294  14.936  0.0312 -0.2004 -0.0091
15123W        W31257   0.590   0.832  14.603 -0.1072 -0.0336 -0.0716
15124W        W31258  14.181   0.495   3.725 -0.5139  0.1583  0.0674
15125W        W31259  11.069   6.808  15.199 -0.0843 -0.0007 -0.3076
15126W        W31260   7.159   9.810  10.621  0.2520 -0.1694  0.3583
15127W        W31261  11.130   5.972   2.973 -0.0994  0.1504  0.2688
15128W        W31262  12.550  15.828   5.211 -0.4767 -0.0696 -0.0599
15129W        W31263  13.566   4.019  11.162  0.2980  0.2008  0.2299
15130W        W31264   6.574  18.872   3.385  0.0573 -0.0714 -0.1650
15131W        W31265   5.352   5.643   4.582  0.0197  0.1855  0.0440
15132W        W31266  12.549   3.836  12.781  0.0327 -0.1397  0.1873
15133W        W31267  15.799   9.739  13.387  0.1018 -0.0470  0.2116
15134W        W31268   2.446   7.534  13.783  0.0234 -0.0595  0.0571
15135W        W31269   1.603   2.780   4.166  0.1430 -0.3484 -0.4171
15136W        W31270  11.635   9.199  13.627 -0.0819 -0.5459 -0.0329
15137W        W31271   5.718  14.070   4.778 -0.0052 -0.1328  0.0830
15138W        W31272   9.564  10.722  11.367  0.0585 -0.4073  0.3417
15139W        W31273   2.514   3.273   3.762 -0.1891  0.0773  0.4241
15140W        W31274  16.363  10.157  14.588  0.2215 -0.4018  0.0072
15141W        W31275   4.707  12.717  14.704  0.1031  0.1109 -0.2122
15142W        W31276  16.706  16.925  11.022 -0.2221  0.0157 -0.0789
15143W        W31277   0.236   7.400  12.990 -0.2221  0.0127 -0.1510
15144W        W31278  14.657  15.310   1.289  0.0592 -0.0542  0.5033
15145W        W31279  12.243   6.955  14.235 -0.3921 -0.1571  0.2721
15146W        W31280  11.963   4.968  11.013 -0.0591 -0.3638  0.5472
15147W        W31281  12.632  18.852   2.881  0.0381 -0.2440 -0.3766
15148W        W31282  18.553  14.914   1.998  0.2033 -0.1332  0.1464
15149W        W31283  12.228  14.957  13.661 -0.2426  0.2388  0.1213
15150W        W31284   0.572   9.598   1.505 -0.1291 -0.2810 -0.4735
15151W        W31285  15.948  11.449  12.792  0.0340 -0.0112 -0.1063
15152W        W31286  10.864  11.804   3.060 -0.0905 -0.1806 -0.1143
15153W        W31287  14.939   7.673  11.282 -0.0297 -0.1212  0.4617
15154W        W31288   1.782   0.503   4.058  0.1282  0.1768 -0.0797
15155W        W31289  14.893  10.970   4.704 -0.1033  0.1441 -0.1335
15156W        W31290   2.684  11.487  12.276  0.0125 -0.1402 -0.1108
15157W        W31291   0.366  16.761  13.960  0.0470  0.2780  0.1333
15158W        W31292   5.252   1.854   0.620 -0.1297 -0.0589  0.0013
15159W        W31293   7.819   9.887  12.413 -0.1812 -0.1761 -0.1221
15160W        W31294  13.232  14.393   0.525 -0.3106  0.5223  0.2318
15161W        W31295   7.210  18.019   4.000  0.0603  0.3287 -0.0849
15162W        W31296  18.062  11.338   2.875  0.0291 -0.3694  0.0009
15163W        W31297  11.910   3.791   4.437 -0.0141 -0.1063  0.3355
15164W        W31298   0.340   1.301   0.546 -0.0244 -0.0706  0.0439
15165W        W31299   4.616   1.183   2.815  0.0136 -0.3537 -0.4198
15166W        W31300   4.844   2.001  12.378 -0.2320 -0.1379  0.1753
15167W        W31301  14.179  18.659   3.432 -0.1693 -0.4422  0.0922
15168W        W31302   7.230  16.438   0.796  0.0693  0.4347 -0.1784
15169W        W31303  15.106   3.576   4.644  0.1724  0.1083 -0.0680
15170W        W31304  15.897  11.708  11.897 -0.2186 -0.1033 -0.0862
15171W        W31305   6.494   1.484   1.183  0.0472 -0.1122  0.2308
15172W        W31306  12.968  13.627   2.469 -0.0637  0.1479 -0.0381
15173W        W31307   3.212  16.730   1.228 -0.2134 -0.0400  0.3062
15174W        W31308  11.864   5.676  10.159  0.0199  0.0140  0.2321
15175W        W31309   0.206   5.847  14.660 -0.3384 -0.3376 -0.5334
15176W        W31310   7.005   4.375  15.233  0.0199 -0.1950 -0.2360
15177W        W31311  10.829   5.564   4.649  0.1842  0.2974 -0.0434
15178W        W31312   4.978  15.934  11.956  0.1210 -0.1037 -0.0181
15179W        W31313   9.918   7.345  12.303 -0.0379  0.3359 -0.0883
15180W        W31314   7.884   9.008  11.181  0.3115 -0.0465  0.4247
15181W        W31315   0.410   8.492  11.304  0.0141 -0.1997  0.3473
15182W        W31316  16.555  17.498  13.782  0.3089  0.0159  0.2754
15183W        W31317   9.698   2.842   4.616 -0.2749 -0.1851  0.1977
15184W        W31318   8.950   8.448  14.663 -0.0003 -0.1982 -0.3840
15185W        W31319   5.028   1.681  11.702  0.0719  0.0236  0.0432
15186W        W31320  16.440   0.816   3.204 -0.5845 -0.0925  0.0549
15187W        W31321   7.139  11.444   0.316 -0.2191  0.3128 -0.0205
15188W        W31322   0.107   3.831  10.977 -0.1924 -0.0992 -0.2826
15189W        W31323   5.623   2.897  11.966  0.2097 -0.1563  0.4476
15190W        W31324   6.795   8.646  13.840  0.3297 -0.0636 -0.1520
15191W        W31325   7.898   8.969   1.778 -0.3426  0.2901 -0.1357
15192W        W31326   1.661  12.536   0.855 -0.0974  0.0725  0.3008
15193W        W31327  10.129   4.703  15.102 -0.1119 -0.1692  0.0252
15194W        W31328   3.397   2.204   4.153 -0.0843  0.3588 -0.1805
15195W        W31329  18.007  12.613  11.783  0.0867 -0.1791 -0.0982
15196W        W31330   6.772  13.143   1.632 -0.0419  0.1855  0.0870
15197W        W31331  18.396  10.378   4.124 -0.1248 -0.1598  0.1031
15198W        W31332   0.215  15.027   1.393 -0.0580 -0.0049  0.1188
15199W        W31333  13.586   1.914   0.955  0.2813  0.1515 -0.0549
15200W        W31334  10.034   2.926   3.752 -0.0241  0.1220 -0.0220
15201W        W31335  12.804   4.329  12.883 -0.2527  0.1550 -0.3254
15202W        W31336   7.977  17.482   1.093  0.0498  0.1274 -0.1190
15203W        W31337  10.964  13.406  15.240  0.0060  0.0468 -0.1358
15204W        W31338   1.180   4.943   4.159 -0.4204 -0.0450 -0.0573
15205W        W31339  16.261   4.595  10.796  0.0557  0.3181  0.1983
15206W        W31340  12.602   0.379   2.722 -0.3293 -0.2329 -0.0239
15207W        W31341   8.373   5.897  13.711  0.1187 -0.2512  0.0256
15208W        W31342  14.798   4.833  12.801  0.1024  0.0569 -0.1576
15209W        W31343  13.065   8.220  11.614 -0.2159  0.0228 -0.0510
15210W        W31344  11.504   2.991   3.495  0.2256 -0.1149  0.1566
15211W        W31345   3.044  11.935  13.538 -0.1487 -0.0135 -0.0196
15212W        W31346   6.403  15.994  10.983 -0.0046  0.0186  0.0039
15213W        W31347   9.746  11.805   5.034 -0.0171  0.1794  0.0440
15214W        W31348   1.313  16.006  13.735  0.1114 -0.0011 -0.0524
15215W        W31349   6.531   4.682  15.273 -0.1629 -0.0726  0.3183
15216W        W31350   6.664  12.290   0.485  0.0448 -0.0866  0.0766
15217W        W31351  14.028   0.004   0.366  0.1515  0.0628 -0.2552
15218W        W31352   7.053  12.149  12.858 -0.1365  0.0634 -0.0984
15219W        W31353  10.965   4.261  14.278 -0.2490 -0.0085  0.2665
15220W        W31354  16.914  16.201  14.195 -0.3323 -0.0852 -0.0650
15221W        W31355   8.722   4.332   0.111 -0.0019 -0.5072  0.0367
15222W        W31356  12.517   7.394   0.910  0.1063 -0.1763 -0.0383
15223W        W31357   2.987  16.887   1.705  0.0076 -0.1590  0.0536
15224W        W31358  13.775  10.206  14.039  0.1321  0.0699  0.0932
15225W        W31359   5.576   0.235  11.277 -0.0650 -0.0438  0.0309
15226W        W31360  10.061   0.604  12.199 -0.4458  0.0411  0.2657
15227W        W31361  17.341  18.276  11.710 -0.3919 -0.3264  0.1691
15228W        W31362  13.389  16.046  12.604 -0.1083 -0.1818 -0.0547
15229W        W31363   6.766   9.125   1.653 -0.0879  0.5297 -0.3113
15230W        W31364   2.041  10.497  12.731  0.3091 -0.0074  0.1066
15231W        W31365   6.672   5.092  14.077  0.2923  0.1510 -0.0631
15232W        W31366  15.011  18.225   4.055  0.0217 -0.3603 -0.2863
15233W        W31367  14.625   5.025  11.477  0.0409 -0.1450 -0.1188
15234W        W31368  16.135   5.561  11.910  0.1504  0.0982 -0.1548
15235W        W31369  10.849   7.691   2.500  0.0101  0.2971  0.3262
15236W        W31370  13.514   9.149  11.754  0.1498 -0.1154  0.1036
15237W        W31371   6.385  14.352   1.155  0.1184 -0.4817  0.2520
15238W        W31372  18.626  18.476   1.115  0.0164 -0.1848  0.1533
15239W        W31373  13.949   1.852  12.054 -0.0727 -0.0312 -0.0498
15240W        W31374   6.263   5.875  13.551 -0.2148 -0.1340  0.2123
15241W        W31375  11.748   6.358   4.197  0.0951 -0.0850  0.3421
15242W        W31376  15.368  15.871  11.401 -0.0009  0.0148  0.2733
15243W        W31377   2.679   9.920   3.351 -0.3259 -0.2990  0.0273
15244W        W31378  10.751  11.534  12.026 -0.2916  0.0447  0.0226
15245W        W31379   2.278  11.393   0.884 -0.1164 -0.0347 -0.0801
15246W        W31380   4.127  11.330   0.989 -0.1364 -0.1835 -0.1480
15247W        W31381  15.247   9.052  13.312 -0.0878 -0.2872 -0.1407
15248W        W31382   9.915  14.333  15.011 -0.0314 -0.3480  0.2671
15249W        W31383   9.631   0.506   3.800  0.2217  0.0856 -0.1717
15250W        W31384   7.019   3.183   1.657 -0.1510  0.2226 -0.0485
15251W        W31385   1.864  15.972  12.680 -0.3220 -0.0926 -0.0295
15252W        W31386   1.178   4.186   3.833 -0.0620 -0.0115  0.1064
15253W        W31387   3.912   7.823  11.471  0.2801 -0.2213  0.1947
15254W        W31388  14.852  11.205   1.323  0.3625  0.1038 -0.0531
15255W        W31389  14.243   6.998   3.540  0.1526  0.0966 -0.1215
15256W        W31390  15.174  12.399  13.278  0.2461 -0.1515 -0.1570
15257W        W31391   7.476   7.723   3.530 -0.2917 -0.1783 -0.1883
15258W        W31392   6.967  16.084   4.226 -0.2011  0.1672 -0.3918
15259W        W31393  13.595  10.835   5.348 -0.1297  0.0388  0.1566
15260W        W31394   1.597  17.929   2.273 -0.0504  0.1039 -0.0438
15261W        W31395   2.425   5.824  14.422  0.1136  0.0512 -0.1801
15262W        W31396  16.121  18.409  12.137  0.0765  0.2872  0.0230
15263W        W31397  14.272  10.450  11.207  0.2351  0.2643  0.1435
15264W        W31398   4.258   2.520   3.989 -0.0426  0.0749  0.2452
15265W        W31399  16.210   1.389   1.916  0.3330  0.1196 -0.1522
15266W        W31400   6.512   4.103  10.801  0.0048 -0.0305  0.0409
15267W        W31401   5.172   7.178  14.063  0.0657 -0.0696 -0.0130
15268W        W31402  15.979   7.382   0.852 -0.1243  0.0936 -0.0925
15269W        W31403   9.260   4.584  12.122  0.3355  0.1277 -0.1515
15270W        W31404  18.572   4.044   5.412 -0.2173 -0.1121 -0.0052
15271W        W31405   9.957   2.084  11.578  0.3197 -0.0711  0.2258
15272W        W31406  11.797   4.093  12.170  0.1722 -0.0515  0.1859
15273W        W31407  12.631   2.273  14.647 -0.0162  0.0985  0.3306
15274W        W31408  17.214   0.702   2.524 -0.0244  0.1730  0.2702
15275W        W31409  14.814  17.231  12.318 -0.1887  0.0491 -0.0541
15276W        W31410   8.681   0.626  13.654 -0.3635  0.2172 -0.0771
15277W        W31411  12.158  10.396   2.382 -0.0122 -0.4626 -0.1670
15278W        W31412  16.544   4.338  11.668  0.1293 -0.1516 -0.3125
15279W        W31413   9.117   0.524  11.403 -0.1584 -0.1213 -0.0617
15280W        W31414  10.766  12.499  12.712 -0.0686 -0.0363  0.1671
15281W        W31415   3.582   9.143  15.255  0.0318 -0.2371  0.2351
15282W        W31416  17.770  12.940   4.061 -0.5153 -0.2950 -0.4560
15283W        W31417   6.105  10.331  14.729  0.0569 -0.1154 -0.1585
15284W        W31418  18.035  15.748   3.371  0.2264  0.0372  0.0192
15285W        W31419  15.774   1.771   2.679  0.0941 -0.1206 -0.0599
15286W        W31420   8.750  12.804   2.755 -0.0924 -0.2999  0.0298
15287W        W31421   5.709   3.753   3.641 -0.0608  0.3114 -0.3193
15288W        W31422   4.030  18.775   1.769 -0.1138 -0.0447 -0.2403
15289W        W31423   2.121  16.117  13.613  0.1943  0.1592  0.0102
15290W        W31424   5.604  15.258   3.519 -0.0109  0.3831 -0.0743
15291W        W31425   1.901  14.075   0.286  0.0820 -0.3526  0.2687
15292W        W31426   9.526  16.645   2.978 -0.0190 -0.1562 -0.3040
15293W        W31427   9.335  17.581  14.521 -0.2508  0.0862  0.0364
15294W        W31428  11.713   0.596   2.061 -0.0062  0.0991  0.2167
15295W        W31429   7.655  13.851  14.192  0.1609 -0.2682 -0.0887
15296W        W31430   8.803  12.770  14.408  0.2148 -0.0530 -0.1889
15297W        W31431  12.978   0.483   0.953  0.0438 -0.3223  0.0599
15298W        W31432  16.945  14.284  13.592  0.1837  0.1078  0.0244
15299W        W31433  13.803  11.090   2.172  0.0228 -0.0436 -0.1633
15300W        W31434  10.925  13.299  11.846  0.4695 -0.1094 -0.0471
15301W        W31435   9.425  12.834   3.276  0.0755  0.0410  0.0556
15302W        W31436   9.387   4.570   3.217  0.1724  0.2409  0.2599
15303W        W31437   0.363   1.268  15.159  0.0870 -0.1108  0.0690
15304W        W31438  18.312   6.950  15.019  0.0573 -0.0998  0.3962
15305W        W31439  17.674   5.739   2.590  0.1244  0.2050  0.1510
15306W        W31440   7.700  14.286  11.396  0.1224  0.2558 -0.0625
15307W        W31441  12.093   5.353  13.341  0.2147  0.2309  0.1350
15308W        W31442   0.091  15.115   5.031 -0.1214 -0.1099 -0.2397
15309W        W31443  14.258   9.155  14.695  0.1872 -0.1243 -0.0482
15310W        W31444   6.660  11.249  14.130  0.2980 -0.1923 -0.0487
15311W        W31445   2.963  13.562  15.252 -0.0341  0.3818 -0.0468
15312W        W31446  12.499   9.046   2.457  0.2343  0.2327 -0.1975
15313W        W31447  11.076  12.529   4.404  0.0840 -0.3469 -0.1781
15314W        W31448   3.222  10.233  11.834 -0.0378  0.2402  0.0882
15315W        W31449   2.181   0.751  10.976  0.0507  0.4495 -0.0789
15316W        W31450   0.576  11.757  14.656 -0.1944 -0.1750 -0.3546
15317W        W31451  16.254   8.403  14.730 -0.1041  0.1663  0.4818
15318W        W31452  12.505  11.757  12.012  0.0232 -0.4007 -0.1140
15319W        W31453  10.900  17.141  12.538  0.2479  0.3372  0.0098
15320W        W31454   4.475   8.976  14.255  0.1339  0.0793 -0.0874
15321W        W31455   4.297  15.164  12.826 -0.1273  0.1110  0.2914
15322W        W31456  11.961   9.273   3.630 -0.1570  0.0210  0.1654
15323W        W31457  15.875   0.593   4.965 -0.1597 -0.1313 -0.4466
15324W        W31458   4.636  15.439   0.173  0.1532  0.1517  0.0731
15325W        W31459   8.021  18.997   3.258 -0.1852  0.1729 -0.1087
15326W        W31460  10.898   4.874  11.464  0.2116  0.5076  0.0145
15327W        W31461   6.401   8.526  14.848 -0.0448 -0.1150  0.2620
15328W        W31462   1.370   9.773  12.238  0.1105  0.0396 -0.0877
15329W        W31463  17.204   6.205  11.057 -0.0197  0.1242  0.5001
15330W        W31464   8.061  13.112  14.189 -0.1825 -0.0913  0.0494
15331W        W31465   6.561  16.336   1.100 -0.1038  0.1208  0.0214
15332W        W31466  10.562   9.964  10.715  0.2181 -0.0967  0.0997
15333W        W31467  17.230   3.676  10.889 -0.1618 -0.0705 -0.0131
15334W        W31468   2.781   0.187  13.996  0.4095 -0.0317  0.0858
15335W        W31469   1.683  17.508   4.059 -0.0069  0.0090  0.1139
15336W        W31470   5.629  10.192  14.482 -0.1175 -0.2122 -0.1165
15337W        W31471   5.595  17.667   3.508 -0.0588  0.2253  0.1869
15338W        W31472  17.453   7.962  15.218  0.1767 -0.1232 -0.0156
15339W        W31473  18.352  10.064  12.677  0.2254 -0.0848 -0.2146
15340W        W31474  10.541   5.163   3.833  0.2023  0.0625 -0.1327
15341W        W31475  12.122   3.663   2.182 -0.1498  0.0657  0.2663
15342W        W31476  13.140  15.217   1.685 -0.1215  0.1013 -0.1920
15343W        W31477  11.502   0.404   2.895  0.0918 -0.1997 -0.1018
15344W        W31478   2.972  18.966  12.341 -0.0438 -0.1007 -0.1356
15345W        W31479   0.765   2.902   4.619  0.0628 -0.3867  0.1174
15346W        W31480   9.366  13.019  14.863  0.0302 -0.2901  0.4669
15347W        W31481   2.580   4.976  10.520 -0.0768  0.1576  0.0566
15348W        W31482   5.898  13.012   1.287  0.0984  0.0044 -0.0709
15349W        W31483   0.516   5.118   2.894 -0.2179  0.0338  0.0190
15350W        W31484  15.459   9.488   3.231  0.0027  0.2959 -0.0568
15351W        W31485  12.779   9.162   2.828  0.2402 -0.0496  0.2627
15352W        W31486  18.354  15.579   1.971 -0.3341  0.2013 -0.2771
15353W        W31487   5.864  11.582  12.282 -0.1231  0.1528 -0.0535
15354W        W31488   0.831  14.790  12.465 -0.0117  0.2282  0.1684
15355W        W31489  13.489  11.849  15.285 -0.0870  0.2879  0.3396
15356W        W31490   8.481  11.424   3.613  0.1260  0.0030  0.2284
15357W        W31491  13.171   0.601  11.689  0.1178  0.1175  0.4235
15358W        W31492   7.154   4.883   0.829 -0.0589 -0.0203 -0.1501
15359W        W31493   4.271  12.339   2.549 -0.0313 -0.1129 -0.1677
15360W        W31494   8.715  16.997   0.216 -0.2043 -0.0359  0.2227
15361W        W31495  11.571   1.533  11.235 -0.0842 -0.0439 -0.1861
15362W        W31496   1.414   9.053   0.331  0.1929 -0.0121 -0.1177
15363W        W31497   4.253   0.388   0.080 -0.1163 -0.0736  0.2145
15364W        W31498   0.209  18.546   0.926 -0.0789  0.0496  0.2807
15365W        W31499   2.027   9.614  13.683 -0.2202 -0.1461 -0.0516
15366W        W31500  18.164  14.162   2.547  0.0114 -0.0635  0.2135
15367W        W31501  14.446   9.897   4.454  0.1417 -0.0710 -0.4855
15368W        W31502   7.596   2.338  14.734  0.1252  0.2025 -0.0895
15369W        W31503   9.210   5.690  12.254  0.1006 -0.0015  0.0773
15370W        W31504  10.314  10.091   4.130  0.0965  0.3607  0.1481
15371W        W31505   7.953   7.965  13.482  0.2425  0.0740  0.0868
15372W        W31506   9.499  16.872   0.806  0.2847  0.1505  0.2494
15373W        W31507   0.509   5.968  13.597 -0.0957  0.2361 -0.4163
15374W        W31508   7.890   3.202   1.248 -0.0961 -0.1911  0.0561
15375W        W31509   8.531   7.295  12.602 -0.0950 -0.2278  0.1030
15376W        W31510  11.986  13.321  14.207 -0.1711 -0.0088  0.1679
15377W        W31511  12.817   1.485   0.490  0.0863 -0.2246  0.0240
15378W        W31512   9.984   0.183   2.089  0.0674 -0.4670  0.0248
15379W        W31513  14.550  14.797  13.750 -0.2206 -0.2209 -0.1013
15380W        W31514  16.283   3.211   3.926 -0.0705 -0.0988  0.0233
15381W        W31515   3.782   1.257   4.372  0.2647  0.1515 -0.2646
15382W        W31516   1.950  11.940  12.186 -0.1173  0.1196 -0.2374
15383W        W31517  11.916  15.850   2.557  0.0338 -0.1988  0.0980
15384W        W31518   4.041  11.841   0.116 -0.2680 -0.0187 -0.0725
15385W        W31519  15.932   5.049  10.022 -0.0292 -0.3003  0.3291
15386W        W31520  14.430  14.373   5.769  0.2559 -0.0055 -0.1956
15387W        W31521   1.313   5.335  12.726  0.1848 -0.2057 -0.0476
15388W        W31522   1.640   0.035  13.865 -0.0605  0.2459 -0.0863
15389W        W31523   4.194   0.038  10.976  0.2685  0.2361  0.1256
15390W        W31524   7.439   7.867  15.081  0.3326 -0.1283  0.3285
15391W        W31525  16.302  15.264   1.101 -0.0053 -0.0380  0.0225
15392W        W31526   3.691   5.297   3.961 -0.1285  0.1558  0.1559
15393W        W31527  14.864   6.799   1.794 -0.2149  0.1839 -0.0831
15394W        W31528   9.584  11.471  10.289  0.2224  0.2404 -0.1583
15395W        W31529   3.023   8.266   4.500  0.0845 -0.1588  0.1003
15396W        W31530  16.757   6.507   4.640 -0.0620  0.2943 -0.3859
15397W        W31531  12.926  10.062   3.783  0.0811  0.0327 -0.0741
15398W        W31532  11.361  11.926   1.213  0.4083 -0.1819 -0.0331
15399W        W31533   9.281   4.304   4.082 -0.0557 -0.0293  0.1019
15400W        W31534  14.684   6.684  11.249  0.2185  0.0404 -0.1737
15401W        W31535  11.622   3.268  13.321  0.1139 -0.3154 -0.0357
15402W        W31536  10.672   3.939   4.840 -0.2779 -0.5170 -0.0717
15403W        W31537   3.341   1.564   2.329  0.0128  0.3698  0.4106
15404W        W31538  10.791  15.304   3.117 -0.0024 -0.1147  0.0300
15405W        W31539  17.695  12.569  14.956 -0.1469  0.3052 -0.0554
15406W        W31540  14.778  13.043   4.589 -0.0404 -0.0614 -0.0049
15407W        W31541  16.659  17.005  12.307  0.3011  0.0206 -0.1538
15408W        W31542  15.627  14.518  12.597 -0.2791 -0.2746 -0.1482
15409W        W31543   3.429   8.212   2.614  0.2744 -0.2237  0.2110
15410W        W31544   7.142  18.198   2.105 -0.1148 -0.0111  0.2066
15411W        W31545   3.511   7.308  13.191  0.1373 -0.0857 -0.2502
15412W        W31546   7.073  14.765   4.759  0.2307 -0.1169  0.0424
15413W        W31547  10.157  13.859   2.922  0.0412 -0.1578  0.1306
15414W        W31548   6.920   1.862   1.892 -0.0026  0.0245  0.3450
15415W        W31549   4.880   5.737   3.142  0.0570  0.3967 -0.0524
15416W        W31550   0.769   1.326  14.661 -0.0890  0.2487 -0.0460
15417W        W31551   2.381   8.472   3.595  0.3314  0.2618 -0.0903
15418W        W31552   0.110   9.667  11.378  0.1356  0.1413 -0.2530
15419W        W31553   1.556  18.511   1.484  0.0908 -0.0797 -0.0019
15420W        W31554  16.946  10.875   3.514 -0.0922  0.2901 -0.0005
15421W        W31555  18.281   2.768   0.945 -0.1265  0.2292  0.1090
15422W        W31556   5.203   3.153  13.592  0.3292 -0.3027 -0.0606
15423W        W31557  14.789  13.443   0.409 -0.2641  0.3815  0.2525
15424W        W31558   8.046   7.139   3.394  0.2830  0.2028 -0.0577
15425W        W31559  15.667   3.207  12.044 -0.0876 -0.2914  0.1465
15426W        W31560  10.826  13.444  10.053  0.3275 -0.0956  0.3042
15427W        W31561   1.949   7.557   1.691 -0.1197 -0.0866 -0.3432
15428W        W31562  12.737  17.032   0.607 -0.2271  0.0482  0.1702
15429W        W31563  18.411   0.145   3.311  0.0053  0.0233  0.0574
15430W        W31564   4.102   8.837   4.855  0.0408 -0.1264 -0.2175
15431W        W31565  16.286   7.594  13.022 -0.0610  0.0137 -0.1616
15432W        W31566   8.006  14.459   3.482 -0.4062 -0.1174  0.0835
15433W        W31567   5.467   2.476   3.072 -0.0451  0.0185  0.3295
15434W        W31568  11.792  10.226  13.606  0.0618  0.1778  0.1792
15435W        W31569   6.253  16.578   4.394  0.0253  0.0385  0.0870
15436W        W31570   7.300   3.740  14.771 -0.2051  0.0384 -0.0769
15437W        W31571   5.914  10.804  11.820  0.0928 -0.0558 -0.4418
15438W        W31572   2.377  16.501  13.758  0.2847  0.1501  0.3416
15439W        W31573  11.875  12.670   2.203  0.0850 -0.0989 -0.1548
15440W        W31574  13.104   8.937  10.469  0.2907 -0.1336 -0.0952
15441W        W31575  16.112   5.210   0.091 -0.1337  0.1391 -0.0602
15442W        W31576   3.188  15.944  10.003  0.2405  0.0854  0.0951
15443W        W31577   6.991  16.155   3.272  0.2292 -0.2095 -0.2831
15444W        W31578  11.072  16.862   2.164 -0.0921 -0.1650  0.1177
15445W        W31579   7.656   5.623   2.891 -0.1627 -0.1928  0.1746
15446W        W31580   0.057  15.014  12.889 -0.1687  0.2232  0.1915
15447W        W31581   9.430  13.367   5.263  0.0444  0.3043 -0.0320
15448W        W31582   0.371   0.390  12.358  0.2473  0.1107 -0.0778
15449W        W31583  18.387  10.349  11.273  0.0294  0.0888  0.2015
15450W        W31584  11.124  15.817   3.767 -0.0141 -0.1464 -0.1303
15451W        W31585  15.614   1.968  15.260 -0.2093  0.0324 -0.0383
15452W        W31586   7.742  18.140  12.848 -0.5607  0.1083 -0.2239
15453W        W31587   1.040   4.221   2.928 -0.1171 -0.2608  0.0906
15454W        W31588   0.910   2.462   1.492  0.3151  0.0717  0.1065
15455W        W31589   9.176   0.024   4.519  0.0446 -0.2573  0.1209
15456W        W31590   0.063  16.527   2.360 -0.1865  0.1370 -0.0344
15457W        W31591   5.023   9.911   3.247 -0.4644 -0.0614 -0.1888
15458W        W31592  11.058  14.711   4.316 -0.1647  0.0376 -0.0275
15459W        W31593   9.090  12.466   5.510 -0.1139 -0.1595  0.1081
15460W        W31594  18.034  10.026  15.197 -0.1978  0.0135  0.2265
15461W        W31595   4.176   4.119  12.871 -0.2223 -0.0279  0.2556
15462W        W31596   2.642   7.659  14.617 -0.0370  0.0641 -0.4220
15463W        W31597   0.305  12.857  11.549 -0.1246  0.1536 -0.1725
15464W        W31598  15.805   4.378  14.643  0.0382 -0.1908 -0.0427
15465W        W31599   6.800   9.280   4.176  0.0032 -0.1658 -0.1407
15466W        W31600  10.023  18.306  13.903 -0.0214 -0.3463 -0.4267
15467W        W31601   5.951  10.944   2.062 -0.1354 -0.1130  0.0743
15468W        W31602  17.228   3.231  12.166  0.0927 -0.1393 -0.2163
15469W        W31603  18.608   6.751  13.022  0.3111  0.1000 -0.3599
15470W        W31604   1.013   6.456  12.957  0.0462 -0.0914 -0.3391
15471W        W31605  10.143  18.150  14.521 -0.1315 -0.2101  0.0134
15472W        W31606  18.140  10.658   3.741  0.0452  0.1484 -0.0918
15473W        W31607  14.363   3.192   4.918  0.0282 -0.1415 -0.0406
15474W        W31608   1.537  18.873   1.960  0.0579 -0.1490 -0.0664
15475W        W31609   9.964   5.159  15.193  0.0735  0.0688 -0.0443
15476W        W31610  15.952  18.411   1.222 -0.3648 -0.0975  0.0588
15477W        W31611  14.868  12.049   2.674  0.0990 -0.1344 -0.0606
15478W        W31612   0.959  16.263  14.670  0.1661  0.2010 -0.0507
15479W        W31613  18.617  10.401  13.884  0.2409 -0.0589 -0.1592
15480W        W31614   8.154   0.195   4.544 -0.1110  0.1928 -0.0064
15481W        W31615  17.225  10.743  11.785  0.0505  0.2084 -0.2205
15482W        W31616   9.169   8.041  12.484  0.0142 -0.0335 -0.0003
15483W        W31617  13.512   3.759  15.186  0.0125  0.2449  0.1919
15484W        W31618  15.515  12.179   3.074 -0.0144 -0.1289 -0.0441
15485W        W31619   2.640  11.357  14.716  0.0002 -0.1783 -0.0933
15486W        W31620  15.917   7.546  12.650 -0.0359  0.1505  0.0659
15487W        W31621  13.625  11.306   5.639  0.2297  0.0919  0.3201
15488W        W31622  12.373   3.873   4.289  0.0623  0.0237 -0.1006
15489W        W31623   6.490   7.382  11.438  0.1104 -0.2645  0.1216
15490W        W31624   9.556   9.143  15.102  0.0438 -0.0124 -0.2386
15491W        W31625  18.879  10.566  13.419  0.1061 -0.0502 -0.0991
15492W        W31626  18.240  17.624   5.561  0.1914 -0.0769 -0.1305
15493W        W31627   1.372  18.086   4.830  0.0656  0.0144 -0.0359
15494W        W31628   4.988   2.867  12.015 -0.1086 -0.3268  0.0100
15495W        W31629   8.372  14.748   1.160 -0.0031 -0.1859 -0.1364
15496W        W31630  10.268   7.086  14.103 -0.2578  0.1821  0.0028
15497W        W31631   3.682   0.505  10.327 -0.1072 -0.1134  0.1041
15498W        W31632  15.379   9.338  12.292 -0.0538 -0.1284  0.0595
15499W        W31633  12.499   5.688   3.585 -0.2670  0.3426 -0.1056
15500W        W31634   3.080   4.588   1.274  0.0671 -0.0493 -0.1872
15501W        W31635   6.032   5.290  13.761 -0.3398  0.1925 -0.0074
15502W        W31636  18.607   6.689  10.863  0.0542  0.0184 -0.3008
15503W        W31637   7.292   5.087   9.917 -0.0885 -0.1087 -0.0895
15504W        W31638   8.941   7.725  14.289 -0.1571  0.1995 -0.0252
15505W        W31639   5.616  12.096  13.616 -0.1181  0.1705  0.0115
15506W        W31640   1.413  10.071   2.278 -0.0812 -0.1906 -0.1623
15507W        W31641  12.166  16.112   5.130  0.3177 -0.3334  0.0258
15508W        W31642   9.187  15.478   3.270  0.1192 -0.1425 -0.0287
15509W        W31643  15.056  17.969  11.617 -0.1375 -0.1372  0.2606
15510W        W31644  11.102   7.068  14.045 -0.3810  0.0991 -0.0191
15511W        W31645   6.997  14.693  10.615 -0.0628  0.2067  0.0489
15512W        W31646  11.965  11.885   9.416  0.1083  0.2878 -0.0475
15513W        W31647   6.375   8.020  10.086 -0.1454 -0.0855 -0.4504
15514W        W31648  16.199   1.658  13.930  0.0290  0.5492 -0.2059
15515W        W31649   5.513   6.346   2.752  0.1052 -0.1014  0.1240
15516W        W31650   9.755  12.433  11.770  0.2513  0.0345 -0.3717
15517W        W31651  15.458   3.354   1.872  0.2774  0.2610  0.1201
15518W        W31652   8.118  13.594  13.965 -0.1764  0.2284  0.2109
15519W        W31653   0.912  14.902   2.049  0.2193  0.3429  0.4308
15520W        W31654  16.369   6.579   2.226  0.1038 -0.1156  0.1380
15521W        W31655   5.921   8.936  13.443 -0.1326 -0.1640  0.0174
15522W        W31656  11.917  13.107   2.485 -0.1523 -0.0645  0.1262
15523W        W31657   2.595   0.627  11.881  0.4425  0.0685  0.1894
15524W        W31658   5.408  14.947   4.917  0.0117 -0.0171  0.2391
15525W        W31659   8.315  11.159   2.327 -0.1546  0.1612 -0.3301
15526W        W31660   2.344   0.803  13.935 -0.1735  0.2537  0.0178
15527W        W31661   4.757   9.112  11.651 -0.0880 -0.0898  0.0550
15528W        W31662   7.051   9.276   0.861  0.0548 -0.1178 -0.1139
15529W        W31663   7.685   3.438  11.825  0.0226  0.3946 -0.0455
15530W        W31664   4.479   3.919  14.874  0.1258  0.2347 -0.0256
15531W        W31665   7.281  16.839  11.594  0.3335  0.0518  0.2384
15532W        W31666   7.798   0.510   0.928  0.1184  0.0315 -0.0330
15533W        W31667  15.331  16.982   3.455 -0.0912  0.3520 -0.1999
15534W        W31668  13.306  10.437   3.046 -0.5010  0.0529 -0.2990
15535W        W31669   6.093   1.070   2.116 -0.1591 -0.2113 -0.1409
15536W        W31670  17.186  18.608  10.860  0.2156 -0.3184 -0.1242
15537W        W31671   2.963   0.774   5.615  0.0162  0.0176 -0.0442
15538W        W31672  13.220  13.308   4.949  0.0762 -0.1394  0.0079
15539W        W31673   8.119   0.668  13.622 -0.0890  0.4084 -0.2231
15540W        W31674   1.432   3.402   9.531  0.0561 -0.4170  0.2816
15541W        W31675   7.264  16.702  13.421  0.0545 -0.1660 -0.0898
15542W        W31676  15.443   4.760  13.401 -0.0859  0.0555 -0.0391
15543W        W31677   4.650   1.841   0.081 -0.2643 -0.0767  0.1473
15544W        W31678   2.579   2.458  11.628  0.0275 -0.1449  0.0846
15545W        W31679  17.652  15.311   5.262  0.1813 -0.2736  0.0370
15546W        W31680   6.238  11.419   2.896 -0.0694 -0.1692  0.0105
15547W        W31681   4.439  16.859  13.174 -0.3042 -0.1018  0.0927
15548W        W31682   1.909   8.894   0.347 -0.3227 -0.0381 -0.2224
15549W        W31683  11.936  10.441   5.415  0.2416 -0.3573  0.0268
15550W        W31684   9.370   3.902   5.045 -0.0149  0.1532  0.2513
15551W        W31685  15.412   6.132   0.072  0.1466 -0.0909 -0.2834
15552W        W31686  14.905   6.447  14.715  0.1401  0.3805 -0.0775
15553W        W31687  13.223  15.350   0.118 -0.1114  0.0871 -0.1753
15554W        W31688   9.649   2.182  10.958  0.0265  0.2589 -0.1903
15555W        W31689  16.568  17.313  14.833 -0.0510 -0.2243  0.1107
15556W        W31690   2.203   3.135   4.826  0.1361 -0.0881 -0.0369
15557W        W31691  11.480   1.550  13.980  0.0030 -0.0469 -0.0740
15558W        W31692   8.873  12.255   3.652 -0.0764  0.0429 -0.0807
15559W        W31693   1.263   4.803  11.906  0.1426  0.1986 -0.4726
15560W        W31694   5.197  16.947  13.518 -0.1481 -0.0291 -0.1440
15561W        W31695  10.847   4.393   0.225 -0.1033 -0.1443  0.1274
15562W        W31696  14.634  13.804  11.542 -0.3912  0.0845 -0.0392
15563W        W31697  11.997  13.815  11.849 -0.2058 -0.0744 -0.1187
15564W        W31698  18.242   5.808  11.148  0.0099  0.4030 -0.2623
15565W        W31699   4.196  13.287  14.049 -0.1697  0.0816  0.1832
15566W        W31700   7.822   1.441   0.958 -0.0841  0.1650 -0.0358
15567W        W31701   1.034  18.046   1.467  0.3141 -0.2330  0.0112
15568W        W31702   5.151   1.501  13.229 -0.1083  0.0022 -0.0690
15569W        W31703  10.935   7.994   5.023  0.3108 -0.0556 -0.1883
15570W        W31704   9.178   0.121  11.943 -0.3007  0.0187  0.1201
15571W        W31705   8.716   3.710  11.334  0.0510  0.0735  0.0911
15572W        W31706  14.913   8.835   2.271  0.1699 -0.3133 -0.0799
15573W        W31707   3.305  18.284   1.337  0.1579  0.0420  0.1085
15574W        W31708   9.600   5.610  10.050  0.0444 -0.0852 -0.0072
15575W        W31709  13.068   2.387   4.130 -0.1807 -0.2786  0.1963
15576W        W31710  13.357   3.192   0.709 -0.1779 -0.1801 -0.4311
15577W        W31711  14.492   9.655   3.769  0.0828  0.0866 -0.0843
15578W        W31712   0.319   5.552  11.060 -0.1271 -0.0782  0.0181
15579W        W31713  18.375  16.175  13.373  0.2175 -0.2772 -0.0860
15580W        W31714   6.229  18.471   5.232 -0.0913 -0.0142 -0.1635
15581W        W31715  16.050   1.193   4.080 -0.0648 -0.0250 -0.0660
15582W        W31716   8.820   3.730   3.094  0.3610  0.1005 -0.0007
15583W        W31717   3.868  17.798   1.622  0.3330  0.1847 -0.0960
15584W        W31718   7.674   7.338  12.325 -0.0470 -0.1090 -0.2352
15585W        W31719   8.170   7.764   0.753  0.0460  0.0183 -0.1131
15586W        W31720   7.176   5.240  12.396 -0.0298  0.1374  0.2096
15587W        W31721   5.017  11.149  14.623  0.1898  0.0698 -0.0253
15588W        W31722   4.580   5.192  10.325 -0.0574 -0.2078  0.2756
15589W        W31723   3.679  15.241  11.498 -0.0148 -0.2409  0.0015
15590W        W31724   6.095   4.027  13.796  0.2655  0.2619  0.2113
15591W        W31725   4.062   7.274   0.046  0.1383  0.1624  0.1202
15592W        W31726  12.485   3.151   2.684 -0.0689  0.1948 -0.3553
15593W        W31727   2.913  10.865   4.705 -0.0340  0.1049  0.0269
15594W        W31728  15.880  12.691  14.773  0.1321 -0.0619  0.0475
15595W        W31729  12.835   4.679  11.316 -0.0641  0.0557  0.0822
15596W        W31730  12.622   6.655  14.297  0.0007  0.0672  0.2408
15597W        W31731  15.137   2.448  10.827 -0.3380  0.1297  0.0889
15598W        W31732  13.826   4.455   4.072  0.1316  0.1397  0.0694
15599W        W31733   7.308  16.522   1.809  0.0128  0.1965  0.0046
15600W        W31734  18.354  14.059   5.394 -0.1281  0.1282 -0.0122
15601W        W31735   0.085   4.657  14.107  0.1087 -0.0065 -0.0839
15602W        W31736   8.687   9.386  14.030 -0.0371 -0.0600  0.1344
15603W        W31737  18.001   3.008  10.690  0.2124 -0.0404 -0.0413
15604W        W31738   0.490   1.539   2.572  0.1290  0.0262 -0.0575
15605W        W31739  15.879  15.109   4.362  0.0695  0.2425  0.1249
15606W        W31740  16.696   8.626  13.487 -0.1085  0.1041  0.1691
15607W        W31741   1.283  16.657  13.226  0.3803  0.0771  0.2505
15608W        W31742  16.002   5.487  12.410 -0.2928 -0.0015  0.0885
15609W        W31743   3.533   8.800  13.519 -0.2162 -0.0784  0.0416
15610W        W31744   6.015  17.670  13.543  0.1623 -0.2155  0.1491
15611W        W31745   0.450   9.427  12.590 -0.1189  0.0207  0.1752
15612W        W31746   2.001  16.288  14.530  0.1439  0.0232  0.1371
15613W        W31747   6.751  12.145  14.340 -0.0901 -0.0743 -0.1203
15614W        W31748  17.929   2.216   2.924 -0.0398  0.1514 -0.1348
15615W        W31749  14.761   2.902  14.923 -0.1403 -0.1510 -0.2057
15616W        W31750   0.167   0.771  14.963  0.3370 -0.1410 -0.5376
15617W        W31751  17.779  14.138   3.441  0.1469 -0.0187  0.3364
15618W        W31752   8.345   6.639  10.925  0.0152  0.0079  0.1409
15619W        W31753   1.047   0.763   2.104  0.2092  0.0984  0.0700
15620W        W31754   2.622   7.538  11.525 -0.2851  0.2941  0.0328
15621W        W31755   8.959   3.271   2.278 -0.4468 -0.1060  0.1786
15622W        W31756  15.953  14.804  11.258 -0.0013 -0.2376  0.0403
15623W        W31757  12.430   6.677  13.028 -0.0005 -0.0210  0.0839
15624W        W31758   1.849  14.559   0.046  0.1564  0.1195 -0.0168
15625W        W31759  12.897   5.995  12.754 -0.0197  0.0294  0.1060
15626W        W31760  19.005  13.271  12.194 -0.0949 -0.4068  0.0834
15627W        W31761  11.642  16.559   3.783 -0.1563  0.0389  0.1487
15628W        W31762  16.685  13.776   2.802 -0.3166 -0.1602  0.0101
15629W        W31763   1.821   8.167  14.401  0.1587  0.0563  0.0127
15630W        W31764  16.685   2.949   1.335  0.3933 -0.1023 -0.1033
15631W        W31765   0.776  14.637  14.037 -0.1010 -0.1404 -0.3020
15632W        W31766  11.255   1.556   1.557  0.0499 -0.1411  0.1058
15633W        W31767   3.859  17.530   2.119 -0.1504 -0.1986  0.1742
15634W        W31768  14.195  15.902   5.584 -0.1950  0.3946  0.4603
15635W        W31769   9.608   8.289   0.341 -0.0086 -0.0847 -0.1868
15636W        W31770   5.865   0.924   4.926 -0.1900 -0.2806 -0.2880
15637W        W31771  11.676   6.845   4.042  0.6671 -0.0557 -0.0398
15638W        W31772  16.138   7.468   2.737  0.3390  0.1812 -0.0357
15639W        W31773  12.220   5.942   0.702  0.1896  0.2640 -0.2315
15640W        W31774   8.610  13.686  11.749  0.0367  0.1064 -0.1899
15641W        W31775   3.663  12.009  15.194 -0.1503  0.2334  0.3463
15642W        W31776  18.079   2.704  11.228  0.1308  0.0232 -0.2177
15643W        W31777  13.879   8.225   2.954 -0.0107  0.2810 -0.1290
15644W        W31778   5.702  13.191   3.255  0.2005  0.1524 -0.0055
15645W        W31779  17.103  17.404   1.935 -0.2011 -0.0075 -0.2511
15646W        W31780  16.178  14.494  12.571 -0.0177 -0.0303  0.0435
15647W        W31781   2.079   9.987  11.776 -0.3058  0.0012  0.0982
15648W        W31782   9.875  10.940   4.424 -0.1093 -0.0139  0.3721
15649W        W31783  11.665  16.824   2.893 -0.1113 -0.3100 -0.1208
15650W        W31784   5.122   8.128  13.871 -0.0858  0.2209 -0.0614
15651W        W31785  11.472   1.103   0.706 -0.0337  0.3637 -0.0911
15652W        W31786   3.556  18.330  10.576 -0.2106 -0.1107  0.1054
15653W        W31787   1.840   8.239  13.170 -0.0457 -0.1536 -0.0139
15654W        W31788  16.194   2.048  11.066  0.1907 -0.0905  0.0159
15655W        W31789  18.647   8.084  11.718 -0.0198  0.1446 -0.5206
15656W        W31790   0.161  14.536  12.954  0.1355  0.1731  0.1080
15657W        W31791   5.833   0.652  11.329 -0.2195 -0.4094 -0.0430
15658W        W31792  12.042  17.055  11.955 -0.2229  0.0046 -0.2747
15659W        W31793   9.647  18.505  11.401  0.0133 -0.2625 -0.0619
15660W        W31794   8.861  11.936  12.394 -0.1506  0.2385 -0.0280
15661W        W31795   4.768  10.802  14.427 -0.1094  0.1903  0.1329
15662W        W31796  17.761   5.572  13.330 -0.1026  0.1406 -0.1309
15663W        W31797  13.886   2.795   2.997  0.0862 -0.0248  0.4105
15664W        W31798  11.061  10.337  13.287 -0.0523 -0.2463 -0.0436
15665W        W31799   7.635   8.287   0.086  0.0880 -0.1552  0.3604
15666W        W31800   9.594  17.093  12.954 -0.2635  0.3480  0.0448
15667W        W31801   9.945  11.018  13.201 -0.1595 -0.1885 -0.2190
15668W        W31802   2.308  10.943  11.311 -0.3047  0.1555  0.2753
15669W        W31803   7.781   9.947  14.643  0.1253 -0.1232 -0.1427
15670W        W31804  13.421  10.031   2.732  0.3297 -0.0485  0.0774
15671W        W31805   4.283   4.749  11.730 -0.1047  0.0145 -0.1914
15672W        W31806   2.118   2.134  11.636  0.2852 -0.2836 -0.0013
15673W        W31807   1.892   8.815   4.958  0.1474  0.1408  0.0816
15674W        W31808   7.103  14.764  14.075  0.0724  0.2200  0.1902
15675W        W31809  16.791  10.915  14.173 -0.1188 -0.0528  0.0512
15676W        W31810   1.688   0.213   3.053  0.1266 -0.0412  0.0527
15677W        W31811  12.882   4.680   1.841  0.1715 -0.3280  0.0604
15678W        W31812   5.450   5.421  13.052  0.0187 -0.1070 -0.0768
15679W        W31813   8.131   5.849  15.020 -0.0331  0.2104  0.1065
15680W        W31814  11.898  18.111   2.077 -0.2349  0.1607  0.1473
15681W        W31815   9.214  13.799   1.873 -0.0624  0.0010 -0.0434
15682W        W31816  15.700   8.817  11.916  0.0450  0.1983 -0.3410
15683W        W31817  14.856  18.972  12.532  0.1748  0.0841  0.0490
15684W        W31818   0.273   8.651  13.669  0.3277  0.2861 -0.0368
15685W        W31819   4.230   2.475  13.106  0.0346 -0.2106  0.1099
15686W        W31820   0.604   2.754  12.979 -0.0770  0.1977 -0.0217
15687W        W31821   0.593   7.946  11.945 -0.1423 -0.1649 -0.0365
15688W        W31822  13.453   9.083  12.248  0.3518 -0.1636  0.2975
15689W        W31823  17.763   9.254  14.041 -0.2216  0.1285 -0.1184
15690W        W31824   4.976  18.501   0.075  0.2158 -0.1412 -0.1101
15691W        W31825   4.703  10.360  10.793 -0.1225  0.0342 -0.0212
15692W        W31826  14.003   0.366   2.780  0.2103  0.2320  0.1019
15693W        W31827   5.919  14.535  12.553 -0.1540 -0.0731  0.1348
15694W        W31828  11.855   1.525  14.388  0.1385  0.0055 -0.0672
15695W        W31829  11.621  11.217  12.231 -0.0374 -0.0119  0.0793
15696W        W31830   4.671   3.799  13.929  0.0256 -0.2559  0.1661
15697W        W31831  10.377  15.199  11.583  0.0825  0.1011  0.1461
15698W        W31832   7.934   6.941  10.538 -0.1689 -0.0332 -0.0087
15699W        W31833   4.565  14.560   2.456  0.0319  0.0309  0.1213
15700W        W31834   4.222  13.577   3.254 -0.1365  0.1504 -0.0332
15701W        W31835   4.468   5.442  10.724  0.0753  0.0684  0.1151
15702W        W31836  16.652  13.742   2.328  0.1177 -0.2849  0.0244
15703W        W31837   3.453   4.279   3.843  0.4450 -0.0047  0.3461
15704W        W31838  11.013  11.989  12.476  0.0529 -0.0660 -0.0824
15705W        W31839  15.708   7.067  12.724 -0.1365 -0.0891  0.0046
15706W        W31840   1.880   9.096   2.549  0.3414  0.0031  0.0114
15707W        W31841   2.072   5.220   3.747  0.5643 -0.2723 -0.0630
15708W        W31842   2.129   8.754  12.476  0.0126  0.1022  0.0295
15709W        W31843   3.565  14.418   4.121  0.0583 -0.1534 -0.0374
15710W        W31844  11.680   9.904  14.765  0.1103  0.1501 -0.3383
15711W        W31845  10.437  14.488  15.081 -0.3047  0.0465 -0.1593
15712W        W31846   3.243  18.681   2.339  0.1369  0.1452  0.3599
15713W        W31847  10.919   6.186   1.239 -0.1491  0.0452 -0.0329
15714W        W31848   0.598  16.937   4.286 -0.3518 -0.0340  0.1719
15715W        W31849   0.592  15.370   1.253  0.2299 -0.2915 -0.1439
15716W        W31850   5.768  13.295  14.372 -0.0559  0.0622 -0.0442
15717W        W31851  12.034   9.960  13.943 -0.2734 -0.0010 -0.0634
15718W        W31852  14.958  16.573   0.395 -0.2566  0.1384  0.1102
15719W        W31853   9.412  16.276   2.644  0.0213 -0.1380 -0.0338
15720W        W31854  13.086  10.996   2.323 -0.0765 -0.2444  0.1446
15721W        W31855   0.795  12.873  15.224  0.0734 -0.0238 -0.1617
15722W        W31856   5.013   6.217  10.442  0.2549  0.1461  0.0057
15723W        W31857   2.904   0.611  13.802 -0.1145  0.0513 -0.1218
15724W        W31858  11.070   8.513   2.617 -0.1855  0.1772  0.2363
15725W        W31859  11.575  10.134   3.538  0.0231 -0.0764 -0.2213
15726W        W31860  14.412   7.914   2.405 -0.2398  0.0698  0.0619
15727W        W31861  15.481  12.323  13.718  0.3668 -0.0984 -0.1557
15728W        W31862  13.252  18.406  11.407 -0.0559  0.2120 -0.2740
15729W        W31863   6.824   8.899   0.645 -0.0562 -0.0980 -0.0878
15730W        W31864  13.194  13.087  11.257 -0.1155 -0.0690  0.2039
15731W        W31865   9.224  16.877  14.072 -0.2480 -0.1456 -0.1927
15732W        W31866  17.280   1.010   0.685  0.0784  0.0355 -0.1907
15733W        W31867   7.752  10.635  12.011 -0.0438 -0.0851  0.0841
15734W        W31868   0.547  12.857  11.049 -0.0557  0.4029 -0.1703
15735W        W31869   7.880  16.663  12.291 -0.2307  0.0108  0.0138
15736W        W31870   3.440  12.354   4.104 -0.3525 -0.1561  0.0985
15737W        W31871  16.972   6.633   5.437  0.0372 -0.1009  0.2574
15738W        W31872  11.926  15.183  14.920  0.1682  0.1329 -0.0699
15739W        W31873   7.549   9.898   0.305 -0.0482 -0.1937 -0.5591
15740W        W31874  10.195   4.395  14.692  0.1784 -0.0460 -0.1956
15741W        W31875   1.297  18.643  14.363  0.0156 -0.0921  0.2900
15742W        W31876   6.318  11.587   3.381 -0.0389 -0.3207  0.0517
15743W        W31877   2.879  17.868  13.833  0.1261 -0.1001  0.2626
15744W        W31878  18.544  13.077  14.788 -0.1740  0.0865 -0.3401
15745W        W31879   5.775   1.246   3.953  0.1378  0.1378 -0.2999
15746W        W31880   2.495  13.244  14.277  0.1980  0.0713  0.1982
15747W        W31881   8.832  15.076  11.364 -0.2414  0.0909  0.1556
15748W        W31882  17.011   3.784   2.604 -0.0351  0.1485 -0.1538
15749W        W31883  17.211  14.101  11.362  0.2897  0.1443 -0.0362
15750W        W31884  11.944  14.446  12.156 -0.2064  0.1083 -0.1368
15751W        W31885  10.195  18.323  13.010 -0.1191  0.0849  0.1366
15752W        W31886  16.487   3.309   3.136 -0.1326  0.2033  0.1012
15753W        W31887  15.599  16.673  11.970  0.0367 -0.0250  0.1610
15754W        W31888   1.048  15.687   4.120 -0.0416 -0.1269 -0.0795
15755W        W31889   6.846  15.802   2.513 -0.0782 -0.5068  0.0552
15756W        W31890  12.883   0.900   1.176  0.0856 -0.3679  0.1723
15757W        W31891   4.594   6.092  14.689 -0.0555  0.2661  0.1135
15758W        W31892   6.076   3.714   4.248 -0.2538 -0.0399 -0.4022
15759W        W31893   5.242   7.072  12.743 -0.1228  0.1343 -0.0258
15760W        W31894   4.197   2.638   4.686 -0.1051 -0.2841 -0.0089
15761W        W31895  10.893   5.774   3.367  0.1682  0.2633  0.0671
15762W        W31896   0.614   2.143   3.473 -0.0923  0.1111 -0.5354
15763W        W31897   3.080  17.084  14.759  0.1664  0.2323  0.0069
15764W        W31898   8.612  10.714  14.131  0.0409  0.3090 -0.2168
15765W        W31899  12.603   7.452  11.929 -0.1787 -0.2278  0.0414
15766W        W31900   9.836  10.236  10.186 -0.0797  0.4490  0.0625
15767W        W31901  17.378  12.025  12.747  0.2522 -0.4426  0.1264
15768W        W31902  13.129   4.998  13.343 -0.1252 -0.1779 -0.2699
15769W        W31903  12.601  11.983   3.163 -0.0007 -0.2537 -0.0702
15770W        W31904  13.950   6.200  11.035 -0.1202  0.1539 -0.2807
15771W        W31905  10.618  10.585  12.496  0.0920 -0.0347 -0.1967
15772W        W31906  18.977  15.019   4.561 -0.1126 -0.0249 -0.2574
15773W        W31907   2.178  11.567  14.843  0.1117  0.4244 -0.1149
15774W        W31908  17.220  11.804   2.476  0.0937 -0.0768 -0.1932
15775W        W31909   2.934   7.768  12.376  0.0496 -0.0411 -0.1680
15776W        W31910   4.733  14.955  14.029  0.1184  0.0005 -0.0895
15777W        W31911  14.217   2.574   1.678  0.0575  0.2251 -0.1397
15778W        W31912  16.810   5.996  10.746 -0.1426  0.1417 -0.0553
15779W        W31913   3.425  16.315  13.422 -0.0146 -0.1292  0.0789
15780W        W31914  16.854  18.957  11.623 -0.2454 -0.2371 -0.0013
15781W        W31915  13.285   3.937  12.910 -0.0222  0.0236  0.0168
15782W        W31916   8.451   6.780  10.419 -0.3826 -0.3523  0.1065
15783W        W31917   1.777  13.879  13.181 -0.3837 -0.2461  0.0509
15784W        W31918   4.714   7.424  13.951  0.2699  0.0345  0.1156
15785W        W31919   7.054   4.679   3.565  0.2002  0.1099  0.0246
15786W        W31920   5.141  10.085  13.435 -0.1074 -0.2870  0.0317
15787W        W31921  14.498   6.763   2.999 -0.0447 -0.1428 -0.5280
15788W        W31922   8.861   9.026  12.065 -0.0604 -0.0431 -0.2756
15789W        W31923  10.819   6.457   4.676 -0.2276 -0.0322  0.4182
15790W        W31924  14.611  16.487   1.403 -0.4261  0.2889  0.2184
15791W        W31925   3.450  13.058   5.295 -0.3369  0.2182  0.1029
15792W        W31926  16.526   1.292  13.868  0.0129 -0.3528 -0.0344
15793W        W31927   2.337  10.244  14.214  0.2003  0.0748  0.2239
15794W        W31928   8.007  16.110   4.534  0.1162  0.1252 -0.4166
15795W        W31929   5.101  10.741   1.552  0.1385 -0.1759  0.2923
15796W        W31930  15.844  13.619   2.981 -0.0442  0.0409 -0.1141
15797W        W31931  10.194  13.321   2.952  0.1897 -0.3363 -0.0677
15798W        W31932  11.060   8.349  11.185  0.2190 -0.0899  0.3046
15799W        W31933  11.910   7.302  14.217  0.0656  0.1484 -0.3148
15800W        W31934  12.203  10.845   5.170  0.2118  0.0154 -0.1694
15801W        W31935  17.796   7.781   6.006 -0.1631 -0.0338  0.0421
15802W        W31936  13.502   8.611  13.629 -0.1144  0.2533 -0.3220
15803W        W31937  18.794  17.420   4.663 -0.1838  0.0228 -0.1933
15804W        W31938  17.291   4.821  13.367 -0.2989  0.2888  0.1907
15805W        W31939  16.755  10.597   1.192  0.0096  0.0536 -0.0303
15806W        W31940  11.277   2.221   0.043  0.2022 -0.0849  0.2152
15807W        W31941   1.533   6.830  11.661  0.0957  0.0972 -0.1263
15808W        W31942   2.383  14.239   5.656 -0.1216  0.1927 -0.0983
15809W        W31943  14.555   9.701  12.768  0.0549 -0.1624  0.2099
15810W        W31944  14.528  15.294  12.087  0.2007  0.2446 -0.0597
15811W        W31945  17.073  17.601  14.770 -0.0593  0.0459 -0.2048
15812W        W31946  13.280  14.097   4.539  0.2731 -0.0951  0.3899
15813W        W31947  17.377  12.155   3.997 -0.0674 -0.4530 -0.0536
15814W        W31948   1.028   2.585   9.761  0.2357 -0.0277 -0.3013
15815W        W31949   4.171  16.477   1.921  0.0509  0.0046 -0.2254
15816W        W31950   6.014  16.280   1.969  0.0092  0.1048 -0.2875
15817W        W31951   3.027  11.702  11.074  0.0134 -0.1128 -0.2921
15818W        W31952  17.493  17.117  11.978 -0.0285  0.1592 -0.0060
15819W        W31953  11.852  13.631   2.458 -0.0909 -0.2992 -0.0188
15820W        W31954   3.111  14.396   4.351 -0.3147  0.3021  0.1297
15821W        W31955  17.779  13.910  13.214  0.2043 -0.1438  0.2352
15822W        W31956  18.262  16.796  11.334  0.2803 -0.1260 -0.1325
15823W        W31957   1.469   7.971  11.191 -0.1440 -0.1916 -0.0974
15824W        W31958   4.068   3.069   9.544 -0.2407  0.1402 -0.2315
15825W        W31959   5.639  14.606  14.287  0.0897 -0.0067  0.5022
15826W        W31960   1.461   1.560  12.081 -0.0664 -0.2441  0.4595
15827W        W31961   0.563  10.924   2.074  0.0916 -0.1040 -0.3156
15828W        W31962   6.512   9.753   5.815 -0.2793 -0.1563  0.3082
15829W        W31963  17.550   1.855  11.297 -0.0328  0.2515 -0.1394
15830W        W31964   9.217   2.926  11.390  0.3427 -0.2418 -0.2286
15831W        W31965  13.909   1.151  14.407 -0.1230  0.1159  0.2746
15832W        W31966  10.865  12.501   3.551  0.1405 -0.0559 -0.0628
15833W        W31967   1.664   4.172  13.324 -0.0467  0.1456 -0.2711
15834W        W31968  16.882  16.709   3.968  0.0881  0.3692  0.0352
15835W        W31969  10.547   4.802   1.891 -0.0758 -0.3259 -0.2224
15836W        W31970   6.484  18.285   2.051  0.2847 -0.0248  0.2342
15837W        W31971   5.936   2.208  11.335 -0.0816 -0.1910 -0.0029
15838W        W31972   7.938  11.096   4.676  0.1267  0.1335  0.1744
15839W        W31973   4.526   2.899  13.369 -0.0137 -0.3297 -0.3051
15840W        W31974  17.297  16.394   0.384  0.0370 -0.1810 -0.0057
15841W        W31975   7.081   2.328   2.583 -0.0305 -0.1828 -0.1902
15842W        W31976   8.587  14.285  13.557  0.3153 -0.2097 -0.0586
15843W        W31977   9.919   5.704  10.666 -0.2410  0.0742  0.0218
15844W        W31978   8.681  18.546  12.952 -0.0435  0.1675 -0.4298
15845W        W31979  18.925   0.543  12.335 -0.0015  0.2322 -0.2550
15846W        W31980  14.907   4.508  13.252 -0.1291 -0.0941  0.3025
15847W        W31981   8.558   4.846   1.068 -0.0263  0.0155  0.1092
15848W        W31982  13.961   7.508   4.745  0.0184  0.4405 -0.0689
15849W        W31983   4.624  12.754  12.457 -0.4263 -0.2772  0.3101
15850W        W31984  11.231  10.097  11.411  0.0327 -0.2093 -0.0517
15851W        W31985  12.450  15.796  14.607  0.4062 -0.3211  0.0123
15852W        W31986  14.183  12.332   2.010 -0.1176  0.1060  0.2244
15853W        W31987  17.209   3.688  13.221  0.0536  0.0698  0.2104
15854W        W31988  10.052  10.167  13.234  0.2608  0.0306  0.0260
15855W        W31989   6.742  18.669   3.837 -0.1802 -0.0094  0.2440
15856W        W31990  14.111  12.277   4.465 -0.3716  0.1712 -0.2014
15857W        W31991  14.952   2.225   1.220  0.0267  0.0705 -0.0241
15858W        W31992  17.253  10.137  13.915 -0.0619  0.0013 -0.0267
15859W        W31993   4.341  14.705  12.588 -0.2419 -0.0909  0.2817
15860W        W31994  13.572   3.477  11.265 -0.1139  0.0370  0.1458
15861W        W31995  17.638   0.871   9.763 -0.1597  0.1196  0.0689
15862W        W31996   5.643  11.661  14.683  0.2785 -0.3380 -0.1558
15863W        W31997   1.398   2.410   0.683 -0.1242 -0.1293 -0.1257
15864W        W31998  15.196  10.689  11.305 -0.1056  0.2451 -0.1753
15865W        W31999  12.114  18.726   3.232 -0.1770 -0.2931  0.0785
15866W        W32000   5.254   2.413   1.282 -0.1730 -0.0923 -0.0885
15867W        W32001   5.943   0.155  12.626  0.5095  0.1831 -0.1470
15868W        W32002   7.106   6.539  12.492  0.2425  0.0224  0.3319
15869W        W32003  18.548   4.539  14.244 -0.2810  0.2065  0.1728
15870W        W32004   0.562  15.699  13.396 -0.2487  0.2251 -0.0151
15871W        W32005  14.064   3.492  12.132  0.0239 -0.0273 -0.1224
15872W        W32006   5.781   5.876   2.099  0.0701  0.0886 -0.0905
15873W        W32007   7.499  10.795   2.648 -0.0968  0.0824 -0.2169
15874W        W32008  16.122   9.670  11.724  0.1433 -0.0384  0.3827
15875W        W32009  14.546  14.435   2.641  0.1644  0.0570  0.2583
15876W        W32010   6.626  14.892   0.976  0.1151  0.3911  0.2682
15877W        W32011   3.292  10.724  13.228 -0.2331 -0.0627  0.0330
15878W        W32012   6.247  14.111  14.449  0.1743  0.0686  0.3676
15879W        W32013  18.629  10.223  12.041  0.1396  0.1083 -0.2281
15880W        W32014   8.685  16.860   4.108  0.0992  0.0473  0.0869
15881W        W32015   3.908  10.841   0.998 -0.0354  0.5239 -0.1891
15882W        W32016  12.838   9.338  10.668  0.0311  0.2962 -0.2018
15883W        W32017   5.725  14.680   2.988  0.0544 -0.0001  0.1013
15884W        W32018   9.984  10.162  14.848 -0.0644 -0.1796  0.0529
15885W        W32019   6.760   6.773   9.978  0.1190 -0.0110  0.0804
15886W        W32020   6.547   1.749   0.085  0.1802 -0.0749  0.1442
15887W        W32021  12.268  11.020  13.460 -0.1137  0.2634 -0.0191
15888W        W32022   2.597  15.192   5.065 -0.2523  0.1027  0.2398
15889W        W32023  12.687   4.234  13.649  0.2534  0.1808 -0.3366
15890W        W32024  10.028  18.651  11.092 -0.1773  0.0441 -0.1302
15891W        W32025  10.634  16.100  14.118  0.3080 -0.0187  0.1199
15892W        W32026  12.105   3.120   1.252 -0.1199 -0.0861 -0.2306
15893W        W32027   4.505   6.905  10.414 -0.0811 -0.1195  0.1050
15894W        W32028  18.519  15.866   4.947  0.0704  0.0559 -0.2727
15895W        W32029  13.578   5.196   3.546  0.3358  0.2374  0.2156
15896W        W32030  11.131  13.981   3.744  0.1775  0.3981 -0.0874
15897W        W32031  16.336   2.129   0.337  0.1357 -0.0089  0.1320
15898W        W32032  15.272  10.133  13.067  0.0012 -0.1962 -0.2279
15899W        W32033  12.352   1.543  12.611  0.0949 -0.2800 -0.0750
15900W        W32034  14.719   3.486  14.807  0.0920  0.0653 -0.0292
15901W        W32035   9.614   2.494   2.134  0.0590 -0.1004 -0.1896
15902W        W32036   5.286   6.781  11.157  0.2334 -0.2126  0.0135
15903W        W32037   2.491   4.457   5.710 -0.0391 -0.2571 -0.4340
15904W        W32038   1.989  16.457  11.238  0.0640  0.3965 -0.6237
15905W        W32039  12.040   8.846   0.979 -0.0647  0.0575 -0.0117
15906W        W32040   3.994  11.849  10.964  0.1308 -0.0467  0.1161
15907W        W32041   5.851   1.553   3.498 -0.0839  0.2860  0.2403
15908W        W32042  10.647   8.626   0.359  0.0839  0.0655 -0.2364
15909W        W32043   3.848  15.064   0.294 -0.1306 -0.2023  0.0244
15910W        W32044   2.854   1.489   4.670  0.3093  0.0298  0.0876
15911W        W32045   1.008  12.260   9.568  0.1102  0.0537 -0.1347
15912W        W32046   5.442   5.183  13.525  0.0920  0.2188  0.1063
15913W        W32047   7.124   4.949  11.905 -0.1988  0.0770  0.0746
15914W        W32048   5.900   3.734   2.153  0.0875 -0.0174  0.0731
15915W        W32049   4.890  17.211   0.914 -0.1386 -0.0774 -0.0403
15916W        W32050  15.734  11.069   2.693 -0.2091  0.0730 -0.2119
15917W        W32051   9.891  12.230   4.738  0.3535  0.0531  0.1751
15918W        W32052  15.395   1.338  15.146 -0.2126 -0.2255 -0.4617
15919W        W32053   4.140  12.129  12.253 -0.2086 -0.1674 -0.1396
15920W        W32054   6.014   7.566  12.952  0.5180 -0.2079  0.2846
15921W        W32055  15.439   0.856  11.674  0.1911 -0.0239  0.2780
15922W        W32056  13.076  12.776   3.512  0.1185  0.0781  0.0500
15923W        W32057   5.979  17.606   0.573 -0.1877 -0.1194 -0.0845
15924W        W32058   0.617  15.571   4.374 -0.0212 -0.0621  0.0131
15925W        W32059  13.293   1.326  14.162 -0.0114 -0.1323  0.0930
15926W        W32060  15.813   2.058   3.429  0.0848 -0.0112 -0.1442
15927W        W32061   1.318  17.908  11.027  0.1306  0.1505 -0.0245
15928W        W32062   8.454  13.500   0.858 -0.0617  0.2188  0.0804
15929W        W32063  18.198  11.741   2.433  0.0934  0.0237  0.0067
15930W        W32064  11.015  18.732   2.390 -0.4115  0.0230 -0.0645
15931W        W32065  18.384  12.710  13.401  0.0565 -0.1491  0.2463
15932W        W32066  12.242   3.223   4.938  0.0550 -0.1716  0.0976
15933W        W32067   7.416   1.794   0.950 -0.4476  0.0432  0.1960
15934W        W32068  12.058  12.814  14.061  0.0518  0.0219 -0.2964
15935W        W32069   7.890   8.863   0.202 -0.2187  0.2154  0.2393
15936W        W32070  10.939   5.399   1.096  0.2012 -0.1357 -0.2122
15937W        W32071   7.721  12.171  13.553  0.2055 -0.1662  0.1423
15938W        W32072  17.513   4.930   2.197 -0.1358 -0.3066 -0.0250
15939W        W32073  16.953  12.116   5.556  0.1040 -0.0017  0.0674
15940W        W32074   7.939  12.559   1.262 -0.0510  0.3316  0.1567
15941W        W32075  16.585   4.936   3.963  0.3652 -0.1379 -0.0044
15942W        W32076   8.129   2.032   2.623 -0.0132  0.0610 -0.0961
15943W        W32077  15.934   2.692  12.245  0.1032 -0.1537 -0.0873
15944W        W32078  12.979   6.966  13.656  0.1002  0.0623  0.0410
15945W        W32079   9.551   7.998  13.047  0.1779  0.2504 -0.0785
15946W        W32080   2.086   8.892   1.661 -0.1647 -0.3412 -0.1333
15947W        W32081   3.415  17.443   1.754 -0.0053 -0.0275  0.1236
15948W        W32082  18.140  18.545  13.430  0.0254  0.1113 -0.0969
15949W        W32083  18.053   8.658   3.667  0.2897  0.1668 -0.0931
15950W        W32084   0.285   0.454  11.323  0.3507 -0.1023 -0.1502
15951W        W32085  11.998   8.807   0.394  0.0679  0.0509 -0.0129
15952W        W32086  18.729  12.096   3.701 -0.2898 -0.0888 -0.1846
15953W        W32087  11.896  16.722   1.641 -0.2469 -0.1496  0.1658
15954W        W32088   8.860   7.807  12.124 -0.1481  0.0257  0.2800
15955W        W32089   9.538  13.278  13.326 -0.0025 -0.0396 -0.1848
15956W        W32090  10.004   5.139   4.821 -0.0115  0.0795 -0.3362
15957W        W32091  12.466   7.096  13.749 -0.1537  0.1185  0.1784
15958W        W32092   1.340   0.211  12.559 -0.0830  0.0864 -0.2379
15959W        W32093   3.955  11.194  10.912 -0.1517 -0.0290 -0.2009
15960W        W32094  14.152   8.330  10.261 -0.1433 -0.2386  0.1529
15961W        W32095   6.119   8.061  12.957 -0.1947 -0.0407  0.0471
15962W        W32096   2.546  17.319  10.592  0.0553  0.0479 -0.1034
15963W        W32097  18.610   3.874  13.521  0.0832  0.4577  0.0975
15964W        W32098  18.682   5.635   4.850 -0.0250  0.2081  0.0386
15965W        W32099   3.585   5.457   0.864  0.3384 -0.0486  0.0195
15966W        W32100  10.438   1.847  14.768  0.0140 -0.1644 -0.0967
15967W        W32101   1.339   1.591  11.543 -0.3200 -0.1324 -0.2428
15968W        W32102   5.426   3.903  15.255 -0.0793  0.2390  0.0623
15969W        W32103   3.216   5.376  10.981  0.1781  0.1947 -0.0115
15970W        W32104   6.131   8.739   1.490  0.0512 -0.1016  0.1236
15971W        W32105   1.627   4.844   4.912 -0.3934 -0.1782 -0.0275
15972W        W32106   5.911   8.565   0.479 -0.1747 -0.2039 -0.0721
15973W        W32107   8.923   4.054  12.182 -0.0723 -0.2186  0.1500
15974W        W32108   8.790  10.813   0.765 -0.1288  0.0906 -0.0400
15975W        W32109   0.805   4.109   5.673  0.0590  0.1426 -0.0389
15976W        W32110   5.044   0.810   0.319 -0.1250  0.1439  0.0436
15977W        W32111  16.467   1.511  14.337  0.0161  0.1607 -0.2305
15978W        W32112   8.443  17.484   0.155  0.1384 -0.1667 -0.0954
15979W        W32113   9.996   6.699  13.752  0.1894 -0.2373 -0.1407
15980W        W32114  16.681  13.719  14.210 -0.0712 -0.0543 -0.2228
15981W        W32115  16.724  13.408  14.576  0.1830  0.1499  0.2735
15982W        W32116  16.739  18.809   3.210 -0.3866  0.0851 -0.3644
15983W        W32117  12.422  12.692  11.880  0.2554  0.0668  0.3032
15984W        W32118   9.270   6.423   3.587  0.0715  0.1792  0.1683
15985W        W32119   7.568   6.473   2.523  0.2155  0.2047  0.1022
15986W        W32120   1.375  17.403   4.430 -0.0652  0.2892  0.0005
15987W        W32121   2.861   9.225  13.279 -0.2428  0.0927 -0.1636
15988W        W32122  12.153  11.847  14.907  0.0138  0.3135 -0.1743
15989W        W32123   8.525   4.942  12.452 -0.0812 -0.1369  0.3179
15990W        W32124  11.657   2.933  11.298 -0.0423 -0.3594 -0.1815
15991W        W32125  13.575  16.399   5.129 -0.2032  0.0161 -0.3859
15992W        W32126   4.379  16.899  14.358  0.1042  0.1681 -0.4096
15993W        W32127   3.760   1.319  13.809 -0.2385 -0.2331  0.0891
15994W        W32128  17.647  16.735  13.190  0.3299  0.0737 -0.2112
15995W        W32129  16.794   3.926   3.768  0.3095  0.0276  0.1013
15996W        W32130   4.719  10.789   3.377 -0.1571 -0.2400  0.3183
15997W        W32131   2.056   5.833   1.573  0.0012  0.1196 -0.0503
15998W        W32132   6.405  11.643  14.251  0.0327  0.1639  0.1343
15999W        W32133   7.266  12.557  10.925  0.1440 -0.2505  0.0585
16000W        W32134   9.948   8.121  11.759  0.0646  0.2635  0.1139
16001W        W32135   8.780   6.573   4.467  0.0004 -0.0610 -0.2726
16002W        W32136  10.598   7.135   0.487  0.1488 -0.4617 -0.0399
16003W        W32137   3.735  16.651  14.841  0.4718 -0.0238 -0.0037
16004W        W32138   4.289  16.770  11.191  0.0205  0.0105  0.0551
16005W        W32139   9.804   7.154  13.834  0.0026 -0.1196  0.1481
16006W        W32140   5.440   1.983  11.049 -0.1041 -0.2282  0.2934
16007W        W32141   2.533   2.616   0.951  0.2648  0.1033 -0.2776
16008W        W32142  12.793  14.218   0.267  0.0549 -0.1583  0.1265
16009W        W32143  11.362  10.013   2.533 -0.1878 -0.2853  0.1020
16010W        W32144   2.479  10.216   4.234 -0.1030  0.2149  0.0904
16011W        W32145   9.320   8.431   3.846  0.0905  0.0540 -0.2488
16012W        W32146  17.797   3.089   0.843  0.1085 -0.1160 -0.1542
16013W        W32147   3.128  18.244  13.513 -0.0802  0.0933  0.0631
16014W        W32148   9.134  13.144   2.867 -0.0031  0.1654 -0.0074
16015W        W32149   2.605  13.949   0.181  0.2057 -0.0870  0.0426
16016W        W32150   6.476  15.143  12.706 -0.2382 -0.0792  0.1483
16017W        W32151  12.412  16.051   0.619 -0.1093 -0.0785 -0.0204
16018W        W32152   6.228  16.635   3.853 -0.1699 -0.1047  0.0430
16019W        W32153  17.902  10.650   0.614  0.0171  0.0644  0.2751
16020W        W32154   8.029  13.803   4.334  0.0508 -0.0007 -0.2676
16021W        W32155  17.401   3.190  13.242  0.1237  0.0788 -0.1883
16022W        W32156  15.638  12.746   5.188  0.1943  0.2760  0.1478
16023W        W32157   1.736   0.598   1.597 -0.3350  0.2188  0.2107
16024W        W32158   2.023  14.058   5.211  0.2025 -0.0822 -0.0904
16025W        W32159  18.425  17.675  13.000 -0.3589 -0.1506 -0.3302
16026W        W32160  18.125   3.075   3.961  0.0541 -0.0412  0.0612
16027W        W32161  17.627   4.543  12.551  0.4260  0.1709 -0.1585
16028W        W32162  16.590  11.739  14.667  0.0134  0.0372  0.0822
16029W        W32163  18.219  10.440  11.717  0.0928  0.0708 -0.3057
16030W        W32164   0.191   2.118   3.790 -0.0531  0.0126 -0.0674
16031W        W32165   7.187   7.374   0.638 -0.1716  0.2417  0.2454
16032W        W32166  12.629  16.259  12.837  0.3392  0.0076 -0.3235
16033W        W32167  17.201   1.577   3.177 -0.1574  0.2164  0.1000
16034W        W32168   3.285   0.873  13.382  0.0064 -0.2943  0.0859
16035W        W32169   6.621   8.303  12.903 -0.0613  0.1661  0.3713
16036W        W32170   1.097  15.019  14.175 -0.2013  0.2254  0.1725
16037W        W32171  17.486  13.350   1.640  0.0733  0.3212  0.0697
16038W        W32172  13.587   8.387   1.593  0.1994  0.0879 -0.1538
16039W        W32173   9.089  15.142   5.674  0.0632 -0.3549  0.0377
16040W        W32174   5.988   1.794  13.893  0.0033 -0.0268 -0.1155
16041W        W32175   9.410   4.240   3.570 -0.0831  0.0175 -0.0326
16042W        W32176  15.257  11.210   1.675  0.3309  0.2187  0.4793
16043W        W32177   3.023   2.435  14.990 -0.2229  0.1107  0.0576
16044W        W32178  18.030  11.605  15.282 -0.0239 -0.3084  0.1259
16045W        W32179  11.907   0.834   0.762  0.0277  0.0567  0.2218
16046W        W32180   6.987  15.582  14.726  0.0573  0.1624 -0.1126
16047W        W32181  16.993  14.615   1.091  0.1286  0.1433  0.1751
16048W        W32182  13.671  14.195   1.296  0.2638 -0.3074  0.1026
16049W        W32183   7.278   7.385  10.876 -0.0081  0.4204 -0.2120
16050W        W32184   4.885  11.764   1.343 -0.0545  0.0187  0.0732
16051W        W32185   2.249  11.331   4.658  0.2357  0.2960 -0.1255
16052W        W32186  18.179  11.475  12.704 -0.4276  0.2943 -0.2110
16053W        W32187   9.427   1.936   2.816  0.2095  0.1694 -0.2146
16054W        W32188  18.700  17.998  14.565 -0.0371 -0.0587 -0.1732
16055W        W32189  17.164  16.513  10.487  0.0466 -0.1325  0.0268
16056W        W32190  14.235   4.030  12.765  0.1228  0.1068 -0.0837
16057W        W32191  17.455   4.140  12.861 -0.1145 -0.2203  0.0862
16058W        W32192   9.103   7.954  10.296 -0.3383  0.1311 -0.0837
16059W        W32193  18.514  16.475   4.848 -0.1771  0.0380 -0.3015
16060W        W32194  16.558   4.602  10.358  0.0341  0.0726 -0.2548
16061W        W32195   3.951   1.253  12.246  0.0757 -0.1545 -0.2258
16062W        W32196  14.830   2.471  15.173  0.1314 -0.1728  0.3152
16063W        W32197   0.389  15.361  13.808 -0.2355  0.0202  0.2866
16064W        W32198  13.402  11.664   0.465  0.0947 -0.3457  0.1448
16065W        W32199   6.285   7.815  12.553  0.0435 -0.0361  0.1095
16066W        W32200  11.923  12.060   0.411  0.1378  0.0909 -0.0079
16067W        W32201   3.034  14.941  14.779 -0.4798  0.1710 -0.1172
16068W        W32202   9.672  11.732  12.531  0.1110  0.2737 -0.1053
16069W        W32203  18.697  16.029   1.996 -0.0089  0.0288 -0.3208
16070W        W32204   4.534   6.355  13.709 -0.1886  0.1788 -0.0776
16071W        W32205   2.612   5.827   1.903 -0.2272  0.0650  0.0137
16072W        W32206  11.841   3.300  10.976 -0.3674  0.0123 -0.0131
16073W        W32207   7.782  15.731   3.277  0.1290 -0.0724 -0.0353
16074W        W32208  10.295   6.150  14.927 -0.3764 -0.2253 -0.1402
16075W        W32209   2.486  11.480   2.878  0.0739 -0.0659  0.0846
16076W        W32210  16.858  15.002   3.788  0.1163 -0.2141  0.0494
16077W        W32211   8.783   2.105   2.207  0.0162  0.1320 -0.0488
16078W        W32212   9.281   9.981   4.411 -0.1058  0.0484  0.0741
16079W        W32213   7.870  11.013   1.648  0.3171  0.0165 -0.2657
16080W        W32214   6.249  11.700  11.725 -0.0033  0.2728 -0.1245
16081W        W32215  17.694   5.644  11.415  0.1079 -0.0631  0.1651
16082W        W32216   2.554   6.161   2.881  0.3837  0.1937  0.1667
16083W        W32217   5.226   0.749  10.281 -0.1505  0.1805 -0.0185
16084W        W32218  12.779   0.541  10.305 -0.1440 -0.3276  0.0704
16085W        W32219  16.064  11.797  13.976 -0.0854  0.0072 -0.0108
16086W        W32220  14.003  12.508   2.857  0.0353  0.0935 -0.0316
16087W        W32221  14.215  17.571   4.030  0.2168 -0.2446  0.2159
16088W        W32222  15.053   2.533   5.809 -0.0370  0.0574  0.2405
16089W        W32223   8.698  16.493   0.323  0.2552  0.2419  0.2880
16090W        W32224  15.210  11.836   2.259 -0.0428  0.0407 -0.0874
16091W        W32225   4.024   8.710   4.278  0.1585  0.0560  0.3984
16092W        W32226   0.199  10.652   3.609  0.2045  0.0396 -0.1314
16093W        W32227   5.678  18.446   4.279 -0.0225  0.1156  0.1825
16094W        W32228  10.631   2.548   3.614  0.1370  0.1260  0.1477
16095W        W32229   0.873   4.967   1.698  0.0517 -0.0411 -0.1965
16096W        W32230  18.189  15.873   6.064 -0.0926 -0.0092  0.0356
16097W        W32231  15.956  16.990   4.590 -0.2392 -0.1396  0.0183
16098W        W32232  10.494  15.122  12.879  0.0996 -0.0971  0.0139
16099W        W32233   8.002   4.974   1.023 -0.2450  0.2085 -0.1164
16100W        W32234   5.581   2.065   2.104  0.2667 -0.0967 -0.3888
16101W        W32235   9.662  18.737   3.297  0.0558  0.0465  0.1931
16102W        W32236  17.186  11.655   1.549 -0.1118  0.0984  0.0368
16103W        W32237   3.788  11.099   1.909  0.0912  0.2673 -0.2731
16104W        W32238   5.453   9.744   4.181 -0.0595  0.2597  0.1278
16105W        W32239   1.722  16.266   3.873  0.1460  0.2150  0.3139
16106W        W32240  17.041   7.924   3.448 -0.1392 -0.1804  0.2231
16107W        W32241   0.434  14.272  14.213  0.0396  0.0099 -0.0305
16108W        W32242   6.254   4.410   4.543 -0.1904 -0.0304  0.1238
16109W        W32243  16.196  12.979  13.996  0.2760  0.0750 -0.1718
16110W        W32244  18.932   6.351   5.227 -0.1056 -0.1928  0.0459
16111W        W32245  15.195   3.251  14.592  0.1389  0.0666  0.2832
16112W        W32246  11.897  10.570   4.238  0.2815 -0.3316  0.2776
16113W        W32247  11.240  17.327   4.060 -0.2172  0.3445  0.1301
16114W        W32248   8.080  10.423  13.288  0.3740  0.1900  0.4025
16115W        W32249  12.390  10.369  14.284 -0.2558  0.0584  0.2098
16116W        W32250   0.092   5.214   0.909  0.3017  0.1238 -0.3334
16117W        W32251   6.497  18.483  14.690 -0.0831  0.2157  0.1490
16118W        W32252  15.079   5.268   3.118 -0.0101 -0.0239  0.1960
16119W        W32253  14.165  11.872   3.998 -0.0375  0.0139  0.1296
16120W        W32254  13.747   4.640  11.279 -0.0010  0.1805  0.3585
16121W        W32255   1.043  13.959  11.891 -0.2954  0.1090 -0.0121
16122W        W32256  10.676   0.199   5.059  0.1602  0.2416 -0.0421
16123W        W32257   3.283   2.235   1.262  0.1242 -0.1882 -0.0807
16124W        W32258  14.520  15.657   0.138  0.0464  0.1456 -0.0332
16125W        W32259   4.556   0.965   3.267  0.4389  0.1698  0.0458
16126W        W32260   5.289   2.417  14.980 -0.4662  0.0061 -0.0865
16127W        W32261  14.168  12.603  11.615  0.2179  0.0385 -0.0517
16128W        W32262  13.871  13.403   0.905 -0.1580  0.3294 -0.0725
16129W        W32263  13.011   0.686   4.383  0.0802  0.3292  0.0695
16130W        W32264  12.123   0.050  13.303  0.2790 -0.1386  0.4462
16131W        W32265   3.840  17.516  10.913 -0.3700  0.1736  0.0225
16132W        W32266   5.016  18.616   0.549 -0.0588  0.3366  0.1482
16133W        W32267   7.267   5.472  12.882 -0.0219  0.1797  0.0419
16134W        W32268   6.783   1.664  14.857  0.2644 -0.1987  0.3378
16135W        W32269   2.370   1.266  14.202  0.3865 -0.2434  0.1314
16136W        W32270  12.012  12.284  10.624 -0.0019  0.0436  0.1347
16137W        W32271   2.558  17.781   3.810 -0.0877 -0.2385  0.3209
16138W        W32272   5.177   5.069   0.755  0.1065  0.0770  0.1329
16139W        W32273   6.148   2.012   1.984  0.1235 -0.2820  0.1740
16140W        W32274   0.683  12.052   1.997  0.0382 -0.1864  0.2121
16141W        W32275   4.659  16.533  10.408 -0.1070  0.0413  0.2244
16142W        W32276  15.935  18.436  11.447  0.1097 -0.1737 -0.1196
16143W        W32277  18.033  11.796   1.954 -0.0010 -0.1168  0.2865
16144W        W32278   4.487  17.905   4.392 -0.0897  0.0034  0.0286
16145W        W32279  17.465  18.118  14.722 -0.1859  0.0245 -0.1112
16146W        W32280  14.072   4.803   0.784  0.2022  0.2182  0.2395
16147W        W32281   7.109  18.641  10.655  0.0660 -0.0756  0.3550
16148W        W32282   1.457   1.823  14.462 -0.2932 -0.2446 -0.2086
16149W        W32283   8.527   6.214  12.796 -0.1643  0.0281  0.4808
16150W        W32284   0.368  10.389   1.991  0.1686  0.1198 -0.1698
16151W        W32285  14.542  11.449   0.703  0.0040 -0.0141  0.0591
16152W        W32286   1.349   6.941  11.216 -0.0917  0.0256  0.3027
16153W        W32287   7.633  11.876   0.856 -0.2369  0.0738  0.1325
16154W        W32288  11.527   2.283   2.189 -0.4065 -0.3358 -0.1670
16155W        W32289   2.113   4.333   0.746 -0.0991  0.1870  0.3377
16156W        W32290   0.199  10.864   4.762 -0.0211  0.0354  0.1289
16157W        W32291   8.215  10.998  14.921 -0.0781  0.0455 -0.0493
16158W        W32292   1.520  15.914   1.463  0.3041  0.2900  0.2007
16159W        W32293   6.023   7.689  15.103 -0.0235 -0.2375 -0.1550
16160W        W32294   8.962   9.220   0.945 -0.0492  0.1991 -0.0615
16161W        W32295   3.610  13.391  12.482  0.0940  0.1149  0.0222
16162W        W32296   5.563  16.747   0.504 -0.0703 -0.1049  0.1935
16163W        W32297   6.979   2.454   1.234 -0.0307 -0.2737 -0.4280
16164W        W32298  11.538   1.036  14.500  0.2397 -0.0522  0.1176
16165W        W32299  15.977   7.690   1.494  0.1111  0.1395 -0.1909
16166W        W32300   0.755   1.334   4.205  0.0069 -0.0379  0.1943
16167W        W32301   9.858   2.236  15.276 -0.1796 -0.0666  0.1733
16168W        W32302  17.121  10.111   3.940  0.1033 -0.0884  0.0064
16169W        W32303   6.520   2.898  14.370  0.2401 -0.1324  0.0087
16170W        W32304  11.180   0.334   0.276 -0.3022  0.4318 -0.2542
16171W        W32305   9.176   1.081  11.582  0.3357 -0.0084  0.2479
16172W        W32306  19.001  13.947   2.958 -0.0960 -0.0068 -0.0005
16173W        W32307  17.800  10.217   1.506  0.1552  0.2332  0.4029
16174W        W32308   5.068   1.531   5.735  0.1544 -0.1117 -0.2431
16175W        W32309  17.814   8.095  14.929 -0.0678 -0.0189 -0.3409
16176W        W32310  14.966  12.355  11.643  0.1799 -0.1134 -0.4214
16177W        W32311   1.312  11.391   1.726 -0.1697  0.2167  0.3740
16178W        W32312   6.422  15.789  15.173  0.2069 -0.2746  0.1746
16179W        W32313   8.712   8.329   1.052  0.0862 -0.0639 -0.3391
16180W        W32314  16.874  11.580  11.133  0.1680  0.1915 -0.0495
16181W        W32315  10.973   2.988  10.749 -0.1549  0.1426  0.0786
16182W        W32316  11.758   9.269   2.303  0.2089  0.0142  0.6058
16183W        W32317  18.424   6.135   3.498 -0.0677  0.2231  0.3980
16184W        W32318   9.456   8.389  10.372 -0.1342  0.0920 -0.1758
16185W        W32319  18.162   5.554   1.770 -0.3010  0.4324  0.0317
16186W        W32320   7.458  14.738  12.550  0.1599 -0.1891  0.0724
16187W        W32321   3.335  15.027   0.418  0.1062 -0.0316  0.0070
16188W        W32322   5.379  13.457   3.675 -0.0759  0.3912 -0.1321
16189W        W32323   3.939   7.812   2.597 -0.1126  0.1271  0.2547
16190W        W32324  16.417  13.692   4.644  0.0700 -0.0428  0.3089
16191W        W32325   5.866  13.505  11.321  0.3118 -0.1528  0.0116
16192W        W32326  17.563   7.761  13.468  0.3161  0.2302 -0.2299
16193W        W32327   8.088   7.552  11.209  0.1533  0.1266  0.1746
16194W        W32328   1.092   8.120  11.480  0.1346  0.0159  0.0363
16195W        W32329   2.482   1.931   1.735  0.0164 -0.3190 -0.2192
16196W        W32330   9.025   3.226   0.212  0.1523 -0.4385  0.0615
16197W        W32331  10.025   7.137  11.851 -0.0043 -0.3203  0.1051
16198W        W32332  10.362  17.831   0.456 -0.1135  0.1445  0.0404
16199W        W32333  10.778   3.475   0.016 -0.1832  0.1535 -0.0826
16200W        W32334   7.358   6.165   5.517  0.1124  0.1172  0.1884
16201W        W32335   1.898  10.560   1.662 -0.1125 -0.0008 -0.1749
16202W        W32336  18.517   0.729   0.518  0.0871 -0.0319 -0.4425
16203W        W32337   0.414  13.613   3.129  0.1732  0.2087  0.0393
16204W        W32338   0.204  12.148   5.238 -0.1269  0.0156 -0.1369
16205W        W32339  18.502   7.555   5.604  0.0909 -0.3150 -0.0853
16206W        W32340   5.732  13.798  10.712 -0.2539 -0.2451  0.1197
16207W        W32341   5.616  14.917  12.444  0.0105 -0.5382  0.3324
16208W        W32342   5.892  12.773  11.689  0.2191 -0.2079  0.2339
16209W        W32343  17.461  11.372   4.473  0.1875  0.0970 -0.2288
16210W        W32344  15.843   5.377   2.075 -0.1306 -0.4144 -0.0410
16211W        W32345  13.299   5.830   4.175  0.0036  0.3189 -0.3016
16212W        W32346  11.725   7.349  14.767  0.2100 -0.0979  0.3291
16213W        W32347  16.712   6.164  14.905  0.1106  0.0150  0.0252
16214W        W32348   7.476   9.919   1.929 -0.2835  0.2183  0.2033
16215W        W32349   7.964   4.676   0.219  0.2122 -0.0861 -0.3141
16216W        W32350   1.650   7.812   2.581 -0.2753  0.0826  0.1154
16217W        W32351  10.004   6.715   0.730 -0.0542  0.0832 -0.0828
16218W        W32352  13.011  18.679  12.982  0.1461  0.1852  0.0885
16219W        W32353  11.613   4.865  14.878 -0.3333  0.3425 -0.1066
16220W        W32354  11.810  12.525   4.759 -0.2330  0.0286  0.1380
16221W        W32355   7.471   2.410   4.989 -0.3387  0.0916 -0.2913
16222W        W32356  10.181   5.528  13.409 -0.4005  0.0839  0.0264
16223W        W32357   2.027  17.736   3.642  0.0023 -0.1620  0.2226
16224W        W32358  16.105  18.956  12.912 -0.0965 -0.0911  0.0209
16225W        W32359   5.257  15.369   4.749  0.2703  0.2934 -0.1418
16226W        W32360   2.976  10.960   1.829 -0.3549  0.1473  0.1122
16227W        W32361  12.272   4.021  14.584 -0.0544  0.0865 -0.0132
16228W        W32362   3.310  12.945   4.378  0.0320  0.2688 -0.3672
16229W        W32363   1.077  11.527   1.190  0.1811 -0.1364  0.0546
16230W        W32364  10.028  13.126  13.691  0.0057  0.0778  0.2604
16231W        W32365   7.457   6.996  15.062 -0.0951  0.2401 -0.3930
16232W        W32366   3.902   3.862  11.427  0.0389 -0.0655 -0.2310
16233W        W32367  13.483   0.569   0.807 -0.0559  0.2641  0.0138
16234W        W32368  15.616  15.568  12.478  0.1413  0.1041  0.0379
16235W        W32369  12.665  18.021   3.884 -0.0434 -0.0411 -0.0820
16236W        W32370  15.730  11.937  12.284  0.4986 -0.3307 -0.2220
16237W        W32371   4.784  16.944   3.869  0.0140  0.3087 -0.1104
16238W        W32372   7.014   5.089   4.986 -0.2314 -0.1292  0.0493
16239W        W32373   9.221   4.076   4.557 -0.1082  0.0687  0.1086
16240W        W32374   3.638   0.430   1.004  0.1174  0.1861  0.0040
16241W        W32375  16.172   7.136  14.336  0.1060  0.3202 -0.2402
16242W        W32376  16.223  17.849   1.827 -0.0391 -0.0408 -0.5144
16243W        W32377   4.406   0.758   0.976 -0.2778 -0.1331  0.2130
16244W        W32378   4.997   9.944  11.748  0.1083 -0.1024 -0.0624
16245W        W32379  15.206  12.786   2.335 -0.1413  0.0520 -0.0057
16246W        W32380   9.127  14.241  12.405 -0.2404 -0.0352 -0.3045
16247W        W32381  13.322  18.994  11.718 -0.3246 -0.0476  0.1735
16248W        W32382   9.465   3.758  13.051  0.1454  0.0042  0.1154
16249W        W32383   3.410  17.946   1.656  0.0233  0.2223  0.2117
16250W        W32384   5.057   1.881  12.933 -0.2991 -0.0962  0.0128
16251W        W32385   1.724  18.620  14.133  0.0558  0.1350  0.1818
16252W        W32386  15.663  11.266  11.917 -0.0517  0.1086 -0.3548
16253W        W32387  10.070  18.032   3.917  0.1484 -0.4228  0.0674
16254W        W32388  12.822  13.253   1.240  0.0995 -0.3226  0.2488
16255W        W32389   1.336   7.488  13.402 -0.1403  0.0316  0.0784
16256W        W32390   7.028  10.202  10.119  0.1548  0.1028 -0.1274
16257W        W32391  16.715  14.764   2.962 -0.2373 -0.1063  0.0065
16258W        W32392  12.266  11.128  10.593  0.0689  0.1570  0.3764
16259W        W32393  12.617  18.522   1.049 -0.2915  0.0903  0.0866
16260W        W32394  13.370   3.279  10.824  0.3406 -0.1832  0.0560
16261W        W32395   9.639  10.265  11.618  0.2601 -0.2604 -0.0682
16262W        W32396  12.404  17.074  13.430  0.0422 -0.1026  0.1311
16263W        W32397  18.423  16.466   2.880  0.0517 -0.0225  0.0387
16264W        W32398  12.379  18.008   4.307  0.1342 -0.2392 -0.4388
16265W        W32399   0.200   1.256  12.611  0.5548  0.1220  0.0799
16266W        W32400   5.001  16.436   3.957 -0.1089 -0.1741  0.2508
16267W        W32401   7.516   4.734  13.842 -0.1526 -0.4735  0.1639
16268W        W32402  17.330  10.247   2.544 -0.2565 -0.2684 -0.2693
16269W        W32403   7.451   2.768  10.357 -0.0572 -0.0191 -0.4139
16270W        W32404   3.681   5.140  13.369 -0.0550 -0.1105 -0.0549
16271W        W32405   7.966  13.907   2.847  0.1383 -0.0052  0.0005
16272W        W32406  16.341  11.317  12.502  0.0180  0.2947  0.1888
16273W        W32407  13.107   4.735   1.117  0.0777 -0.2321 -0.2632
16274W        W32408  15.569  17.828  12.687  0.4130  0.2425  0.0190
16275W        W32409   3.627   7.730   3.049 -0.2088  0.2693 -0.2124
16276W        W32410  12.394  16.522  13.179 -0.0801  0.1103  0.0321
16277W        W32411   2.020   6.736   3.209 -0.0570  0.1037 -0.2414
16278W        W32412  17.500  17.979   0.626 -0.1913 -0.0057  0.0275
16279W        W32413  11.319   1.247   1.944 -0.0644 -0.0185 -0.1314
16280W        W32414  13.054   9.180  11.930  0.3364  0.3878  0.2793
16281W        W32415   0.861   4.645  13.396 -0.5622  0.1474  0.2016
16282W        W32416  17.008  14.448   4.393  0.0337  0.0498  0.0788
16283W        W32417   3.304   5.670   3.819 -0.1464 -0.2249 -0.1974
16284W        W32418   8.499   6.280   0.053 -0.1399  0.2108 -0.3128
16285W        W32419   1.443  17.096  13.033 -0.0161  0.0621  0.2332
16286W        W32420   0.816   1.941   2.456 -0.0233 -0.1738  0.0789
16287W        W32421   3.836  17.129   2.370  0.0200 -0.1391  0.3373
16288W        W32422  15.157  11.185   2.862 -0.0119  0.2455  0.2976
16289W        W32423  17.241   7.789   1.238  0.0466 -0.2877  0.2384
16290W        W32424   7.277   8.961   4.159 -0.0462 -0.1611  0.1953
16291W        W32425  18.932  14.290  13.863  0.1938 -0.1333 -0.1962
16292W        W32426   9.926   5.496   4.400  0.1589  0.0902  0.2122
16293W        W32427  12.338   1.996  15.030  0.0419  0.1327  0.1572
16294W        W32428   3.585  12.823   3.743 -0.0222  0.0559 -0.1450
16295W        W32429  11.645   6.288   1.779 -0.3087  0.0257 -0.2370
16296W        W32430  15.363  11.661   2.759 -0.1392 -0.1274 -0.0768
16297W        W32431   5.033   7.704   3.626  0.0060  0.0062 -0.0023
16298W        W32432   1.021   6.246   2.579  0.1458  0.0800 -0.2989
16299W        W32433  17.764   4.935   5.609  0.1088 -0.0973  0.2976
16300W        W32434  11.390   4.171   1.560  0.1426 -0.0818 -0.0576
16301W        W32435  16.667  17.162   3.296 -0.0561 -0.0409  0.0512
16302W        W32436  15.364   2.197   0.395 -0.1059  0.2502  0.1086
16303W        W32437  18.642   5.585  11.903 -0.1274 -0.0439  0.0777
16304W        W32438   1.070  18.947   1.795 -0.0427 -0.0131 -0.1950
16305W        W32439   8.872   1.966  13.066 -0.3030 -0.2797 -0.0783
16306W        W32440   9.149  13.817  10.824 -0.4132  0.1728  0.1187
16307W        W32441  11.853   1.854  14.042  0.1379  0.3587 -0.0292
16308W        W32442   6.876   6.871   4.266  0.2064  0.0891 -0.0277
16309W        W32443  15.939   3.664  12.252 -0.0473  0.1959  0.0093
16310W        W32444   4.272   3.109   1.131  0.3162 -0.1666  0.3441
16311W        W32445   1.931   1.983   3.746 -0.1863 -0.0599 -0.2201
16312W        W32446  13.086  15.550   2.955 -0.1820 -0.0227 -0.1507
16313W        W32447  12.872  16.537  14.780  0.0093 -0.2495  0.1058
16314W        W32448   3.993   5.697   2.209 -0.2133 -0.1060 -0.0532
16315W        W32449  12.917   6.059   5.598 -0.0961  0.5035 -0.0056
16316W        W32450  18.516   1.994  13.017  0.0569 -0.4260  0.1785
16317W        W32451  10.513  11.679   3.683  0.3090 -0.1603  0.4468
16318W        W32452   4.440   9.736   2.216 -0.1982 -0.1709 -0.3770
16319W        W32453  14.442  14.809  15.168  0.0598 -0.1207  0.3222
16320W        W32454   6.813   6.138   2.872  0.0554  0.1000 -0.0671
16321W        W32455  17.833  11.955  14.909 -0.0447 -0.0319 -0.1864
16322W        W32456   4.842  17.641  14.771 -0.1346 -0.3451 -0.2554
16323W        W32457  18.138  14.792  12.236 -0.0964  0.3569  0.0723
16324W        W32458  12.944  15.364  10.641 -0.2515  0.1977 -0.1363
16325W        W32459  18.447   9.260  13.461  0.1389  0.0142 -0.2307
16326W        W32460   0.249  16.947   1.982  0.0198 -0.1176  0.0985
16327W        W32461  14.440  16.853  11.165  0.0737  0.2601  0.3102
16328W        W32462  18.736   4.697   3.582  0.0415 -0.2339 -0.0480
16329W        W32463   9.296  13.962   1.027  0.1701  0.0874  0.2399
16330W        W32464   5.003  12.463  10.255 -0.0170 -0.1891 -0.2110
16331W        W32465   7.302  14.968   3.891  0.0247 -0.0319 -0.0933
16332W        W32466   6.296   3.691   0.289  0.2260 -0.4029 -0.1062
16333W        W32467   6.970  13.998  10.970 -0.0469 -0.2290  0.1683
16334W        W32468  15.513   3.451  12.469 -0.3213 -0.0960 -0.0925
16335W        W32469   7.487   8.139  12.814  0.1505  0.1662  0.1847
16336W        W32470  13.960   2.844   4.412 -0.2533  0.0362 -0.2903
16337W        W32471  12.275  11.429   2.954 -0.0292 -0.1309  0.0010
16338W        W32472  17.014   1.572   2.576 -0.0088 -0.0406 -0.0917
16339W        W32473   8.799  18.773   2.085  0.1363  0.0741 -0.0508
16340W        W32474   6.873   4.872  10.659  0.1408  0.3424 -0.2516
16341W        W32475  17.065   4.675   1.018  0.2963  0.1211  0.1806
16342W        W32476  13.568  15.641   2.618 -0.0122  0.2923  0.2281
16343W        W32477   0.211   1.407   4.490  0.0114 -0.1882 -0.0894
16344W        W32478   2.332  16.997   0.327  0.2544 -0.0032 -0.1709
16345W        W32479   1.088  12.067  10.601 -0.2364 -0.2095  0.2176
16346W        W32480   7.779   3.878  14.931  0.0065  0.2456  0.0096
16347W        W32481  13.252   8.667   3.342 -0.2340 -0.1244 -0.1614
16348W        W32482  16.486  18.856   3.858  0.5202  0.2216  0.1837
16349W        W32483   9.169   3.771  11.167 -0.1616  0.2155 -0.0933
16350W        W32484  10.551   4.252  12.553 -0.1444 -0.0973  0.1399
16351W        W32485  12.538  14.839   5.503 -0.1026 -0.1308 -0.0345
16352W        W32486  11.494   8.893  10.633  0.3246  0.2778 -0.4180
16353W        W32487   3.374  16.466   5.445  0.1757  0.0662 -0.4664
16354W        W32488  14.983  12.315  14.601 -0.2462  0.1372  0.0292
16355W        W32489  17.120   0.427   4.278 -0.0995  0.1012 -0.0883
16356W        W32490  17.164   7.370   3.578  0.2951 -0.1832 -0.1109
16357W        W32491  10.391   3.558  14.170 -0.1747 -0.0998 -0.0236
16358W        W32492  17.170  18.145   4.183 -0.2423 -0.0413  0.1295
16359W        W32493  10.555  13.491   1.515  0.2575 -0.1016  0.1736
16360W        W32494   7.002  12.457   2.078 -0.2472  0.0270 -0.0208
16361W        W32495  18.185   0.005   3.832  0.2139 -0.1933 -0.0877
16362W        W32496   5.660   4.763   0.946 -0.0635 -0.2262 -0.0182
16363W        W32497  15.310  12.315  14.206 -0.0117 -0.0756 -0.3731
16364W        W32498  11.519  10.734  14.100  0.0309  0.2227  0.1919
16365W        W32499  13.293  18.333   0.329  0.0836  0.0037  0.2473
16366W        W32500  15.054  10.517  13.471 -0.0004  0.1513 -0.1715
16367W        W32501   8.063   5.254  14.940  0.2482  0.2518  0.0753
16368W        W32502   4.212   9.799   0.814  0.1161 -0.1080 -0.0696
16369W        W32503  13.848   7.635   3.201  0.1054 -0.0123  0.2584
16370W        W32504   2.646  14.240   4.487  0.1464  0.2841  0.1048
16371W        W32505  14.331  15.605   9.215 -0.2133 -0.1517 -0.6577
16372W        W32506  17.070  10.730   3.974  0.0102 -0.2280  0.0563
16373W        W32507  16.759   9.021  10.669  0.0561 -0.0606 -0.1167
16374W        W32508   0.391   3.646  12.048 -0.0706  0.1732  0.2723
16375W        W32509  10.914  16.214   4.717 -0.1368 -0.1729  0.0880
16376W        W32510   0.276  13.700   1.429  0.0927 -0.1552  0.1981
16377W        W32511  10.884   2.191  11.932 -0.2394  0.0318  0.2761
16378W        W32512  17.258   8.695   0.531 -0.1698 -0.0838 -0.1617
16379W        W32513  15.004   7.539   3.189  0.1954  0.1160 -0.1148
16380W        W32514   2.659   3.361  15.029  0.1606  0.2125 -0.1827
16381W        W32515  14.107  16.545   2.866  0.1227 -0.0635 -0.0882
16382W        W32516  12.177   3.949  12.395 -0.0598 -0.3744 -0.3324
16383W        W32517  16.223  17.692  14.501 -0.2897 -0.2166 -0.2563
16384W        W32518   6.642  13.553   0.695  0.1118 -0.2115  0.1670
16385W        W32519  15.699   7.716  13.097 -0.0745 -0.2433  0.2084
16386W        W32520  15.328   9.045   4.790  0.0225 -0.0715  0.0029
16387W        W32521  13.540  13.883   0.853  0.0593 -0.1978  0.1019
16388W        W32522   1.945  18.125   1.975 -0.2119 -0.3025  0.0172
16389W        W32523  15.394  11.763   3.934 -0.0505  0.1118 -0.0112
16390W        W32524   1.096   5.174   2.111  0.0088  0.3472 -0.0945
16391W        W32525  12.620  12.717   0.036  0.0236  0.0003 -0.2333
16392W        W32526  16.097  11.947   0.652  0.1407  0.0251  0.0184
16393W        W32527   7.026  10.243   1.963  0.2486  0.2455 -0.1661
16394W        W32528   0.341   6.613   5.206  0.1626 -0.1748  0.3084
16395W        W32529   0.946   5.052  11.290  0.1060 -0.0228  0.1056
16396W        W32530  16.089  10.265  11.662  0.0509  0.0473  0.0876
16397W        W32531   5.429   1.076   5.162 -0.0309 -0.0404  0.1821
16398W        W32532   1.301   9.110  13.404  0.2291 -0.0502 -0.4410
16399W        W32533  12.739  11.575   2.854  0.0776  0.2584  0.0907
16400W        W32534   1.248   7.208   3.767 -0.1396  0.0281  0.0969
16401W        W32535   0.913  14.054  14.180 -0.0101  0.3324  0.0966
16402W        W32536   6.032  16.302  10.874  0.1076 -0.0371  0.2645
16403W        W32537   0.207  11.674  13.401 -0.1103  0.2576 -0.3417
16404W        W32538  18.954   7.183  11.869 -0.1112 -0.1038  0.0472
16405W        W32539   0.163  18.679   2.914  0.3796  0.0412 -0.1239
16406W        W32540   3.972   8.923  10.946 -0.1221 -0.1971 -0.1314
16407W        W32541  10.701   9.360   1.406 -0.1944 -0.0006 -0.0258
16408W        W32542  12.768  11.377  14.991 -0.0466  0.0801  0.0780
16409W        W32543  10.232   0.174  12.561  0.0505 -0.0540 -0.2335
16410W        W32544  15.003  14.070  14.887  0.0031 -0.1745  0.5799
16411W        W32545   1.787   2.496  10.495  0.2468  0.0694  0.0509
16412W        W32546   2.178   4.959  12.044  0.0588  0.0094 -0.3565
16413W        W32547   2.837   3.868  12.124 -0.0728  0.1271  0.1729
16414W        W32548   2.645   6.598   3.291 -0.1069  0.0876  0.2418
16415W        W32549  14.489  16.003  11.590 -0.0954 -0.0721 -0.0436
16416W        W32550   3.867   4.076   0.357 -0.1858 -0.3266  0.1381
16417W        W32551   7.363  14.065  15.013  0.2186 -0.0016 -0.1659
16418W        W32552   4.725  16.826  12.197  0.0678 -0.1969 -0.1265
16419W        W32553   4.997   3.283  14.618 -0.1427  0.1337  0.2090
16420W        W32554   8.733  12.833  10.879  0.4719  0.1372  0.0580
16421W        W32555  11.912  11.192  11.040  0.5532 -0.0270  0.1179
16422W        W32556   8.820  11.755   3.593 -0.0525 -0.0757  0.2066
16423W        W32557   1.114  18.357  11.383  0.2095  0.0402  0.3556
16424W        W32558   4.931   8.121  11.567  0.0943 -0.0700  0.0463
16425W        W32559   0.690  13.056   5.047  0.0630  0.2535 -0.0868
16426W        W32560   2.239  16.289   1.471 -0.1076 -0.4038 -0.0289
16427W        W32561  17.011  18.673   0.151  0.1269 -0.1396 -0.0666
16428W        W32562  12.609  11.424   4.543 -0.0003  0.1911 -0.1079
16429W        W32563   1.256  18.607   4.553 -0.2076  0.0790 -0.0226
16430W        W32564  17.424   2.146   2.683  0.0532 -0.2653 -0.0009
16431W        W32565   3.216   6.946   4.576 -0.1221  0.0542  0.1725
16432W        W32566   5.367  17.531  11.162 -0.1386  0.1604 -0.1230
16433W        W32567  15.180   3.474  11.012 -0.2122 -0.1107  0.4193
16434W        W32568  17.897  18.619  14.519  0.0062  0.1606 -0.2957
16435W        W32569  18.300  16.915   4.837 -0.0780  0.0304 -0.2632
16436W        W32570  11.922  16.832  10.008 -0.1106  0.0104 -0.3623
16437W        W32571  13.451  11.692   5.197  0.0197  0.1193 -0.1304
16438W        W32572   0.503  17.126   2.952 -0.0563 -0.0199  0.4467
16439W        W32573  15.792   8.345  11.638  0.2206 -0.1308 -0.0780
16440W        W32574   5.386   7.614   0.083  0.1285  0.0090  0.1024
16441W        W32575   4.562   7.281  11.990 -0.1661 -0.2871  0.0547
16442W        W32576   2.585  18.611  10.551 -0.0466 -0.0245 -0.2241
16443W        W32577   7.118  14.759   3.252  0.0088  0.1920 -0.0912
16444W        W32578  17.338   0.418  15.120  0.1571  0.2291 -0.1006
16445W        W32579   5.352  17.993   4.233 -0.3380  0.1176  0.1115
16446W        W32580  17.720  16.312   1.862  0.0553  0.1219 -0.0466
16447W        W32581  14.747  12.779  15.279  0.1418 -0.0265 -0.0153
16448W        W32582  11.273  11.042   5.385 -0.0722 -0.3492  0.1810
16449W        W32583  11.350   1.386  13.465  0.1211  0.1158  0.0466
16450W        W32584   1.103   3.645   1.245 -0.2510  0.0989 -0.0002
16451W        W32585   7.288  15.884  13.692  0.1443 -0.1793 -0.0435
16452W        W32586  12.490   1.713   4.588  0.0339  0.0521 -0.0012
16453W        W32587  18.113   5.784   3.243 -0.2344  0.0935 -0.2069
16454W        W32588  18.123   7.343   1.500  0.1024  0.2415 -0.2263
16455W        W32589  13.662   0.296   2.393 -0.2869  0.0242 -0.2117
16456W        W32590   8.945   4.538   1.108  0.1735  0.1375 -0.1573
16457W        W32591   5.489  12.831   1.066 -0.0773 -0.1381 -0.1939
16458W        W32592   5.630   1.300  10.222  0.0447 -0.0457 -0.0511
16459W        W32593  14.237  11.279   2.340 -0.1249 -0.0996  0.1782
16460W        W32594   8.046   3.871   3.974  0.0031 -0.2333 -0.2739
16461W        W32595   3.784  10.510   1.891  0.2427 -0.1815  0.1600
16462W        W32596  15.303   6.487  11.834 -0.1203 -0.0744  0.1173
16463W        W32597   2.219  14.910   1.967 -0.0562  0.1000  0.2494
16464W        W32598  15.977   6.755   5.507 -0.1869  0.1546 -0.2559
16465W        W32599  16.378  17.865   4.084 -0.1855 -0.2041 -0.1708
16466W        W32600   3.950   0.385   2.652  0.0003  0.0494  0.1758
16467W        W32601  11.936   7.874   5.903 -0.0308 -0.1039 -0.1887
16468W        W32602   3.892   8.418   5.002 -0.0717  0.5275 -0.2995
16469W        W32603   3.488   9.526  11.561  0.0678  0.1011 -0.0224
16470W        W32604   6.359  10.018   4.795 -0.1923  0.0163 -0.1829
16471W        W32605  11.133   7.413   1.225 -0.1769  0.3498 -0.0244
16472W        W32606  14.186  12.763  11.091  0.0919  0.0300  0.0079
16473W        W32607  16.395   0.211  13.785  0.3054 -0.1074  0.1456
16474W        W32608   7.813  14.950   3.752  0.2872 -0.0816  0.1684
16475W        W32609   9.482  10.465   4.505  0.0899  0.0733  0.0888
16476W        W32610  18.083   2.786   4.437  0.1254  0.1872 -0.2935
16477W        W32611  15.370   5.269   2.151 -0.1142 -0.1883 -0.1577
16478W        W32612   8.301   9.284   3.579  0.1953 -0.1072 -0.1442
16479W        W32613   9.609  11.736  13.103  0.2405  0.0307  0.2419
16480W        W32614  12.295  18.429   3.546  0.0862 -0.2821 -0.1159
16481W        W32615   2.387   1.793  13.410  0.0299 -0.2472  0.0463
16482W        W32616  14.420  14.816   4.255  0.1034  0.0134  0.2417
16483W        W32617  14.370   1.838   4.447 -0.0800 -0.1181 -0.3830
16484W        W32618  12.762   8.577  10.330  0.1012  0.2323 -0.3437
16485W        W32619  18.774  14.338   2.750  0.0851  0.1835 -0.1145
16486W        W32620   9.526  15.207   3.948 -0.0877 -0.0471 -0.0237
16487W        W32621  10.178  15.747   4.286  0.0182  0.0824  0.1307
16488W        W32622  17.898   1.761   1.817 -0.0910 -0.1811 -0.2845
16489W        W32623  18.357  12.758  12.223 -0.2659  0.2894  0.0486
16490W        W32624   4.516   8.953   3.981 -0.3394 -0.1501 -0.0024
16491W        W32625   7.172  18.627  13.421 -0.0688 -0.1779  0.0045
16492W        W32626   0.201   9.499   2.443  0.0996 -0.0077 -0.1031
16493W        W32627   8.256   8.195  12.174 -0.0326  0.1918  0.0370
16494W        W32628  10.936   0.038   4.634  0.3304 -0.1597 -0.0114
16495W        W32629   3.153   1.076   1.562 -0.2223  0.1461 -0.2459
16496W        W32630   0.522  18.838  12.980 -0.1503  0.0653  0.2764
16497W        W32631   5.872   8.721  12.293  0.0966 -0.0188 -0.0897
16498W        W32632   6.522  15.299   4.346  0.2404 -0.2886 -0.2208
16499W        W32633   3.005  13.040  13.510 -0.1963 -0.0348  0.2374
16500W        W32634  15.632   5.004  12.378  0.1041 -0.1907  0.0009
16501W        W32635   8.032  15.426  13.423 -0.3805 -0.0564  0.0306
16502W        W32636   9.446   9.443   1.665 -0.1773 -0.0898 -0.2151
16503W        W32637   1.240   5.587  13.688  0.1759 -0.0749 -0.2069
16504W        W32638  14.335  16.295   0.609  0.3038  0.0380  0.2963
16505W        W32639  10.837   3.125   2.096  0.0399  0.0423 -0.0404
16506W        W32640   9.288  12.385  10.509  0.2411  0.3032  0.0503
16507W        W32641   2.394  11.809  12.916 -0.0235  0.1007 -0.3588
16508W        W32642   7.037   4.748   4.499  0.0957 -0.1861 -0.0262
16509W        W32643   5.411   7.402   3.547 -0.2361 -0.0477  0.2445
16510W        W32644   9.519   2.905  13.887 -0.3406  0.1926 -0.0263
16511W        W32645  12.981  10.923  11.833  0.1473 -0.1214  0.1643
16512W        W32646   7.313   0.462   0.616  0.1560 -0.0091 -0.1955
16513W        W32647  10.723  14.437  12.534  0.3037 -0.4599  0.3172
16514W        W32648   8.324  14.468  13.997 -0.1335  0.1004  0.0342
16515W        W32649  18.488   2.890   1.402  0.1183 -0.1134  0.1494
16516W        W32650  12.011  18.267   0.462  0.2538  0.0303 -0.2963
16517W        W32651   8.600   2.206  13.497  0.0627 -0.1147  0.1935
16518W        W32652  11.830  17.188  12.974  0.4690 -0.0739 -0.0261
16519W        W32653  16.997   8.091  14.408 -0.2193 -0.1309 -0.2048
16520W        W32654   6.224  13.869   9.678 -0.2509  0.1740  0.2023
16521W        W32655  11.878  13.341   3.451 -0.1181  0.3511 -0.2860
16522W        W32656   2.024  13.670   0.609 -0.0271 -0.2350 -0.0811
16523W        W32657   3.976  15.934  15.288  0.1346 -0.3238  0.2894
16524W        W32658  14.505   4.623  14.115 -0.2124 -0.1262 -0.2157
16525W        W32659  15.708   9.576  10.936 -0.0574 -0.0030  0.1079
16526W        W32660  11.878   6.344   0.933 -0.0205  0.0328  0.3171
16527W        W32661   5.313  18.534  13.607  0.1218 -0.0924  0.2015
16528W        W32662   2.650   4.320   5.196  0.0281 -0.0596  0.0067
16529W        W32663  18.991   7.650  10.859  0.0017  0.1964 -0.3867
16530W        W32664   4.709  15.170   1.129  0.1871  0.0595  0.0799
16531W        W32665   9.609   0.991  14.922  0.2157  0.1865  0.0667
16532W        W32666   8.599   0.281   9.436 -0.0442  0.0348  0.0191
16533W        W32667   3.848  10.534   3.781  0.1667  0.1637 -0.0216
16534W        W32668  12.759   4.406   0.956 -0.1668 -0.2449 -0.1243
16535W        W32669   1.923  17.272   2.735  0.2202  0.0809  0.3736
16536W        W32670  12.194   6.529  13.954  0.2525 -0.1064 -0.3188
16537W        W32671  10.937   3.876  14.547 -0.2259  0.1340 -0.2435
16538W        W32672   9.507  12.809   0.964  0.3490 -0.1960  0.0336
16539W        W32673   6.957   2.093   3.869  0.4397 -0.0998 -0.0188
16540W        W32674   9.143   7.885   4.748  0.2337 -0.0353  0.0419
16541W        W32675  14.727   4.584   3.741  0.0310 -0.3022 -0.3668
16542W        W32676   5.755   2.651  11.064  0.0955 -0.2643  0.1515
16543W        W32677   9.771   8.049   2.652 -0.0497 -0.0492 -0.1126
16544W        W32678   3.765  18.475  11.968  0.1353 -0.0343  0.0951
16545W        W32679   8.388   3.392   3.063  0.1367 -0.0838  0.0164
16546W        W32680   8.249  18.938  15.221  0.0640  0.3994  0.1736
16547W        W32681   8.840  16.146  15.156 -0.4414  0.1658 -0.1295
16548W        W32682   1.132  14.439  14.332 -0.0609  0.2115 -0.0818
16549W        W32683   4.405  12.775   2.909  0.1568  0.0112  0.1143
16550W        W32684  16.963  15.230  10.679 -0.1689 -0.1119  0.2685
16551W        W32685   5.612   6.434  14.029 -0.0515 -0.4803 -0.0070
16552W        W32686  11.217   8.224   3.769  0.0439  0.4341 -0.3119
16553W        W32687  16.092   1.878  10.164 -0.0941 -0.0753  0.2219
16554W        W32688   9.659   2.403  13.748  0.0808  0.4313 -0.2103
16555W        W32689   2.780   1.737  14.731 -0.0811 -0.1468 -0.2879
16556W        W32690  17.554  12.468  13.106  0.0243  0.2724 -0.0652
16557W        W32691   4.018  17.006  15.225 -0.0686 -0.0985  0.1527
16558W        W32692  17.150   4.279  13.265 -0.2918 -0.1509 -0.3043
16559W        W32693  18.885   4.097   5.846 -0.0347  0.1128  0.0074
16560W        W32694  13.426   5.892  10.302  0.1030  0.1104 -0.1009
16561W        W32695   2.390  15.712   3.373  0.0974 -0.2761 -0.0491
16562W        W32696   6.267   6.801  13.118 -0.1066  0.0342 -0.0025
16563W        W32697  11.407  18.167  13.671 -0.1561  0.0460  0.3006
16564W        W32698  13.646  14.920  14.241  0.0768  0.1525 -0.2403
16565W        W32699  17.954   8.184   2.806  0.0034  0.1624  0.0524
16566W        W32700  18.076   2.716   2.866 -0.2728  0.1334 -0.0675
16567W        W32701   4.843  17.594  12.513  0.0825 -0.1141 -0.0734
16568W        W32702   6.053   3.375  14.746  0.2715  0.3903  0.3932
16569W        W32703   7.654  10.228  13.521  0.1054 -0.0181  0.1129
16570W        W32704   2.262   4.829  15.000 -0.3556 -0.4438 -0.2235
16571W        W32705   9.989   7.259   0.983  0.3844  0.1045 -0.0827
16572W        W32706  14.066   4.869   1.879  0.1468  0.0697 -0.1292
16573W        W32707   1.242  17.764   2.626  0.3544  0.3335  0.3711
16574W        W32708   5.604  10.523   2.325 -0.0127  0.0107  0.1492
16575W        W32709   7.808  15.313   2.798 -0.1089  0.2288  0.1071
16576W        W32710  15.291   6.300   4.621  0.1476  0.0831  0.1295
16577W        W32711   7.403   6.713   3.997 -0.1905  0.1958  0.0244
16578W        W32712   5.703   8.210   4.640  0.0162  0.0137 -0.1557
16579W        W32713  13.477   6.005  11.234 -0.3190 -0.2975 -0.0618
16580W        W32714   5.154  10.621  13.754 -0.0067  0.1312 -0.1362
16581W        W32715  14.192   7.633  13.572  0.1720  0.0988  0.1351
16582W        W32716  11.522  14.224  12.501 -0.0557  0.0772 -0.3951
16583W        W32717   2.360   9.170   2.870  0.0987 -0.1833  0.4880
16584W        W32718  17.582   4.891   1.051  0.0524 -0.1237 -0.0729
16585W        W32719   3.786   0.916   2.604 -0.0409 -0.1134  0.0267
16586W        W32720   5.658  11.190   0.573  0.0535 -0.1132 -0.3243
16587W        W32721  16.854  16.893  11.462 -0.0768 -0.1966  0.0339
16588W        W32722   0.935  10.918   1.116  0.0154 -0.0929  0.1613
16589W        W32723   3.382  10.249  13.310 -0.1564  0.1321 -0.0706
16590W        W32724  10.664   7.829   1.582 -0.2565  0.1056 -0.1588
16591W        W32725  18.837  15.347   0.404 -0.4155 -0.1377  0.1270
16592W        W32726   7.267  12.223  13.287  0.1706  0.1387 -0.0049
16593W        W32727   6.121  19.005   0.403 -0.0297 -0.2349  0.2702
16594W        W32728  10.924   8.607   3.884 -0.1738  0.2524  0.0110
16595W        W32729   0.159   8.359   4.085  0.2681 -0.3127 -0.2808
16596W        W32730  16.862  17.263   1.464 -0.1408  0.4383 -0.0066
16597W        W32731   2.764   2.452  14.129  0.1273 -0.2843  0.1674
16598W        W32732  10.767   7.714   4.644 -0.0577 -0.2139 -0.2118
16599W        W32733   2.148   9.938   2.962 -0.1473  0.0722 -0.2191
16600W        W32734  12.925   1.405   4.630 -0.0525  0.1905  0.1026
16601W        W32735  10.954  16.916  13.610 -0.0689  0.0832 -0.2714
16602W        W32736  13.545   9.358   3.643  0.1482  0.0708  0.0690
16603W        W32737  11.990   6.958   0.321  0.0294  0.1896 -0.0118
16604W        W32738   2.968   7.624   3.885  0.1529 -0.1789 -0.0270
16605W        W32739   9.150  16.249   0.375  0.0599 -0.0451  0.0465
16606W        W32740  12.033   1.514  12.104 -0.0687  0.1680 -0.2908
16607W        W32741  11.718   4.701   0.150 -0.2007  0.2132 -0.3026
16608W        W32742   5.245   4.646  11.632 -0.1846  0.0226 -0.1113
16609W        W32743   4.043   2.874  14.325  0.1001  0.2169 -0.1331
16610W        W32744  10.517  13.872  12.156 -0.0159  0.2307  0.0718
16611W        W32745  17.475  17.223   1.616 -0.0137 -0.0341 -0.1705
16612W        W32746   4.687   4.852   5.311  0.0327 -0.1486 -0.2277
16613W        W32747  13.900  16.920  11.332  0.0744 -0.2205 -0.3812
16614W        W32748   6.043  16.680  15.219  0.0220 -0.1784  0.2302
16615W        W32749  12.255  13.801   9.927  0.2048 -0.1154 -0.0164
16616W        W32750  18.763   3.045   2.362 -0.0464  0.1992 -0.0034
16617W        W32751  10.493  10.922   2.908 -0.1834  0.2660 -0.0166
16618W        W32752  15.702  12.731  13.409 -0.1477 -0.1893 -0.5200
16619W        W32753  15.289  18.918  11.843 -0.1695  0.3095 -0.0350
16620W        W32754   3.169  11.865  10.584 -0.1023 -0.0092  0.1001
16621W        W32755   2.260   4.599  12.390 -0.1978  0.0540  0.0877
16622W        W32756   0.041   9.460  12.320  0.2744  0.2562  0.0833
16623W        W32757   8.534   0.022  12.906 -0.0707  0.0072 -0.2601
16624W        W32758  16.966   0.859  12.071 -0.0337  0.0679  0.0413
16625W        W32759   6.279   2.734  13.912 -0.1961  0.2363 -0.0305
16626W        W32760   0.985   0.589  13.431 -0.0061 -0.1666  0.2373
16627W        W32761  15.350   7.325   2.095 -0.3791 -0.1086  0.0385
16628W        W32762   9.098  10.135  11.484  0.3961  0.2073  0.0210
16629W        W32763  12.895  16.312  13.804  0.0458  0.1242 -0.1080
16630W        W32764   1.987  18.389  14.549 -0.4067  0.1988  0.2415
16631W        W32765   1.051   1.546   2.723  0.2273  0.1892  0.3253
16632W        W32766  11.373  17.165  12.039  0.1015 -0.1487  0.0559
16633W        W32767  15.937  10.940  14.688 -0.0386 -0.0890  0.1064
16634W        W32768   2.758   6.225  13.843 -0.0337  0.0437  0.2229
16635W        W32769  11.142   0.973  12.049  0.1777 -0.0625  0.1138
16636W        W32770  13.669  15.608  14.770 -0.0644  0.1527 -0.1480
16637W        W32771   9.723   2.488   3.596  0.2753 -0.0423  0.1571
16638W        W32772  17.579  14.489  10.824  0.1389  0.0390  0.2742
16639W        W32773  11.916   9.290   0.623  0.3567  0.2355 -0.0341
16640W        W32774   1.987   6.335   2.897  0.0645 -0.1979  0.4666
16641W        W32775  16.503   6.211   3.812 -0.0763  0.2269 -0.2936
16642W        W32776   0.053  12.173  13.417 -0.3248 -0.2079  0.3102
16643W        W32777  17.043   1.244  13.113 -0.2095 -0.2765 -0.2138
16644W        W32778  13.998  10.829   1.167 -0.0233 -0.0449  0.0924
16645W        W32779  11.387  14.260   3.406 -0.0237 -0.2609  0.1792
16646W        W32780  15.019   8.830   5.190 -0.1269  0.1147 -0.0601
16647W        W32781   5.853   6.412  14.492  0.1320 -0.2649  0.0865
16648W        W32782   7.954   0.171   3.899 -0.3967 -0.1410 -0.1491
16649W        W32783   2.386  16.371  11.672 -0.2742 -0.0439 -0.2161
16650W        W32784  18.034  12.660  10.676  0.0202 -0.3033  0.3212
16651W        W32785  11.979  12.807  12.589 -0.0920  0.1366 -0.1272
16652W        W32786  14.763  10.372  11.133 -0.2347  0.0877  0.0485
16653W        W32787   6.948   5.740  14.630 -0.2221  0.3533  0.1365
16654W        W32788  11.125  12.837  11.924 -0.1685  0.0132 -0.1423
16655W        W32789  18.773  14.391   3.306 -0.3457 -0.3244 -0.0480
16656W        W32790  14.780   1.807   4.112 -0.0707  0.0800 -0.1813
16657W        W32791  12.232   5.754   9.801  0.0154  0.0027 -0.0294
16658W        W32792  18.742   4.998  10.751 -0.3519  0.0432 -0.0478
16659W        W32793   2.449   8.384   4.526 -0.0751  0.0972 -0.1922
16660W        W32794  16.211  15.613   1.541  0.2131 -0.2608 -0.0991
16661W        W32795  17.460   0.753   5.726 -0.3593  0.1509 -0.1753
16662W        W32796   9.702  18.123  11.717  0.1950  0.0395 -0.0613
16663W        W32797  16.481  17.639   0.477 -0.0554 -0.2377 -0.0611
16664W        W32798   6.680   8.579  11.492 -0.0210 -0.1735 -0.0017
16665W        W32799  13.296  15.234  14.822  0.3031  0.3279  0.1147
16666W        W32800   7.305  14.553  14.469  0.1591  0.4176 -0.2586
16667W        W32801   2.173   3.454  10.801  0.0551  0.2409  0.0210
16668W        W32802   0.866   4.735  10.781  0.0653  0.0673 -0.0515
16669W        W32803   5.497  13.588   3.045  0.0333  0.1270  0.0056
16670W        W32804   5.172  11.723  11.579 -0.1978 -0.0434  0.2424
16671W        W32805  18.732   7.321   2.728  0.0785  0.0793  0.1087
16672W        W32806   5.478  12.226   3.132 -0.0200  0.1118 -0.1241
16673W        W32807   1.813  16.361   5.701  0.3577 -0.3696 -0.0312
16674W        W32808  16.182  11.729  12.349  0.0734 -0.2642  0.0541
16675W        W32809  15.802   5.014  14.132 -0.0580  0.1030 -0.0221
16676W        W32810   4.460  16.420   4.390 -0.1650  0.0948  0.1107
16677W        W32811   5.482   6.366   2.254  0.2359 -0.0929  0.2851
16678W        W32812  14.150  13.716  10.809  0.2667 -0.0548 -0.0598
16679W        W32813   3.870   9.350  11.225  0.1859  0.2078 -0.1775
16680W        W32814  17.951  17.022   1.435  0.1542 -0.3998  0.2360
16681W        W32815  18.824   1.465   5.381  0.1788 -0.3130 -0.1064
16682W        W32816  12.215   0.691   3.457 -0.0217  0.2421 -0.1159
16683W        W32817   2.004   9.307   5.024 -0.0152 -0.1918  0.1859
16684W        W32818  18.957   1.666  10.740 -0.2339  0.1459 -0.2871
16685W        W32819  14.810   5.458  13.603  0.2356 -0.1375  0.0546
16686W        W32820   9.591   9.709   2.206  0.2012 -0.0177 -0.2151
16687W        W32821   5.491  13.092  13.544  0.1211  0.1466  0.0999
16688W        W32822  15.711   6.491   4.505 -0.2017  0.1872 -0.0823
16689W        W32823   8.240  15.752   0.428  0.0083 -0.2025  0.0894
16690W        W32824  10.681  11.155   1.125  0.2222 -0.2967 -0.2889
16691W        W32825   8.832   4.862   3.088 -0.2568  0.1790 -0.1329
16692W        W32826  14.178  17.579  14.398 -0.1523 -0.0781 -0.0169
16693W        W32827   5.325   9.392   4.539  0.0301  0.3531 -0.3375
16694W        W32828  14.165   0.972  13.982  0.0752  0.1145  0.0052
16695W        W32829  17.095   2.763  10.220 -0.2386 -0.0919  0.0619
16696W        W32830  10.677  11.422   2.742  0.1705 -0.0720  0.0400
16697W        W32831  12.080  17.466  14.261  0.1542 -0.1377  0.0177
16698W        W32832   6.598   4.520  10.459 -0.0414 -0.2025  0.2253
16699W        W32833   0.414  14.583   4.089 -0.1433 -0.2737 -0.1211
16700W        W32834  15.731   2.201   3.900  0.2598  0.2805  0.0430
16701W        W32835  10.651  18.030   1.966  0.2012  0.1368 -0.2838
16702W        W32836  16.380   1.104   4.519  0.4516  0.1417  0.2577
16703W        W32837  14.259   4.653   4.228 -0.2708 -0.0467 -0.2378
16704W        W32838  14.642  17.366  15.219  0.5051 -0.2755  0.1302
16705W        W32839  11.095   1.676  11.440  0.0284 -0.1252 -0.1636
16706W        W32840   8.529  17.343   3.691 -0.1747  0.0900  0.0330
16707W        W32841  18.955  18.942   2.542  0.0800 -0.0899  0.0119
16708W        W32842  16.655   3.286  14.797 -0.0084  0.1332  0.1539
16709W        W32843   6.224   9.531  11.001 -0.1610 -0.1195 -0.0273
16710W        W32844   8.390  11.221   0.833 -0.0195 -0.1950 -0.0600
16711W        W32845   3.236  16.221   1.333 -0.0918  0.1147 -0.0280
16712W        W32846   2.340   0.375   3.008  0.0991  0.1689 -0.0228
16713W        W32847   3.768   5.045   1.706  0.2167 -0.0011 -0.1901
16714W        W32848  18.902   9.535   2.980  0.0219 -0.0138 -0.2194
16715W        W32849  12.733  17.619   5.143 -0.3512 -0.3726 -0.0950
16716W        W32850  13.714  12.584   0.600  0.0468 -0.2428  0.1909
16717W        W32851  17.286  14.193  12.277  0.1994 -0.1265  0.1811
16718W        W32852   0.815  15.742   2.658  0.0522 -0.2155  0.2564
16719W        W32853  11.926  12.422   5.645  0.0649 -0.1530 -0.0253
16720W        W32854  11.189  12.990   1.842  0.2934  0.1817  0.2636
16721W        W32855  13.156  10.916   2.763 -0.0074  0.1496 -0.2088
16722W        W32856   6.610   2.821   2.401 -0.0660 -0.3606 -0.1142
16723W        W32857  14.058   7.081   2.056  0.0615  0.0385 -0.2993
16724W        W32858   4.250   9.476  13.116 -0.0802 -0.2499  0.0245
16725W        W32859  15.156  15.854  10.593 -0.1011 -0.0201 -0.1343
16726W        W32860  15.997   9.272  13.662  0.2668  0.3139  0.2531
16727W        W32861  14.810  10.285  14.433  0.0001 -0.0390  0.0947
16728W        W32862  17.069   9.451  13.505 -0.0629  0.1414  0.1055
16729W        W32863  11.269  13.381   5.990  0.2382  0.0922 -0.3052
16730W        W32864  14.946   8.620  15.069  0.1535  0.1278  0.3831
16731W        W32865  14.122  15.794   4.165 -0.0119 -0.0008  0.3651
16732W        W32866   2.679   5.340  10.939  0.3064 -0.0156  0.1117
16733W        W32867   2.148   4.572   4.201  0.2242  0.0664  0.1818
16734W        W32868   1.201  18.807   0.220  0.0978  0.0465 -0.1913
16735W        W32869  16.592   8.434  15.155  0.0171  0.2225  0.2243
16736W        W32870   1.383   2.769  10.669  0.2529  0.3543 -0.2780
16737W        W32871   9.088   0.074   1.114 -0.1366 -0.0282  0.1076
16738W        W32872  13.204   0.793   1.553 -0.1505 -0.0850 -0.1366
16739W        W32873  14.748  16.307  12.229 -0.4038  0.0086 -0.1846
16740W        W32874  13.320   6.255   2.102 -0.0162 -0.1532  0.0689
16741W        W32875   8.941   8.350   3.040 -0.1388  0.0412  0.0158
16742W        W32876   4.841  15.273   2.430  0.0352 -0.0902  0.1217
16743W        W32877  15.993  14.908   1.059  0.2057 -0.0709 -0.0690
16744W        W32878   9.478   8.887   4.782 -0.0085 -0.2699 -0.2910
16745W        W32879  15.413  12.479   4.050 -0.2867  0.3426  0.0077
16746W        W32880   1.509   1.137   4.637  0.1695  0.0219  0.1498
16747W        W32881   0.111  17.933  14.914 -0.1572  0.0283 -0.0233
16748W        W32882  10.740   5.274  13.928  0.1059  0.0044  0.1498
16749W        W32883  10.661  17.469  12.212 -0.0621 -0.1069  0.3260
16750W        W32884  10.230  11.481   5.206 -0.4547 -0.0244  0.1618
16751W        W32885   0.335  10.592   5.174  0.0591 -0.1250  0.1174
16752W        W32886  12.703  10.276   4.283 -0.1751  0.0113 -0.0969
16753W        W32887   9.936  13.952   3.564  0.1633 -0.1850 -0.5697
16754W        W32888  10.556   2.120   3.153 -0.0816  0.0463 -0.0824
16755W        W32889  12.636   8.133   2.780 -0.3023  0.0714  0.0037
16756W        W32890   2.353   1.659  14.478 -0.0632  0.0504 -0.3511
16757W        W32891   4.857  16.587  12.665 -0.1796  0.1245 -0.1028
16758W        W32892  18.105   7.906   0.512 -0.0293  0.2443  0.0772
16759W        W32893   8.658   7.145   0.145  0.0411 -0.1395 -0.0797
16760W        W32894   7.470  18.179   0.218 -0.0722  0.1215  0.0402
16761W        W32895   8.298   9.551  13.142 -0.1994 -0.0658 -0.1006
16762W        W32896   6.133   3.211   4.228  0.1023  0.0387 -0.0375
16763W        W32897   0.011  15.512  13.481  0.1428  0.1229  0.2106
16764W        W32898  13.503   5.370  12.039 -0.0301  0.0557  0.1348
16765W        W32899  10.516   2.174   9.969 -0.0101 -0.1124 -0.2553
16766W        W32900   2.350   7.218   4.929  0.0435 -0.1094 -0.0725
16767W        W32901  15.098   9.714  13.611 -0.0831 -0.0173 -0.2691
16768W        W32902   9.866  12.943   1.251  0.0406 -0.1609  0.4028
16769W        W32903   3.116   8.851   4.234 -0.0826 -0.1314  0.0026
16770W        W32904  16.954   8.361   4.375 -0.2071 -0.0851 -0.0912
16771W        W32905   1.955  18.819  14.864 -0.0915  0.0564  0.0267
16772W        W32906   8.799   7.550  13.584  0.0046  0.0393 -0.0672
16773W        W32907   6.722   7.646   1.539 -0.0643  0.3890 -0.3340
16774W        W32908  13.646  17.815  11.132 -0.5769 -0.0068  0.1141
16775W        W32909  14.993  15.779  12.282 -0.2448 -0.0113 -0.2268
16776W        W32910  14.292   0.636  13.131  0.3036 -0.0318  0.2287
16777W        W32911   4.719   2.008  10.882  0.1258 -0.0153  0.2372
16778W        W32912   4.307   8.089   0.852 -0.0126  0.2525  0.1981
16779W        W32913   0.449  17.223  10.793 -0.1266 -0.2169 -0.1750
16780W        W32914  17.201  16.958   1.185  0.1284 -0.1335 -0.1178
16781W        W32915  12.351   3.452   3.485  0.3233 -0.0060 -0.0624
16782W        W32916  17.914  12.304   2.585  0.0999  0.2029  0.1093
16783W        W32917  15.960  13.017   2.970 -0.1246  0.3796 -0.1274
16784W        W32918  14.176   4.523   5.020 -0.1876 -0.0697 -0.0601
16785W        W32919   3.427   1.160  12.246 -0.0278  0.0660 -0.0331
16786W        W32920  17.092  16.875  13.787 -0.0296  0.1103  0.4121
16787W        W32921   2.532   9.306   3.774  0.0109  0.0863  0.3030
16788W        W32922   6.859   0.108  10.528  0.0318 -0.1819 -0.1037
16789W        W32923  10.672   9.075  15.212  0.0411 -0.1972  0.0014
16790W        W32924   2.232   8.511  12.941  0.1986  0.2294 -0.0136
16791W        W32925  17.763   6.123  13.403 -0.0692 -0.2343 -0.0007
16792W        W32926  18.848   8.328   3.015 -0.1326  0.3359  0.0103
16793W        W32927   1.413  10.297   1.786  0.0546 -0.1929 -0.0869
16794W        W32928   9.830   4.338   0.245 -0.0589  0.0891 -0.1129
16795W        W32929  17.680   0.228   3.754  0.0538 -0.0252 -0.1823
16796W        W32930   1.080  11.537  12.753  0.0293 -0.0934  0.2125
16797W        W32931   4.743   1.909  14.036 -0.1012 -0.4668 -0.1957
16798W        W32932   8.718  14.555  12.291 -0.2157  0.1692  0.0802
16799W        W32933  10.618   0.968  14.721 -0.1208 -0.3141  0.0585
16800W        W32934   8.749   5.453   2.307  0.1589  0.1379 -0.0154
16801W        W32935  11.975  12.050  13.433  0.2597  0.1367  0.1976
16802W        W32936   4.215  12.544   1.620  0.0941 -0.0507  0.1777
16803W        W32937  15.091   6.438   1.013 -0.0969  0.2273  0.0596
16804W        W32938  16.975   4.878   0.030  0.2146 -0.1221 -0.0303
16805W        W32939   1.763   2.468   4.542 -0.1068 -0.1616  0.1475
16806W        W32940   4.175   1.535  14.735 -0.0863 -0.1415  0.1278
16807W        W32941   1.661   9.006  14.628 -0.0042  0.2016 -0.0231
16808W        W32942   5.148   2.360  13.967 -0.3023  0.1412  0.0498
16809W        W32943  16.700   7.054   5.760 -0.0162 -0.0010 -0.1515
16810W        W32944  15.088  18.363  13.547  0.1636  0.1056  0.2296
16811W        W32945  15.110  13.882   1.119 -0.1402  0.1542 -0.0792
16812W        W32946   4.758  16.624   4.782 -0.0405 -0.0878 -0.0698
16813W        W32947  18.124  13.658   4.541  0.1886  0.0268 -0.0125
16814W        W32948   0.708  17.012   4.762 -0.0928  0.4219  0.0928
16815W        W32949   6.040   3.956  10.832  0.0829 -0.3199 -0.0243
16816W        W32950   1.865   9.849  12.194  0.3035 -0.0029  0.0642
16817W        W32951   5.685   9.995  14.951  0.0207 -0.1386 -0.2057
16818W        W32952   2.214  14.911   4.909  0.3258  0.1016 -0.2139
16819W        W32953  16.516  17.827   0.043  0.2822 -0.2588 -0.1849
16820W        W32954   5.360   7.272  13.565  0.3916 -0.1657  0.1871
16821W        W32955   9.444  14.205   3.559  0.1631 -0.1671 -0.0674
16822W        W32956   8.259   4.129  14.359 -0.5423 -0.0807  0.0156
16823W        W32957   0.354  16.364   5.142 -0.0742  0.0310  0.2025
16824W        W32958   2.005  18.926  13.201  0.1882 -0.1899  0.2174
16825W        W32959  15.500  11.626  11.091 -0.2708 -0.3319  0.1178
16826W        W32960  16.357   1.711   0.648 -0.1049  0.0108 -0.2343
16827W        W32961  13.977  13.942   3.229 -0.0511 -0.1037 -0.1157
16828W        W32962  14.403   1.160   4.275  0.2306 -0.0246 -0.0127
16829W        W32963   4.278  10.046  10.596 -0.2040  0.2443  0.0206
16830W        W32964   6.872   0.696  11.297  0.2047  0.1214  0.1217
16831W        W32965  11.149   8.964  14.454  0.5002  0.0748 -0.2366
16832W        W32966  18.188   9.131  12.221  0.1451  0.2090 -0.2404
16833W        W32967  10.320  14.547  12.822 -0.0884  0.2893 -0.2099
16834W        W32968   5.734   1.001  13.561  0.0470 -0.2042 -0.2822
16835W        W32969   3.792   8.701  11.906 -0.1024  0.1505  0.1221
16836W        W32970   6.599   3.453  14.059 -0.3091 -0.0137 -0.0040
16837W        W32971  13.512   9.775   1.901 -0.1905  0.3550 -0.1761
16838W        W32972   5.937   6.107   1.102  0.2279 -0.0323  0.1709
16839W        W32973  17.729  14.816  14.943 -0.1556 -0.2112 -0.0606
16840W        W32974  18.066   9.695   4.379  0.1609  0.1731  0.2709
16841W        W32975  12.760   0.115   1.293 -0.1425 -0.2827 -0.0878
16842W        W32976   2.041  12.839  11.843 -0.0948  0.0929  0.0408
16843W        W32977   9.879   4.625   1.190  0.0052  0.1316 -0.1478
16844W        W32978  13.131  11.995   2.982 -0.0588  0.2621  0.0632
16845W        W32979  10.102   6.951  11.273 -0.1298 -0.0072  0.0939
16846W        W32980  17.493   8.607  10.575  0.0335  0.0050  0.0868
16847W        W32981   8.758   4.760   3.592 -0.1294  0.0622 -0.1638
16848W        W32982  11.991  10.305   3.760 -0.0318  0.0663  0.2811
16849W        W32983  14.852  16.784  10.807  0.1280  0.3328  0.1768
16850W        W32984  12.956   0.157  14.310 -0.0471  0.1543  0.2519
16851W        W32985  15.902  13.021  10.920  0.2217 -0.4695 -0.0580
16852W        W32986  18.815   9.807  11.805 -0.0822 -0.0807 -0.3123
16853W        W32987   5.299  14.450   5.222  0.2259  0.0001  0.2127
16854W        W32988  10.644  17.876   1.437  0.2152  0.0027  0.0620
16855W        W32989   2.955  14.327   1.942 -0.1561 -0.2722  0.2507
16856W        W32990   7.211  11.654   0.749  0.1967  0.1193 -0.0876
16857W        W32991  18.062  17.742  12.622  0.1936  0.0468  0.0517
16858W        W32992   5.158  11.255  12.929 -0.0216 -0.1414 -0.1416
16859W        W32993   3.289   3.194   2.623 -0.2306 -0.0258 -0.0081
16860W        W32994  17.565   2.505  10.337  0.3409  0.2658  0.1004
16861W        W32995  12.597   6.228  15.266  0.1278  0.2792 -0.1250
16862W        W32996   4.074   0.995  13.383  0.0256  0.1929  0.0381
16863W        W32997   4.480  10.210  12.130 -0.2279 -0.3244  0.0130
16864W        W32998  13.321  14.151   1.617  0.1495  0.1311  0.1089
16865W        W32999   5.992  16.647  14.602  0.0856  0.3284  0.4049
16866W        W33000   6.084   9.498   4.794 -0.1158 -0.1616 -0.1313
16867W        W33001   6.731   5.935  10.501 -0.0672 -0.2684 -0.3091
16868W        W33002   6.628   9.181   1.203  0.0687  0.3064 -0.0968
16869W        W33003  12.433  11.000  15.026 -0.1169 -0.2603  0.0069
16870W        W33004   3.576  13.879   1.202 -0.0887 -0.3260  0.0939
16871W        W33005  12.632  12.625   4.464 -0.1221 -0.1626 -0.0606
16872W        W33006   1.859  11.516   1.686  0.2473 -0.0650  0.0166
16873W        W33007   4.755   1.647   0.654 -0.0587 -0.1401 -0.0807
16874W        W33008  13.469   4.550  13.487 -0.1055 -0.0346 -0.0577
16875W        W33009   7.149  11.321  12.231 -0.0344  0.0856  0.1643
16876W        W33010  17.983   1.598  11.353  0.1358  0.4135  0.1770
16877W        W33011   9.531   8.171  15.025  0.1562  0.0182 -0.1423
16878W        W33012  10.913   6.855  12.586  0.1650  0.0656 -0.3001
16879W        W33013  14.405  17.711   3.063 -0.0212  0.0034 -0.2414
16880W        W33014  10.257  14.408   4.888  0.0687  0.0748 -0.2616
16881W        W33015  11.233   6.298   0.823 -0.1419  0.0058  0.1212
16882W        W33016   6.627   4.556   3.144 -0.2588  0.2666  0.1129
16883W        W33017  16.847  14.811  11.819  0.0775  0.1156  0.1402
16884W        W33018  12.334   1.573  14.036 -0.1315 -0.2804 -0.2082
16885W        W33019   7.437   4.787   4.950 -0.0212  0.0178 -0.0496
16886W        W33020  14.530  15.827   3.003 -0.0633  0.0472  0.0662
16887W        W33021   3.040  16.177  10.572  0.0962  0.1998 -0.1683
16888W        W33022   4.033   5.572  15.257  0.1829  0.2766 -0.1707
16889W        W33023   4.135  12.762  14.235 -0.3520 -0.3974 -0.0597
16890W        W33024   1.068  17.899   1.993  0.1761 -0.1704 -0.0617
16891W        W33025   5.852   5.781   3.066 -0.0007 -0.2346  0.1216
16892W        W33026  15.315  17.843  14.916  0.1733 -0.1176  0.0430
16893W        W33027  14.002  18.425   2.861 -0.0394  0.2688 -0.1220
16894W        W33028  10.188   9.856   3.661 -0.2225  0.2834 -0.1003
16895W        W33029   2.709   7.090  11.895  0.0626  0.1392 -0.1046
16896W        W33030   8.300   4.332   4.084 -0.1787 -0.1975 -0.0979
16897W        W33031   4.933  12.543  11.328 -0.0388  0.2031 -0.0457
16898W        W33032  16.905  16.536  14.749  0.2258 -0.2894  0.1306
16899W        W33033  14.462   6.729   2.114 -0.0731 -0.1452  0.1400
16900W        W33034   2.248  17.727  11.291 -0.0518 -0.1442  0.5389
16901W        W33035   5.247   7.318  10.257 -0.2191  0.0626 -0.0065
16902W        W33036  18.964  17.661   5.087  0.1287  0.4691 -0.1120
16903W        W33037  13.468  17.515  10.341  0.1083  0.0280 -0.0736
16904W        W33038  10.291   3.677  13.638  0.2212 -0.2292 -0.0791
16905W        W33039  11.064   2.738  13.202 -0.3008  0.0797 -0.0966
16906W        W33040   9.818   6.263   2.003  0.0943 -0.0252  0.0379
16907W        W33041   5.079  13.027   0.505  0.1335 -0.0132 -0.1930
16908W        W33042   9.780  12.860   1.767 -0.4704  0.1031 -0.1422
16909W        W33043  16.875   7.467  14.778  0.4425  0.1129  0.0416
16910W        W33044   1.167   2.949  12.233 -0.0281 -0.0821  0.1053
16911W        W33045  11.313   4.232  12.429  0.0624 -0.1863  0.1412
16912W        W33046   4.625  18.376  14.282 -0.0452 -0.0139  0.0225
16913W        W33047  12.208   1.044  15.253  0.2703  0.1806  0.0354
16914W        W33048   0.847   5.162  11.784  0.0189 -0.0814 -0.1414
16915W        W33049  12.745   0.939  11.048 -0.2462 -0.0583  0.0089
16916W        W33050   8.812   4.988  11.829 -0.0739  0.0860  0.2509
16917W        W33051   2.789  17.417   4.234  0.1365 -0.1890  0.0140
16918W        W33052   9.600   8.512  11.598  0.0415 -0.0232 -0.1651
16919W        W33053  17.064  14.055   1.278  0.1892 -0.1769  0.1808
16920W        W33054  12.628  17.201   1.151 -0.0850 -0.0629 -0.2998
16921W        W33055   2.680  10.671   3.302 -0.2047 -0.1327  0.1117
16922W        W33056   4.633   8.058   3.855 -0.1297 -0.2057  0.2510
16923W        W33057   8.410   3.261   2.448 -0.3115  0.2641  0.1419
16924W        W33058   2.890  13.360   0.833 -0.1028  0.2192  0.1849
16925W        W33059   4.266  18.388  10.836 -0.2449  0.1586  0.0452
16926W        W33060   7.339  15.250  11.699  0.0702  0.2217  0.0817
16927W        W33061   0.875   4.576   3.838 -0.2505  0.1441  0.2762
16928W        W33062  18.723  18.183  12.174 -0.0182  0.2378  0.0210
16929W        W33063   4.035   1.557   1.366  0.1849  0.2104  0.0577
16930W        W33064   2.542  17.189  14.512  0.2061  0.0799 -0.1414
16931W        W33065   0.077  12.899  10.152  0.1149 -0.4502 -0.1514
16932W        W33066   8.215  15.069  14.524  0.0201 -0.3750  0.0622
16933W        W33067  10.633   7.189  10.326  0.2177 -0.2320  0.0434
16934W        W33068   5.602  17.669  13.901 -0.0005  0.0748  0.0076
16935W        W33069   3.641  14.562   2.850 -0.1801  0.2043  0.1529
16936W        W33070  11.183  12.260   3.175 -0.1239 -0.0779  0.1244
16937W        W33071  15.327  18.015   2.421  0.0706 -0.2102 -0.1685
16938W        W33072  12.918   8.841   0.071  0.1000 -0.1807 -0.1587
16939W        W33073   7.273   3.632   1.601 -0.1082 -0.0353 -0.2798
16940W        W33074   2.391   3.934  11.055  0.1846  0.2181  0.1750
16941W        W33075  13.961  17.061   1.836 -0.0788 -0.1218  0.0662
16942W        W33076   1.428  11.581   0.060 -0.2624 -0.2537  0.3122
16943W        W33077   4.547  15.716  10.964  0.0618 -0.1247 -0.1850
16944W        W33078  11.097  10.834  13.877  0.0621 -0.1393  0.3814
16945W        W33079  16.457   3.124   0.436 -0.0489  0.4310  0.0331
16946W        W33080  13.227  15.597  14.507 -0.1718  0.1515 -0.3109
16947W        W33081   7.632  17.265  14.144  0.1811 -0.0619  0.0006
16948W        W33082  16.144   6.323   1.817  0.0544  0.0083 -0.1149
16949W        W33083  18.479   3.305  13.367  0.1167 -0.3096 -0.0649
16950W        W33084  18.555  15.093  13.164 -0.0303 -0.0028 -0.1611
16951W        W33085  17.768   9.477  14.826 -0.0693  0.3052  0.1628
16952W        W33086  17.118  10.323  14.740 -0.0376 -0.1559  0.0722
16953W        W33087  14.324  15.745   0.573 -0.3590 -0.0404 -0.2306
16954W        W33088  15.439  16.008  14.095  0.1794 -0.2029 -0.1675
16955W        W33089   3.396   0.465  13.916 -0.2395 -0.0858 -0.0277
16956W        W33090   3.568  16.150  11.101  0.0967  0.3690 -0.1300
16957W        W33091   3.280  13.585   5.161  0.1678 -0.0214 -0.0591
16958W        W33092   6.533  10.893  11.365  0.3530 -0.0488  0.1986
16959W        W33093  11.688  11.046  14.463 -0.0719 -0.0244 -0.0180
16960W        W33094   9.528   2.343  11.428 -0.0472  0.2148 -0.3374
16961W        W33095   8.216   4.141  13.309 -0.0682 -0.1286  0.4142
16962W        W33096   5.229  14.107  12.735  0.0033 -0.0765 -0.0923
16963W        W33097  13.530   0.492   2.830  0.0293 -0.0294  0.1081
16964W        W33098  16.232  11.191   0.048 -0.0452  0.0295  0.2383
16965W        W33099   8.906  17.644   4.500  0.0919  0.2098  0.2776
16966W        W33100  15.889  17.962   1.438  0.0043  0.0124  0.0240
16967W        W33101  12.479  17.072  11.741 -0.3368 -0.2640  0.1553
16968W        W33102   7.579   6.175  13.503 -0.1615 -0.0643  0.2027
16969W        W33103  13.379   5.806   5.544 -0.0662 -0.0842  0.1290
16970W        W33104  16.212   9.510  14.579  0.0546  0.1531 -0.1731
16971W        W33105  16.681   3.863  11.622  0.0667  0.1395  0.0268
16972W        W33106   4.410   6.996   9.373  0.0727 -0.4048 -0.0379
16973W        W33107  13.888   8.894  12.515 -0.0720  0.2453  0.1032
16974W        W33108   3.003  17.361   2.005 -0.0157 -0.2167 -0.0748
16975W        W33109  16.353  11.173   1.177 -0.0398  0.1332 -0.0413
16976W        W33110   8.005   0.792   0.332 -0.3166 -0.2834  0.4260
16977W        W33111  14.176  16.225   3.233  0.2080  0.2266 -0.4552
16978W        W33112   9.193  18.922  14.050 -0.1394 -0.1690  0.0579
16979W        W33113  16.454   7.366  12.099  0.1234  0.1167 -0.4001
16980W        W33114  14.861  10.268  15.196 -0.2747  0.2568  0.1133
16981W        W33115   6.911   9.232  14.882  0.1472 -0.0968 -0.0101
16982W        W33116  18.214   5.442   1.051  0.0923  0.2262  0.0434
16983W        W33117  18.978  10.180  14.924  0.1218 -0.1165 -0.0600
16984W        W33118   0.037  15.031  13.661  0.1185  0.4220 -0.2116
16985W        W33119   7.332   1.297   1.183  0.2324 -0.2020 -0.0545
16986W        W33120   6.781  10.495   1.520  0.2754  0.0535  0.0937
16987W        W33121  13.278   2.845   4.910 -0.0002  0.4347  0.4632
16988W        W33122   3.761   0.017  14.217 -0.0223  0.2547  0.3310
16989W        W33123  17.792  18.697  12.357  0.0823 -0.0382  0.0903
16990W        W33124  12.186  11.653   0.362 -0.0167 -0.0022 -0.1319
16991W        W33125  18.657   9.586  12.907 -0.4029  0.2377  0.0898
16992W        W33126   0.092   8.043   2.529 -0.0212 -0.1912  0.0875
16993W        W33127  12.681  14.699   1.151  0.0070  0.0755  0.3457
16994W        W33128   3.668  12.311   3.137  0.1896 -0.2554 -0.3107
16995W        W33129   0.888  10.155   1.828  0.2755 -0.0200 -0.0704
16996W        W33130   0.390   2.365   4.749  0.1172 -0.0979 -0.2734
16997W        W33131   0.177  15.820   2.036  0.0975  0.0141  0.1441
16998W        W33132   0.276   1.708   4.065 -0.0430  0.0802 -0.2776
16999W        W33133   5.169   8.944   2.487 -0.0960 -0.1845  0.2212
17000W        W33134  10.363   1.818   4.063 -0.4669  0.2728 -0.0355
17001W        W33135   4.257  18.303  11.350  0.3406 -0.2304 -0.0752
17002W        W33136  10.301  16.115  13.233 -0.1175 -0.1452  0.1684
17003W        W33137  16.834  12.054  15.066  0.0743  0.3257 -0.1586
17004W        W33138   7.074  18.301   1.131  0.0214 -0.0843  0.3270
17005W        W33139   1.579   1.507   2.719  0.0002 -0.1422  0.4289
17006W        W33140  14.293  11.735  11.915 -0.0231  0.1752 -0.1116
17007W        W33141   9.755   5.910  13.391  0.2198 -0.0568  0.0583
17008W        W33142   7.294  18.711   0.173  0.2613  0.2029  0.0779
17009W        W33143  18.644  16.479  15.121  0.3077  0.1620 -0.2369
17010W        W33144   7.114  12.499  12.488 -0.2368  0.4720 -0.1214
17011W        W33145  14.771   5.692   4.774  0.0108  0.1513  0.2296
17012W        W33146   8.350   2.503   0.153  0.2913  0.0029  0.1990
17013W        W33147   0.022   4.026   1.645  0.0326  0.0778  0.4564
17014W        W33148   6.295  16.007  11.707 -0.0555 -0.3287 -0.1183
17015W        W33149   9.164   2.461   9.931  0.1665  0.0880 -0.3540
17016W        W33150   6.643  15.563  13.845  0.1406 -0.1557 -0.3795
17017W        W33151  14.140  12.204  14.035 -0.5416 -0.0960 -0.1145
17018W        W33152  16.454  17.147   4.751 -0.1003 -0.0508  0.1740
17019W        W33153  14.526   8.703   5.114  0.2101 -0.0293  0.1416
17020W        W33154  11.781   5.260  14.560  0.0007 -0.1529  0.4147
17021W        W33155   9.163  14.630  11.417 -0.1981  0.0074 -0.1352
17022W        W33156   2.755  11.154  11.920  0.0371  0.0136 -0.0704
17023W        W33157  12.988   9.653   0.526  0.0454 -0.2078 -0.0051
17024W        W33158   5.437  18.228   0.725  0.3314  0.1181 -0.0780
17025W        W33159  13.913  12.388  10.796 -0.1320  0.0116  0.0269
17026W        W33160   4.201  10.880   2.743  0.0844 -0.1549  0.2768
17027W        W33161  16.525  17.001  10.140  0.5163  0.4270  0.1127
17028W        W33162   4.467  13.949   0.158 -0.1680  0.2407 -0.3339
17029W        W33163  19.003  18.541  14.123  0.3044  0.0928  0.3307
17030W        W33164   7.274  10.005  13.850  0.1770 -0.2587  0.0108
17031W        W33165   6.507   5.979  12.152 -0.1227  0.0175  0.1300
17032W        W33166  14.293   6.688   0.489  0.0603  0.0600  0.1209
17033W        W33167   3.306   6.171   3.708  0.0202  0.1477  0.1055
17034W        W33168  17.059  10.220   1.618 -0.0432  0.0096  0.2582
17035W        W33169   9.076   5.082   2.287  0.0909 -0.4152 -0.1581
17036W        W33170  10.615   9.404   2.378 -0.0149 -0.1768  0.0629
17037W        W33171   0.471   6.787   2.196  0.0231 -0.3357 -0.0110
17038W        W33172   8.293   8.108   1.148  0.2169  0.3166 -0.0772
17039W        W33173  10.715   1.381  10.834  0.0458  0.4036 -0.1251
17040W        W33174   2.123  14.290   4.750  0.0325 -0.3434 -0.1929
17041W        W33175  14.956   5.808   0.286 -0.1296  0.2124  0.0547
17042W        W33176   9.211   0.895   1.666 -0.1597  0.4069 -0.1455
17043W        W33177   5.003  10.846   0.825  0.0117 -0.0757 -0.1100
17044W        W33178   4.874  13.411   5.475  0.0679 -0.2643  0.2223
17045W        W33179  16.936  12.090   1.500  0.0289  0.0303  0.1444
17046W        W33180  16.506  18.480   2.537  0.0930 -0.1802 -0.3461
17047W        W33181   4.794   3.909   0.565  0.1409 -0.0509 -0.0170
17048W        W33182   3.840  11.741   9.981  0.1690 -0.1178 -0.2444
17049W        W33183   5.900   2.787  13.565  0.2992 -0.3109 -0.2577
17050W        W33184   3.517   8.017  13.939 -0.0400  0.1322  0.0444
17051W        W33185   7.418  10.811  14.205  0.0932 -0.4233 -0.0080
17052W        W33186  12.233  12.951   3.261 -0.2431 -0.0299 -0.1813
17053W        W33187   0.405   9.918  12.436  0.2351 -0.1079  0.2250
17054W        W33188   2.942  12.718   5.351  0.2409 -0.1372 -0.0518
17055W        W33189   6.973   0.068   2.369  0.1048 -0.0562 -0.1013
17056W        W33190  16.994   1.276  11.764 -0.0175  0.0788  0.2076
17057W        W33191   2.309  14.737   4.402  0.0875  0.3760 -0.0986
17058W        W33192  17.203  10.550   2.012 -0.0310  0.0320 -0.0685
17059W        W33193  10.366  11.128  15.029  0.0727  0.0644  0.3984
17060W        W33194  14.150  15.867  14.599 -0.0777  0.1595  0.0483
17061W        W33195   0.093   6.052   2.438 -0.1374  0.0485  0.5636
17062W        W33196   8.127   1.316   4.406  0.5060  0.0115 -0.2503
17063W        W33197  14.494   0.795   2.010 -0.1357 -0.0700 -0.0119
17064W        W33198   5.315  15.498   5.542  0.1567  0.1772 -0.1872
17065W        W33199  10.245  12.092  10.429 -0.2649 -0.0113  0.3083
17066W        W33200   2.438   9.752  12.062 -0.0865 -0.0569 -0.1018
17067W        W33201   2.572  16.798   3.783  0.1345  0.0926  0.1861
17068W        W33202  10.043  15.765   0.444 -0.0833  0.0837  0.2157
17069W        W33203  14.170   2.680   0.553  0.3445  0.1079  0.2308
17070W        W33204   0.663  18.319  13.154  0.1717 -0.3308  0.1612
17071W        W33205  10.507   4.319   4.041 -0.1619 -0.0546 -0.2145
17072W        W33206   1.339   8.277   1.237 -0.2579  0.0348  0.0980
17073W        W33207   8.676  12.768  11.947  0.0866 -0.0262  0.3130
17074W        W33208  16.579  10.701  13.258 -0.0520  0.0956 -0.1374
17075W        W33209  12.380  14.120  11.034 -0.0116 -0.0633  0.2961
17076W        W33210   5.155  15.055   0.892  0.0609 -0.3515  0.0254
17077W        W33211  11.899  14.553   3.708 -0.1456 -0.1429  0.2294
17078W        W33212   0.577  13.313   0.735 -0.0130 -0.1179 -0.2930
17079W        W33213  18.525  14.845  15.002 -0.0784  0.1504 -0.2466
17080W        W33214   5.908  12.958  11.174 -0.1733 -0.0738 -0.2533
17081W        W33215  17.996  13.392  11.057 -0.0282  0.0250 -0.0669
17082W        W33216  16.722   3.838  12.347  0.1710  0.0428 -0.2171
17083W        W33217   3.776   1.609   2.476 -0.0195 -0.1170  0.1620
17084W        W33218   2.846  18.042   1.193  0.1293  0.1061 -0.0970
17085W        W33219   2.007  10.762   0.104  0.2266  0.0617  0.2753
17086W        W33220  11.113  18.762  12.443  0.0553  0.3510  0.0920
17087W        W33221  15.196  14.908  11.677 -0.2900 -0.0953 -0.3152
17088W        W33222   5.993   1.597   1.281 -0.2042  0.0949  0.3080
17089W        W33223   1.330   3.564   4.520  0.0177 -0.1542 -0.0775
17090W        W33224   8.003   5.593   2.405  0.1812 -0.0157  0.0785
17091W        W33225  15.064  16.747  13.092  0.2503 -0.0925  0.0373
17092W        W33226   2.476   1.003   3.852 -0.1391 -0.1893  0.1972
17093W        W33227  11.381  13.616  15.028 -0.0996  0.3488 -0.0215
17094W        W33228   8.781   9.738  10.487 -0.1832 -0.1504  0.2120
17095W        W33229  13.695  10.441   5.098 -0.0479  0.0964 -0.0752
17096W        W33230   4.947  15.883  11.471 -0.0889 -0.3037 -0.3432
17097W        W33231   8.067   9.760  11.053 -0.0926  0.0020 -0.3179
17098W        W33232  13.792  17.984  13.407  0.0565 -0.1791  0.1736
17099W        W33233   3.430   9.558   1.932  0.3768  0.2651  0.2130
17100W        W33234  14.155   8.253  12.716  0.0846  0.3694 -0.2892
17101W        W33235   5.201   2.945   4.350  0.0044  0.2198  0.0059
17102W        W33236  12.545  12.595  13.888 -0.1195  0.0156  0.0468
17103W        W33237   9.603  14.790   2.132  0.0351 -0.4653 -0.0276
17104W        W33238   2.459  10.143   0.141 -0.1593 -0.2394  0.2511
17105W        W33239   6.061   3.153  14.151 -0.0095 -0.1786  0.1675
17106W        W33240   2.927   7.481   3.066  0.0396  0.1454  0.0388
17107W        W33241   8.387   4.008   4.990 -0.3242 -0.3224  0.1309
17108W        W33242  16.354  15.405  14.237  0.1130  0.4158 -0.5674
17109W        W33243   5.545  15.831  11.778 -0.0185  0.2111 -0.0485
17110W        W33244  11.237  13.598  13.525  0.2130 -0.2429  0.0054
17111W        W33245  12.657   1.657   1.368  0.2081  0.1329  0.0853
17112W        W33246  11.710  15.612   3.380  0.0797  0.1695 -0.2517
17113W        W33247  13.330  10.314   4.788 -0.2032 -0.0468 -0.2838
17114W        W33248   3.726   7.861   4.805 -0.1501  0.0261 -0.1613
17115W        W33249  13.441   0.313   1.319 -0.1340  0.0184 -0.1164
17116W        W33250   1.121   4.185  14.459  0.0514 -0.0408  0.0075
17117W        W33251  17.977  12.916  14.191 -0.0847  0.1693  0.0180
17118W        W33252   8.876  17.755   3.000 -0.2962  0.3495  0.0592
17119W        W33253   9.721  11.519  11.990 -0.1479  0.0001 -0.1905
17120W        W33254  14.273  10.449   2.637  0.1198 -0.1244  0.7345
17121W        W33255  15.397  11.761  12.020  0.1601  0.1377 -0.1585
17122W        W33256   1.345  11.576   4.999  0.0051 -0.0995 -0.1431
17123W        W33257  14.194   2.159   0.870 -0.3155  0.2691 -0.2843
17124W        W33258  18.384   7.887   4.509  0.0028  0.2462  0.4458
17125W        W33259  15.390  15.575  14.419 -0.0848 -0.1841 -0.0865
17126W        W33260  12.310  11.812   4.864 -0.0287 -0.4239  0.0938
17127W        W33261   1.873   5.590  11.452 -0.0619  0.0033 -0.2803
17128W        W33262  16.921  11.599   3.637 -0.1105 -0.0231 -0.2590
17129W        W33263   5.712   4.801  15.113 -0.0698  0.0971 -0.1850
17130W        W33264   0.017   5.838   0.419 -0.1286 -0.2737  0.0715
17131W        W33265   7.158   4.205  10.185  0.1864 -0.0134 -0.1013
17132W        W33266   4.275  12.654   4.296 -0.2045 -0.1580 -0.0213
17133W        W33267  14.634   2.456  13.362  0.0597 -0.0226 -0.0278
17134W        W33268  15.791  10.487   0.616  0.1459 -0.5334 -0.1694
17135W        W33269  11.038  10.013   3.405 -0.0346 -0.0506 -0.1213
17136W        W33270   4.755   0.537   0.027  0.0368 -0.0159  0.1196
17137W        W33271   2.911   2.104   5.374 -0.1536  0.1155  0.2402
17138W        W33272  18.388   3.189  13.954  0.3764 -0.0147  0.1974
17139W        W33273  12.457  12.139  13.651 -0.0254 -0.4973 -0.0440
17140W        W33274   8.626   7.414   3.575  0.0547  0.0855  0.1834
17141W        W33275   2.559  13.932  13.381 -0.1666 -0.0613 -0.2173
17142W        W33276  15.889  10.316   4.456  0.0617  0.1228  0.2508
17143W        W33277  13.337   3.808   9.583  0.0755 -0.1049  0.2588
17144W        W33278   7.171   1.349   1.841  0.0766  0.4365  0.1939
17145W        W33279  12.734   3.699  11.655  0.0054 -0.0131 -0.0808
17146W        W33280  12.231  11.295   3.700 -0.2875  0.1309 -0.1086
17147W        W33281   2.854  15.008   0.832  0.1519  0.2138  0.1901
17148W        W33282   5.269  16.347   4.827 -0.0067 -0.1614  0.1522
17149W        W33283  10.180   3.041  10.257 -0.2652  0.1144 -0.1493
17150W        W33284  17.661   3.698  11.288  0.1304 -0.0267 -0.3698
17151W        W33285   0.079  16.142  15.205 -0.1521  0.2622  0.0933
17152W        W33286  17.143  18.332   5.734 -0.1486  0.3182 -0.1671
17153W        W33287   5.880   5.604   0.541 -0.2993  0.0378  0.1299
17154W        W33288   6.580  13.026  11.910  0.3377 -0.1839 -0.0374
17155W        W33289  15.633  17.392   1.193  0.0007  0.0382 -0.5226
17156W        W33290  12.746  16.143   3.550 -0.0623  0.0126 -0.0136
17157W        W33291  11.967  15.652  12.858  0.2135  0.0553  0.0609
17158W        W33292   3.960  16.002  10.178  0.2841  0.1098  0.2662
17159W        W33293  14.217  15.130   4.614  0.0569  0.0424 -0.1186
17160W        W33294   0.980  18.777   2.259 -0.1827  0.2994 -0.0854
17161W        W33295   0.346  11.790   4.756  0.2083 -0.2115  0.0835
17162W        W33296  17.719  14.982  10.539  0.2538  0.0821 -0.3096
17163W        W33297   3.183   4.709   3.567 -0.2602  0.4164  0.0163
17164W        W33298  15.459   2.946  12.415  0.0438 -0.0592  0.2162
17165W        W33299  18.295   4.996   5.252 -0.0203  0.2406  0.0324
17166W        W33300  10.861  18.593   3.884 -0.0125  0.1560 -0.2505
17167W        W33301   6.509   8.578  10.993 -0.1371  0.0901  0.0877
17168W        W33302  14.722   4.602   0.088 -0.2176 -0.2324 -0.0169
17169W        W33303  11.448   5.249   1.266  0.0084  0.2011  0.0104
17170W        W33304   9.852   3.200  15.264  0.2526  0.1335  0.0517
17171W        W33305  12.015   6.447  10.351  0.0569  0.4117  0.3206
17172W        W33306   2.347  14.135  13.765 -0.0734 -0.1240  0.2369
17173W        W33307   7.719   6.294   4.017  0.2444  0.1366  0.0054
17174W        W33308   7.183   0.255  11.425  0.1306 -0.1278 -0.1437
17175W        W33309  18.561   6.012   2.430 -0.1926  0.2353  0.2345
17176W        W33310   5.356  12.564  11.804 -0.0658  0.0283 -0.0035
17177W        W33311   7.269   3.208   3.942 -0.0440 -0.2491  0.2191
17178W        W33312   1.064   5.433   3.824 -0.0736  0.0327  0.2252
17179W        W33313  13.047   3.874  14.723  0.1788 -0.3373  0.0684
17180W        W33314  13.221  13.503  12.776 -0.2256 -0.4039 -0.0975
17181W        W33315  16.123  14.637   0.643  0.0125  0.2407 -0.2501
17182W        W33316   1.736   0.332  15.090  0.0152 -0.2020  0.0606
17183W        W33317   2.096   2.673  13.008 -0.0903  0.0933  0.2369
17184W        W33318   6.106   9.289   1.327  0.1838 -0.0123  0.1178
17185W        W33319   7.455   0.146  14.590  0.1807 -0.0173 -0.2008
17186W        W33320   2.094  15.396   0.290 -0.2118 -0.2172 -0.1825
17187W        W33321   9.772   8.651   4.483 -0.2581 -0.0172 -0.2052
17188W        W33322   8.016   4.054  11.216  0.1956  0.3379  0.1522
17189W        W33323  16.309  16.520  13.430  0.3020 -0.0170  0.5088
17190W        W33324   4.724  15.900  13.128  0.2019  0.0528  0.2986
17191W        W33325  14.001  18.966  12.396 -0.4190  0.0863  0.0959
17192W        W33326  16.889  14.248  12.643 -0.1990  0.0669 -0.0059
17193W        W33327   5.602  17.449   1.492 -0.0526  0.2770 -0.0797
17194W        W33328  15.007   8.184  14.070 -0.0081  0.0163 -0.3560
17195W        W33329   3.443  11.725  14.734  0.0906  0.0234 -0.1101
17196W        W33330   6.811  17.266  12.621 -0.0993  0.0510 -0.2092
17197W        W33331  12.529   0.953   2.549  0.1862  0.0578  0.0978
17198W        W33332   2.869   5.336  12.532  0.0214 -0.1023 -0.2435
17199W        W33333   4.418   1.770  12.199 -0.0463 -0.1900  0.0966
17200W        W33334  14.678  13.824  11.025  0.0392 -0.0325 -0.1653
17201W        W33335   4.227  15.265  13.799 -0.0719 -0.2374  0.3789
17202W        W33336   7.497  11.307  13.710  0.1498 -0.0483 -0.0486
17203W        W33337  13.309   6.202  14.018 -0.0048 -0.1606 -0.0497
17204W        W33338  18.820   4.264   2.560 -0.2185 -0.2979 -0.0883
17205W        W33339  13.782   8.366   5.547 -0.0247  0.0230 -0.1464
17206W        W33340  18.821  10.622   5.017 -0.0130 -0.1346 -0.2766
17207W        W33341  15.892   3.575   3.851  0.3997  0.1035  0.3209
17208W        W33342   8.041   9.059   4.814  0.1721  0.0993  0.0288
17209W        W33343   1.123  16.900  12.296 -0.3509  0.1361 -0.0786
17210W        W33344   7.517  18.732   3.130  0.1478 -0.2495  0.1191
17211W        W33345   8.605   3.627   1.608  0.0338 -0.3751 -0.1533
17212W        W33346   7.214   8.099   2.656 -0.0944 -0.1651  0.0316
17213W        W33347   0.315  11.819  12.900 -0.3307  0.0456 -0.0476
17214W        W33348   2.603  10.264  14.702  0.1187  0.0604  0.0648
17215W        W33349   9.866  10.356  14.433  0.4386  0.0229  0.5624
17216W        W33350   7.821   1.803  12.510  0.1385  0.2811 -0.1915
17217W        W33351  18.499  17.280  14.760  0.1986  0.1036 -0.1897
17218W        W33352  18.781  15.277   3.226  0.2730 -0.0647  0.0616
17219W        W33353   9.037  17.374  14.143  0.0656 -0.0355  0.0955
17220W        W33354   4.804  10.365  14.146  0.1807  0.1766  0.1345
17221W        W33355   7.948  10.989   2.916  0.0657 -0.0661  0.2085
17222W        W33356   2.208  17.715   2.744 -0.1847 -0.1916 -0.0428
17223W        W33357   3.031   7.027  15.288  0.2374  0.0373  0.0200
17224W        W33358  14.448  14.766  12.197  0.0186  0.0245 -0.1164
17225W        W33359   2.573   7.907   5.897  0.0469  0.1199  0.0816
17226W        W33360   8.840  17.253  13.695 -0.0472  0.0627 -0.0184
17227W        W33361  12.291   8.675   4.412  0.1177  0.4801  0.0453
17228W        W33362  18.584  18.674   1.577 -0.1468  0.2865  0.2685
17229W        W33363   8.095   8.732  13.171 -0.0207  0.0153 -0.4169
17230W        W33364   5.100  12.138   2.685 -0.3618  0.4824  0.2890
17231W        W33365  12.518   9.534   0.470 -0.0449 -0.0346  0.1698
17232W        W33366  15.437   9.449   0.761 -0.0843 -0.2218  0.3480
17233W        W33367  16.640   2.033   3.250 -0.2875  0.1606  0.0580
17234W        W33368  13.590   8.653   2.976 -0.0945  0.2929 -0.0277
17235W        W33369   8.718   0.734  10.709  0.1287 -0.1870 -0.1757
17236W        W33370   3.590   4.851  12.134  0.2479  0.0959 -0.3101
17237W        W33371   1.184  12.326  10.111  0.0445  0.2299 -0.0322
17238W        W33372   6.297   9.176   1.825 -0.0367  0.0648  0.2512
17239W        W33373   0.344   5.280   3.507 -0.1986 -0.4265  0.1342
17240W        W33374  12.547  16.423   0.973 -0.0569 -0.0014  0.1744
17241W        W33375  15.498  18.188   1.066  0.2176  0.1036  0.1519
17242W        W33376  11.455   6.718  12.720 -0.2923  0.3164 -0.0369
17243W        W33377   0.382  17.608   0.778 -0.1354 -0.2270 -0.1826
17244W        W33378   9.298   4.748   1.438  0.0214  0.3659  0.1560
17245W        W33379  10.317  17.561   1.284 -0.0393  0.4707 -0.2546
17246W        W33380   4.675  11.348   3.495 -0.2439  0.1845 -0.0555
17247W        W33381   6.077   2.717  12.130 -0.1967 -0.0493 -0.1721
17248W        W33382  13.372   7.787  13.845 -0.1947 -0.1231  0.0548
17249W        W33383   9.829  12.028  14.853 -0.2976  0.2884  0.1966
17250W        W33384  11.098  17.011   5.384  0.0449  0.0661 -0.0826
17251W        W33385   9.402  18.653   1.399  0.0615  0.0996  0.1684
17252W        W33386  14.859  16.496  14.920 -0.2305  0.0942  0.0484
17253W        W33387  16.825  16.657   2.310  0.0970 -0.1386 -0.2324
17254W        W33388   2.524  16.850   5.355  0.0312  0.1507 -0.2260
17255W        W33389  16.447   5.949  13.538 -0.0975  0.1439  0.0902
17256W        W33390   0.829  14.611   4.970 -0.1278  0.2514 -0.2079
17257W        W33391  10.556  15.597  13.185  0.0215 -0.1659 -0.1209
17258W        W33392   8.840  17.440  14.627 -0.1013  0.1610 -0.2823
17259W        W33393  11.243   3.533  10.888 -0.1978 -0.0361  0.2645
17260W        W33394  13.058   8.409  12.653 -0.2450 -0.1009  0.1877
17261W        W33395  11.594   1.840   1.986  0.5305  0.2417  0.2125
17262W        W33396   6.916  12.703  14.650 -0.0513 -0.2610 -0.1461
17263W        W33397  12.192   1.871  13.553 -0.0849 -0.1902  0.0845
17264W        W33398   4.402  14.465   1.049  0.2174  0.0924  0.3336
17265W        W33399  12.348   1.919  12.192 -0.1145 -0.0077  0.2512
17266W        W33400   9.845   6.291  15.110  0.0048 -0.0242 -0.1552
17267W        W33401  12.945  15.794  10.302  0.0206 -0.0157  0.2958
17268W        W33402   5.455   9.467  13.194  0.0618  0.0223 -0.0385
17269W        W33403  16.671   0.990   1.378 -0.0379 -0.3159  0.1301
17270W        W33404  11.201   0.913  12.959 -0.0047  0.3343  0.1046
17271W        W33405  16.155  10.322   1.671  0.0850 -0.0105  0.0791
17272W        W33406  17.181  17.631  13.144 -0.1870 -0.2495  0.2213
17273W        W33407  16.769  11.746   0.211  0.0870  0.1966  0.0792
17274W        W33408   3.800  17.828  10.531  0.0697  0.0453  0.1457
17275W        W33409   4.382  15.144   5.703  0.1075 -0.0418 -0.3116
17276W        W33410   4.254  11.995  13.020  0.1990 -0.0737  0.2996
17277W        W33411   7.254   8.919  15.106 -0.0250 -0.0494  0.2703
17278W        W33412   7.771  17.177  12.136  0.2553  0.0682 -0.1809
17279W        W33413  13.312  11.462  13.156  0.1345 -0.0444  0.1125
17280W        W33414  18.542   2.864  15.162  0.0858  0.0854 -0.0749
17281W        W33415   4.112  12.024   3.435 -0.5135 -0.4188 -0.0128
17282W        W33416   9.809   4.533   2.938 -0.1445 -0.1391 -0.0540
17283W        W33417  17.335  17.352   2.717 -0.0758 -0.2572 -0.3400
17284W        W33418  12.011   2.186   1.959  0.3391 -0.0745  0.0583
17285W        W33419  11.086  12.242  12.968 -0.0170  0.0193 -0.0935
17286W        W33420  17.925   9.198   4.503  0.0589 -0.0911 -0.2106
17287W        W33421   7.928  11.821  11.132  0.0285 -0.1221  0.1586
17288W        W33422   1.352   4.858   1.371 -0.0248  0.1028 -0.0491
17289W        W33423  17.665  18.239  12.103  0.2294 -0.0835  0.1109
17290W        W33424   8.530  12.666  13.110 -0.1462  0.2049  0.2057
17291W        W33425  18.054  12.550  13.051 -0.1036  0.3139  0.0418
17292W        W33426  11.476   6.730  10.575 -0.1424 -0.1507  0.0246
17293W        W33427  14.851   6.771  11.705  0.2790 -0.1166 -0.0177
17294W        W33428  10.620   5.289   0.180 -0.0099  0.0118 -0.3110
17295W        W33429   1.958  13.798  13.677 -0.2014  0.0690 -0.2220
17296W        W33430   1.795  16.453   2.864  0.0678 -0.1134  0.1082
17297W        W33431   2.911   9.625   1.686  0.1031  0.1273  0.1509
17298W        W33432  13.653  16.886   0.247  0.1654  0.2425  0.3452
17299W        W33433  12.926   0.099   2.455  0.1813 -0.0601  0.3352
17300W        W33434   6.801  15.922  12.518 -0.2598  0.0350 -0.3436
17301W        W33435   8.439  14.240   2.238  0.0710  0.0499 -0.0851
17302W        W33436  18.556  13.831  14.064  0.4180 -0.0073 -0.2251
17303W        W33437   1.576   4.044   4.698 -0.1235  0.0734 -0.0193
17304W        W33438   3.982   4.668   1.421  0.0636 -0.1784  0.2740
17305W        W33439  12.004   5.894  13.382  0.1820 -0.1912  0.1898
17306W        W33440  14.885   5.626  14.085  0.4249  0.1948 -0.0720
17307W        W33441  12.974   5.639   2.804 -0.0401 -0.0543  0.3132
17308W        W33442   4.101   0.863  13.897  0.0205 -0.0678  0.2220
17309W        W33443   8.333  13.915  15.236  0.0297 -0.3466 -0.1938
17310W        W33444   8.406   4.382  14.814 -0.0661  0.2450  0.0843
17311W        W33445   0.676   7.777  12.527 -0.1258 -0.0952 -0.1313
17312W        W33446  16.790  18.053   2.774  0.2028 -0.0171 -0.1415
17313W        W33447  11.346  13.369   5.435 -0.1644 -0.1635 -0.2013
17314W        W33448   6.576   6.220   1.920  0.0465 -0.1930 -0.0285
17315W        W33449   0.735  17.847   2.424 -0.2010 -0.3422  0.2139
17316W        W33450  13.625  10.606   4.000  0.0776 -0.2076 -0.1311
17317W        W33451   1.948   8.573  14.831 -0.0419 -0.1110 -0.0389
17318W        W33452  16.764  13.279  13.102  0.0320 -0.0395 -0.0077
17319W        W33453   6.380  13.163  11.458 -0.2187  0.1823  0.2243
17320W        W33454  16.307   9.664  14.073  0.0210 -0.2916  0.1967
17321W        W33455  17.401   9.892  10.604  0.1868  0.2737 -0.1737
17322W        W33456  17.283  18.989   0.881  0.4994  0.1630 -0.1209
17323W        W33457   4.248  11.043   3.580 -0.0431 -0.3255 -0.1936
17324W        W33458  16.338  11.697   0.350  0.2477 -0.1558  0.0322
17325W        W33459   3.197   4.644   0.204  0.0546  0.0348 -0.0259
17326W        W33460   9.493  18.057   2.827  0.0705  0.0872  0.2860
17327W        W33461   3.360   7.300   3.880  0.0840 -0.4374 -0.0857
17328W        W33462   6.300   0.619   2.088 -0.1906  0.2109  0.0059
17329W        W33463  18.379   2.247   5.468  0.0465 -0.2047  0.2469
17330W        W33464  15.938   0.076  13.372 -0.0227 -0.2302  0.0002
17331W        W33465   5.864   2.474   1.941 -0.0002 -0.2681 -0.1837
17332W        W33466  16.607   1.319   0.521 -0.0325  0.1106  0.5656
17333W        W33467   3.856  16.482  13.940  0.1415 -0.0570  0.2160
17334W        W33468   0.395   0.346   0.301 -0.0378 -0.0449  0.2112
17335W        W33469  10.070   3.980   4.098 -0.0048 -0.4428 -0.0492
17336W        W33470  10.685   9.745   4.192  0.0459  0.3699 -0.0207
17337W        W33471  18.812  16.321   4.153  0.2522  0.0084 -0.1039
17338W        W33472   0.530  16.678  11.485  0.0927  0.0135  0.0671
17339W        W33473   6.090  16.761  12.671  0.3255 -0.2376  0.0341
17340W        W33474   3.805  11.493  13.198 -0.0616 -0.4234 -0.1229
17341W        W33475  14.483   8.547   3.225 -0.0290 -0.3624 -0.0947
17342W        W33476  12.006  17.127  14.614  0.0962  0.2874 -0.2437
17343W        W33477  16.860  14.785  10.910 -0.0482  0.1857  0.2650
17344W        W33478   1.559  11.814  11.271  0.0438 -0.0372 -0.0095
17345W        W33479   6.436   0.856   4.540 -0.0379  0.2052  0.0283
17346W        W33480  15.068   0.674  10.772  0.1306 -0.2480 -0.0528
17347W        W33481  17.905  15.483  11.021 -0.0602 -0.0062 -0.0816
17348W        W33482  14.755  12.093  10.631 -0.2684 -0.3556  0.0159
17349W        W33483   8.075   6.403  10.633  0.0744  0.2024  0.1928
17350W        W33484   4.314   4.299  14.618  0.0847  0.0776  0.1395
17351W        W33485  13.136  16.057   0.341 -0.1572 -0.0573 -0.2249
17352W        W33486  17.196  15.682  12.261  0.2250  0.1311  0.1214
17353W        W33487   6.652  12.608  12.820  0.0601 -0.1743 -0.1227
17354W        W33488   9.506  16.899  11.272 -0.0430  0.0066  0.0441
17355W        W33489   3.600  17.288   0.048  0.2191  0.0913  0.2299
17356W        W33490  10.327   2.253   4.954 -0.2419 -0.0239  0.1314
17357W        W33491  12.681   7.953   1.064 -0.0249 -0.0829 -0.3318
17358W        W33492   7.890  17.829   4.600  0.2634  0.0974  0.1203
17359W        W33493  18.755  14.698   4.067 -0.3208  0.2870  0.0607
17360W        W33494  18.458  13.929   1.002 -0.2429 -0.1403 -0.0268
17361W        W33495   1.269  12.297   1.194 -0.1636  0.0029  0.1820
17362W        W33496   9.088  18.173   1.287 -0.1560 -0.0459 -0.0485
17363W        W33497  15.658  11.407   3.022 -0.2054 -0.0684 -0.1447
17364W        W33498   2.905  16.904   3.427 -0.1402  0.2147 -0.0762
17365W        W33499   6.642  14.671   3.091  0.0868 -0.0775 -0.3793
17366W        W33500   2.608  16.332   5.197  0.2749  0.0920  0.2587
17367W        W33501  10.689   2.910  13.525  0.1067 -0.0152 -0.2530
17368W        W33502  17.024  18.164   3.590  0.0131  0.1823 -0.1817
17369W        W33503   2.575  15.507  12.409  0.0365 -0.1563  0.4629
17370W        W33504   7.493  18.081  14.750  0.0237 -0.0420  0.0895
17371W        W33505  13.445   6.106   9.386  0.2853 -0.1228 -0.1933
17372W        W33506   4.788  12.032  11.158 -0.2236 -0.0752  0.1333
17373W        W33507   2.410  16.777   1.607  0.0658 -0.2124  0.3628
17374W        W33508   6.117   2.861   2.246 -0.3989  0.1342 -0.0115
17375W        W33509  18.072   3.022  14.370 -0.3136  0.1429 -0.0162
17376W        W33510  11.442   8.953   4.841  0.1467  0.5169 -0.0686
17377W        W33511  10.891  11.389   3.442  0.0467 -0.2918  0.4122
17378W        W33512   3.490  10.435   3.325  0.0956  0.0608 -0.0959
17379W        W33513   6.888  17.222  13.749 -0.2498 -0.0368  0.1675
17380W        W33514  16.597   8.515  11.124  0.0383  0.0981 -0.2193
17381W        W33515   8.175  13.008   5.277 -0.2293  0.0653 -0.2407
17382W        W33516   9.118  17.720  15.039 -0.1069  0.0027 -0.0528
17383W        W33517  11.954   2.805  10.759 -0.0692 -0.0724 -0.0463
17384W        W33518  12.385  13.668  12.764  0.0525 -0.2501  0.2299
17385W        W33519   7.835  10.543   2.876 -0.1711 -0.1991  0.0364
17386W        W33520   9.616  10.220  12.213  0.1206  0.0046 -0.2558
17387W        W33521  10.903  13.208   1.314  0.2059 -0.0189 -0.0421
17388W        W33522   3.864  15.039  10.520  0.2289  0.0123  0.1998
17389W        W33523  18.088  12.307  13.479 -0.1008  0.2396  0.0903
17390W        W33524  13.779  13.208  12.534 -0.4494  0.3743 -0.1205
17391W        W33525  11.445  11.202  14.949  0.4026 -0.1227  0.0345
17392W        W33526  15.734   7.253  11.794  0.1559  0.3988 -0.0135
17393W        W33527   8.764  17.580   5.640  0.3411 -0.2405 -0.2770
17394W        W33528   9.604  15.934  14.320  0.0924 -0.1801 -0.2197
17395W        W33529  16.000  11.508  14.462  0.2143 -0.1254  0.2244
17396W        W33530  18.214   5.288  11.003  0.2188  0.0536  0.1340
17397W        W33531   5.789  10.962   1.041  0.0709 -0.0511 -0.4920
17398W        W33532  18.049  17.250  11.178 -0.0814  0.2390  0.0859
17399W        W33533  15.576  10.069  10.945 -0.2201 -0.2216 -0.0204
17400W        W33534   2.250   7.215  11.801  0.1363 -0.3814  0.1940
17401W        W33535  16.245   4.596  13.856 -0.0110 -0.0020  0.1902
17402W        W33536  10.427   1.899  11.493 -0.0723  0.1627 -0.1532
17403W        W33537   9.607   7.358   2.028 -0.3079 -0.0280  0.0782
17404W        W33538   5.238  18.780   4.203 -0.0865 -0.1068  0.3020
17405W        W33539  17.679  10.693   4.568 -0.2946  0.1273 -0.2626
17406W        W33540   6.498  11.690  14.863 -0.2442  0.1920 -0.1309
17407W        W33541  18.337   5.930   0.812  0.0997 -0.2604 -0.2508
17408W        W33542  15.906  14.471   1.603  0.1824  0.4140  0.1143
17409W        W33543  12.143   5.178   3.992  0.1910 -0.1158 -0.0247
17410W        W33544   6.336   5.016   3.234  0.1328 -0.0466 -0.0036
17411W        W33545  13.766  12.244   0.218 -0.0264 -0.0081 -0.0947
17412W        W33546   0.735  13.120   3.903 -0.0721  0.0944  0.0663
17413W        W33547   9.393   5.189  13.626  0.1426  0.0276 -0.0826
17414W        W33548   8.675   6.249  10.640 -0.0712 -0.1906 -0.1286
17415W        W33549   7.298   0.878   4.014  0.3339 -0.0629  0.1152
17416W        W33550   2.550   8.774  12.721  0.1988 -0.1978  0.0379
17417W        W33551  17.623   1.323   3.298 -0.2252 -0.1011  0.2065
17418W        W33552  13.423  17.878   0.451 -0.1457  0.0353 -0.0195
17419W        W33553   9.565  10.607   3.006 -0.1265 -0.4142 -0.0606
17420W        W33554  13.387  11.060   1.294  0.0632 -0.1015  0.1807
17421W        W33555  17.317   7.903  13.055 -0.1572  0.0314  0.0236
17422W        W33556  16.946  10.179   0.364  0.0256 -0.1106 -0.2730
17423W        W33557   9.182  12.505   4.030 -0.1473  0.0588  0.1106
17424W        W33558  18.153  12.166  11.558 -0.1157 -0.3702 -0.2678
17425W        W33559  11.591   7.326   4.501  0.1714 -0.1104  0.0408
17426W        W33560  18.280  18.619  12.407 -0.0115 -0.1304 -0.1262
17427W        W33561  10.104   9.405  12.300  0.0039 -0.1549  0.2893
17428W        W33562  15.158  17.544  10.787  0.0162  0.1731  0.1335
17429W        W33563  15.835  12.464   2.321  0.0937  0.1511  0.3206
17430W        W33564  14.915   2.087   2.337 -0.1458 -0.0775 -0.0179
17431W        W33565  11.480  16.108   0.511 -0.1447  0.1109 -0.0184
17432W        W33566  11.551   7.967  14.869 -0.0273 -0.0520  0.2063
17433W        W33567   2.688   5.331  10.183 -0.1090 -0.2187 -0.4742
17434W        W33568   4.664  11.049   0.281  0.0639 -0.1801  0.2199
17435W        W33569  11.713  12.309   2.977  0.1825  0.1568 -0.0488
17436W        W33570   2.832   5.418  14.578 -0.0721 -0.0187 -0.1677
17437W        W33571   3.007   0.700  14.840 -0.0022  0.1327  0.0638
17438W        W33572  18.649  12.271  10.936  0.5013  0.2084 -0.0243
17439W        W33573  17.617   4.900  14.201  0.3945 -0.0323  0.0407
17440W        W33574   7.012   6.206  10.893 -0.2888  0.1963 -0.1498
17441W        W33575  17.189   5.212   9.681  0.2990  0.0041 -0.4363
17442W        W33576  10.965  17.943   3.680  0.2048 -0.0544  0.0769
17443W        W33577   8.885  14.470   0.387  0.1132 -0.0792  0.3678
17444W        W33578  17.189   9.372  11.258  0.1237 -0.0821  0.0032
17445W        W33579   2.244   8.807  15.259  0.0320  0.2162  0.0389
17446W        W33580  17.692  17.526   5.403  0.1853  0.2746  0.2159
17447W        W33581   0.703  17.760  12.343 -0.0116 -0.0943  0.1620
17448W        W33582   0.133   5.507   4.705  0.0675  0.1032 -0.2580
17449W        W33583   2.931  17.103   2.454 -0.0590  0.2613  0.2343
17450W        W33584   4.652  13.424  14.152  0.1940 -0.1662 -0.0803
17451W        W33585  12.505  15.844   1.785  0.2706  0.2424  0.0262
17452W        W33586  18.938  10.733  15.284  0.4476  0.0415 -0.2153
17453W        W33587   5.738   0.042   0.958  0.1379  0.1031 -0.4683
17454W        W33588  18.336  17.841   3.030  0.2620  0.1723  0.2308
17455W        W33589   5.182  14.746  14.373 -0.2497 -0.2383  0.1900
17456W        W33590  14.363   9.971  11.293 -0.1004  0.0847  0.1545
17457W        W33591   1.225  10.780  14.890 -0.0106  0.0649 -0.0082
17458W        W33592  12.770   2.816  13.507 -0.1345  0.2215 -0.2593
17459W        W33593   7.172   6.234   2.529  0.3930 -0.0082  0.0886
17460W        W33594  15.174  11.276   3.779 -0.2335  0.2689 -0.0074
17461W        W33595   6.277   7.587   0.264  0.1548  0.1710 -0.1752
17462W        W33596  10.619   7.659   2.046 -0.2337 -0.1574 -0.2736
17463W        W33597   8.442   3.982  15.105  0.3189 -0.0329 -0.1523
17464W        W33598  12.617   5.449   4.684  0.1655 -0.0196 -0.1518
17465W        W33599   8.082  15.608   4.407  0.0305  0.0544 -0.1313
17466W        W33600  14.688  15.184  13.421  0.0206  0.4100  0.0170
17467W        W33601   3.823  15.383  13.505 -0.0377  0.0808  0.0188
17468W        W33602  10.236  17.861   1.743  0.0707  0.1091 -0.0780
17469W        W33603  17.944  12.752   2.411  0.2517  0.0436 -0.0667
17470W        W33604   9.761   7.908  14.599  0.2616  0.2239  0.1167
17471W        W33605   5.211  11.581  14.426  0.0854  0.3566  0.1479
17472W        W33606   0.414   7.518   5.306  0.0756  0.0295 -0.0452
17473W        W33607  16.405  17.389   1.579 -0.3297 -0.0588  0.2405
17474W        W33608   7.651   6.621  13.746  0.3536  0.0015 -0.1553
17475W        W33609   9.820  14.137   2.659  0.2545 -0.3619 -0.1265
17476W        W33610  14.436   7.185   2.354 -0.1281  0.3901 -0.1639
17477W        W33611   0.390   8.783  12.503 -0.2582 -0.1171 -0.0483
17478W        W33612   0.840  13.503  13.295 -0.1585 -0.0598  0.0982
17479W        W33613   4.303  15.084  14.283 -0.1779  0.1104 -0.0510
17480W        W33614   7.871  18.988   0.854 -0.0047 -0.1018 -0.0340
17481W        W33615   4.994   6.840  10.435 -0.0330 -0.0696 -0.1307
17482W        W33616  14.794   2.103  13.701  0.1214  0.0806 -0.1213
17483W        W33617   8.987   9.693   0.812 -0.1776 -0.0000  0.0421
17484W        W33618   8.134   2.891   3.296  0.2371  0.1417  0.1637
17485W        W33619   5.278  13.075   5.643 -0.0121  0.1164 -0.1205
17486W        W33620  13.122   1.622   2.733 -0.1372 -0.0506  0.0022
17487W        W33621  12.192   1.082  12.677  0.3733 -0.0877 -0.1246
17488W        W33622  13.393   5.757   0.384 -0.2134  0.1816  0.0316
17489W        W33623  15.917  15.128   0.653 -0.0294 -0.3763  0.1928
17490W        W33624   9.218   1.962  12.677 -0.2290 -0.1473 -0.0684
17491W        W33625  18.118   8.080  11.667  0.2070 -0.0496 -0.0114
17492W        W33626   1.382   1.991   5.578 -0.1525  0.0926 -0.0816
17493W        W33627  13.858   1.090   1.995  0.1809 -0.1495  0.1128
17494W        W33628  10.009  10.691   2.680 -0.2967  0.1018  0.0062
17495W        W33629  16.365   0.604  11.943  0.4314 -0.0930  0.4198
17496W        W33630  18.997  13.158   4.343 -0.0211 -0.0285 -0.0625
17497W        W33631  15.342   2.480  15.236  0.0396  0.1258 -0.2121
17498W        W33632  13.580   4.242  11.641 -0.1211  0.1822  0.2154
17499W        W33633   0.957   3.222  11.826  0.0106 -0.1469 -0.4556
17500W        W33634  14.137  14.892   2.742 -0.1579  0.2073  0.1273
17501W        W33635   5.758  12.800  12.903  0.0979  0.1765 -0.0770
17502W        W33636   5.582  18.044  11.980 -0.2589 -0.0277  0.3176
17503W        W33637  17.608  18.404   2.300 -0.0351  0.2273  0.0822
17504W        W33638   9.359  15.021  13.680 -0.3611 -0.1849  0.2848
17505W        W33639  14.744  10.543   4.581 -0.0388  0.0467 -0.0999
17506W        W33640  17.905   9.343   0.823  0.1307 -0.0045  0.1921
17507W        W33641  11.191   6.139   1.761 -0.3057 -0.0806 -0.2306
17508W        W33642   0.937   2.697   4.113  0.0302 -0.1086  0.0913
17509W        W33643  18.810  13.951  15.143 -0.1311 -0.3137 -0.0872
17510W        W33644   8.204  16.502  10.821  0.0159 -0.0113 -0.4055
17511W        W33645  10.530  11.159   1.892  0.4706 -0.3186 -0.0467
17512W        W33646  15.777   4.970   4.609  0.0802  0.2933 -0.1102
17513W        W33647   0.194  11.861   3.987 -0.1161  0.0293  0.1886
17514W        W33648   1.913  10.644  11.193 -0.1890  0.1143 -0.0446
17515W        W33649   6.754  13.908  11.727 -0.2674 -0.2836  0.1775
17516W        W33650   3.509  14.630   6.087  0.0994  0.0911  0.1364
17517W        W33651   0.167   7.013  13.348  0.2366  0.2053 -0.0051
17518W        W33652  18.102   7.396   4.524 -0.2304 -0.0256  0.1134
17519W        W33653  18.870  16.910  14.830  0.0011  0.2101  0.1057
17520W        W33654   0.156  16.179  12.804  0.1182  0.1935  0.2206
17521W        W33655  17.340   6.897   5.331 -0.0518  0.0781 -0.1370
17522W        W33656  11.386  12.244   4.849  0.5184  0.0336  0.0568
17523W        W33657  10.487   5.265   1.333  0.0029 -0.1322  0.0532
17524W        W33658   9.383   5.889  10.434  0.1038 -0.0356  0.1477
17525W        W33659   8.521   9.801   2.011 -0.4908  0.0507  0.1463
17526W        W33660   2.908   6.354   4.072  0.1954 -0.1438 -0.0879
17527W        W33661  14.752  17.343   2.953 -0.0039  0.0643 -0.0903
17528W        W33662  18.715  17.464   3.065  0.1155  0.0596 -0.0891
17529W        W33663  13.151  14.929  10.267 -0.4294 -0.1928  0.4722
17530W        W33664   5.166   0.170  11.881 -0.0879 -0.4005  0.0414
17531W        W33665   4.365  15.893   5.052 -0.0293 -0.0935  0.0088
17532W        W33666   5.590   3.713  13.653 -0.0827  0.2102 -0.1429
17533W        W33667  15.656  15.962  14.724  0.2239  0.0196 -0.0241
17534W        W33668  11.874  10.082   0.995 -0.1431 -0.1765 -0.1117
17535W        W33669   8.093   4.263   2.558  0.1837 -0.0971  0.0391
17536W        W33670   8.352   5.808   4.300  0.0951  0.0296  0.0401
17537W        W33671   6.969  14.778  11.834 -0.1102  0.1089  0.0848
17538W        W33672  14.156   4.055   3.335  0.1147 -0.3206  0.1686
17539W        W33673  15.368   7.861  11.160  0.3217 -0.0026 -0.0791
17540W        W33674   2.043   9.550   1.816  0.0198  0.2999  0.3612
17541W        W33675   0.261  11.767   0.173  0.0892  0.1629  0.0373
17542W        W33676  15.149  18.040  12.841  0.2657 -0.2712  0.0724
17543W        W33677   8.295   7.954   3.452  0.1429 -0.2513 -0.0909
17544W        W33678  17.131  14.365  10.900  0.2798  0.0808 -0.1093
17545W        W33679   9.566   4.501  11.716  0.2490  0.0864  0.0471
17546W        W33680   8.085  15.866  13.055  0.2230 -0.0828  0.2115
17547W        W33681   9.796   8.245  14.119  0.1833 -0.0208  0.1683
17548W        W33682   5.003  18.736  11.859 -0.2948  0.1888 -0.0267
17549W        W33683  18.513   6.635  11.405 -0.3915  0.2130  0.1398
17550W        W33684   7.495   0.168   1.123  0.0165 -0.0175  0.1537
17551W        W33685  11.783   7.386   3.075 -0.2063  0.0773 -0.4588
17552W        W33686   9.709   5.844  11.980 -0.3278 -0.2658  0.0365
17553W        W33687   3.166   8.763   3.379  0.0140  0.0306 -0.1039
17554W        W33688  15.685   3.943   3.401  0.0568 -0.2149 -0.0826
17555W        W33689   9.765   6.329  14.197 -0.1341 -0.0326 -0.1814
17556W        W33690   1.729  16.324  10.056 -0.1889  0.0151 -0.0350
17557W        W33691  18.087  12.341  12.255  0.0605 -0.2425  0.2551
17558W        W33692   3.484  14.567  14.239 -0.3389  0.0326  0.0959
17559W        W33693  11.542  16.136  14.250  0.0304 -0.2134  0.0570
17560W        W33694  13.765   0.089  11.880  0.0380  0.1185  0.1636
17561W        W33695   9.915   2.482   0.457 -0.0463  0.0946  0.0286
17562W        W33696  15.411   7.082  12.279  0.0721  0.0103 -0.0282
17563W        W33697   9.018   7.166   3.382 -0.0777  0.0303  0.1603
17564W        W33698   1.767  13.281  12.412 -0.0850  0.3640  0.0093
17565W        W33699  16.264  16.581  10.644 -0.0970  0.0325 -0.0291
17566W        W33700  11.431  15.626  13.549 -0.1707  0.1208  0.0980
17567W        W33701  18.732   7.545   1.068  0.1782  0.0426  0.0902
17568W        W33702  14.476  12.361  10.914  0.1260  0.1749  0.1826
17569W        W33703   8.068   9.101   9.344 -0.2203 -0.2447  0.0654
17570W        W33704   9.767  16.703  11.749  0.0178 -0.1264  0.0594
17571W        W33705  16.972  11.049  10.497 -0.1516 -0.4388  0.0451
17572W        W33706   0.212   2.218   1.137 -0.0542 -0.0742  0.3467
17573W        W33707   9.521   2.067   1.737  0.0175 -0.0585  0.3089
17574W        W33708  16.575  17.800  14.838  0.0425 -0.0405 -0.0985
17575W        W33709   2.591  11.070   1.222  0.1549  0.0895  0.2269
17576W        W33710  11.243   3.977  11.806 -0.1000 -0.1417 -0.1257
17577W        W33711  14.926  17.622  11.968 -0.0434  0.0598  0.1573
17578W        W33712   2.930  11.520   0.155 -0.2880  0.1701  0.0516
17579W        W33713   1.151   0.975   2.685 -0.0724 -0.0436 -0.0152
17580W        W33714   0.627   9.426  10.403  0.3348 -0.1598  0.0642
17581W        W33715  12.811  16.585  12.194 -0.0864 -0.1455 -0.1850
17582W        W33716   2.219   8.883  11.984  0.0714  0.1987  0.0169
17583W        W33717  11.728  15.184   0.653  0.2169 -0.3328  0.2813
17584W        W33718   7.808  18.326   4.569  0.1348  0.1704 -0.1963
17585W        W33719   0.026  13.073  11.083  0.1818  0.2583 -0.1439
17586W        W33720  18.826   7.197   0.301 -0.4593  0.0726  0.1383
17587W        W33721   9.618  11.344   0.229 -0.2274 -0.0190  0.0974
17588W        W33722  16.825   2.437  12.131 -0.0242  0.1703 -0.0861
17589W        W33723  16.628   5.728   3.884 -0.0648 -0.3345 -0.0595
17590W        W33724  12.578  11.463   1.553  0.2644  0.4125  0.1564
17591W        W33725   9.168   0.181   3.823 -0.1882 -0.4446  0.1495
17592W        W33726  11.416   0.711  10.549  0.0187  0.2002 -0.3821
17593W        W33727   9.854   9.787  11.876 -0.2521 -0.0158  0.3284
17594W        W33728   8.206   1.163  12.133  0.6267  0.1062  0.0673
17595W        W33729  17.329   0.283   1.779 -0.0821 -0.2101  0.0596
17596W        W33730  16.303  12.626  13.652 -0.0661 -0.0053  0.1715
17597W        W33731   8.403   8.736   4.295  0.1227  0.2944  0.2511
17598W        W33732   0.957   8.223   2.224 -0.2070  0.0473  0.2181
17599W        W33733  18.868  12.452  14.307  0.0196  0.2234  0.1457
17600W        W33734  11.151  11.000  12.552  0.0236 -0.0506  0.1596
17601W        W33735  18.382  14.270  13.790  0.0160 -0.0667  0.2059
17602W        W33736   3.166  13.499  13.298  0.1824  0.0720 -0.2505
17603W        W33737  13.325  18.192   3.793  0.1908  0.1828  0.0494
17604W        W33738  16.163  12.183  11.771 -0.0970 -0.0106  0.0293
17605W        W33739  15.045   4.972   0.803  0.2786  0.2469 -0.0325
17606W        W33740   8.941   4.455  11.712  0.0369 -0.2800 -0.0432
17607W        W33741  11.425  17.120  13.881  0.0806 -0.0123  0.2071
17608W        W33742  15.590   5.910   4.729  0.2391 -0.2172 -0.1407
17609W        W33743   5.091   5.701  14.790  0.1688 -0.0910 -0.1604
17610W        W33744   6.683   2.247   1.636  0.0459  0.0181 -0.0384
17611W        W33745   7.264   7.670  12.447  0.2670  0.0295  0.1370
17612W        W33746  13.995   0.024  11.451 -0.1626  0.0173  0.1711
17613W        W33747  11.223  14.293  12.902 -0.0070 -0.2179  0.1374
17614W        W33748  11.109  13.921   4.795 -0.1936 -0.0809  0.0924
17615W        W33749   6.293  10.480   3.174 -0.0533 -0.1042  0.1609
17616W        W33750   9.928   8.933  12.275 -0.2753 -0.3524  0.1623
17617W        W33751  13.608  12.313  11.556  0.0636 -0.3531  0.4274
17618W        W33752  16.026  13.278  12.583 -0.1228 -0.0302  0.0775
17619W        W33753   4.984  14.922  11.344  0.4010 -0.0921  0.2975
17620W        W33754   1.639   9.794  12.740  0.0652  0.2102  0.0405
17621W        W33755   9.901   2.892   1.224  0.1161 -0.0409 -0.0636
17622W        W33756  17.645  12.506   1.765 -0.0349  0.0255  0.0702
17623W        W33757   2.168   6.892   1.198 -0.1139 -0.1264  0.2160
17624W        W33758  16.857   7.290  15.243  0.2387  0.1715 -0.1016
17625W        W33759  18.662  13.116  13.285  0.1086  0.0136  0.4117
17626W        W33760  13.011   9.747   2.825 -0.1312 -0.1059 -0.1015
17627W        W33761  14.567   0.010   0.194  0.0075 -0.4267 -0.0132
17628W        W33762   9.320  14.585   3.184  0.0157  0.3322  0.0662
17629W        W33763  13.848  12.023  15.033 -0.0901 -0.1197  0.1554
17630W        W33764   0.004  12.966  14.131 -0.1714 -0.0994 -0.1222
17631W        W33765   9.874  17.711  14.665 -0.0848  0.2051 -0.0814
17632W        W33766  12.259   4.838   4.600 -0.0356 -0.1811 -0.0335
17633W        W33767  17.620  12.739   4.941 -0.3766  0.0490  0.0643
17634W        W33768   3.002   5.484  14.075  0.0607 -0.4417 -0.0944
17635W        W33769  11.164   2.990  11.260 -0.3944 -0.0110  0.1045
17636W        W33770  17.937   5.136   3.585 -0.1531  0.2266  0.2965
17637W        W33771   0.139  18.798  11.011 -0.0687  0.0173  0.1096
17638W        W33772  18.564   9.383  11.500  0.0227  0.0690 -0.5788
17639W        W33773  18.877  15.202   4.085  0.3540 -0.0901 -0.0902
17640W        W33774   0.950   4.417  11.226 -0.1954  0.1981  0.0641
17641W        W33775   0.762   3.373  12.627 -0.1592  0.2807 -0.2552
17642W        W33776  11.522  12.420   1.090 -0.0281 -0.1056  0.0201
17643W        W33777   3.713   6.951  14.365 -0.1598  0.1818 -0.1733
17644W        W33778  11.616   4.641  12.142 -0.2865 -0.1052 -0.2212
17645W        W33779   4.296   8.076   5.010  0.0560 -0.1913  0.3685
17646W        W33780   3.184   7.841   1.574 -0.0313  0.0907  0.0981
17647W        W33781   6.556  15.053   4.780 -0.0858  0.2968  0.1118
17648W        W33782  14.207  13.354  12.297  0.0558 -0.0459 -0.0607
17649W        W33783   8.793   8.896   1.880 -0.1805 -0.0365 -0.0792
17650W        W33784  13.835  11.760   5.508  0.1574  0.3726 -0.0586
17651W        W33785   3.134  10.438  15.219  0.0591 -0.3013 -0.2695
17652W        W33786   9.649   2.429   9.643 -0.0661 -0.0436  0.3375
17653W        W33787   3.318   0.358   3.121  0.2173  0.2023  0.3131
17654W        W33788  13.409  12.350  15.126 -0.0250 -0.0871  0.2174
17655W        W33789   8.995  18.736   0.054 -0.0310  0.1261  0.0504
17656W        W33790  18.617   8.326   0.358  0.0116  0.2933  0.0242
17657W        W33791  10.005  18.210   5.520 -0.0452 -0.3019  0.0385
17658W        W33792   2.574  15.206  10.738  0.0954 -0.0761  0.2869
17659W        W33793  17.595   9.196   3.108  0.2953 -0.0542 -0.1699
17660W        W33794   4.717  10.314  14.688  0.0525 -0.4792  0.1292
17661W        W33795  14.486   1.848  11.608 -0.1592 -0.0100  0.0624
17662W        W33796  14.576  17.624   2.468 -0.1223  0.0353  0.1458
17663W        W33797  16.306  12.585   3.075  0.2389  0.1181 -0.0487
17664W        W33798  18.679   3.742   2.482  0.5606 -0.0670  0.1717
17665W        W33799   9.010  16.480   3.714  0.2702 -0.1522 -0.2772
17666W        W33800  16.265  18.569   3.507  0.0126  0.0253 -0.0606
17667W        W33801   0.547  18.598  11.459  0.0686  0.0036  0.1801
17668W        W33802   6.123   6.974   5.036 -0.0191  0.2930 -0.1601
17669W        W33803   0.614  17.907   4.362  0.0633 -0.1683  0.1611
17670W        W33804   5.215  16.659  11.341  0.0070 -0.0124  0.0055
17671W        W33805   6.752   0.596   1.888  0.1990 -0.0501  0.2637
17672W        W33806   5.503  15.510   1.018  0.0295 -0.1414 -0.0197
17673W        W33807   0.510   2.907  11.188 -0.0339  0.2937  0.2167
17674W        W33808  18.611   9.662   4.639 -0.2142 -0.0094 -0.0015
17675W        W33809  12.710  11.315  13.263 -0.2617  0.0420 -0.1980
17676W        W33810  17.910   2.984   2.084 -0.3588  0.2871  0.1595
17677W        W33811   2.263   7.928  11.643 -0.2934  0.0800 -0.2051
17678W        W33812  16.900   0.779  13.038  0.0495  0.0411  0.0951
17679W        W33813   7.046   4.847  12.879 -0.1620  0.0043 -0.2234
17680W        W33814   7.875   2.647   0.323  0.3174  0.0695  0.0926
17681W        W33815   2.094  13.340   2.901 -0.0892 -0.2156  0.0435
17682W        W33816  15.504  18.415   4.036  0.1588  0.2495  0.2136
17683W        W33817   0.735   5.055   3.714  0.0592  0.1964  0.0834
17684W        W33818  14.697  14.323   1.128  0.0972 -0.1583 -0.2198
17685W        W33819  14.835  17.462   0.904  0.1239  0.2246 -0.1997
17686W        W33820   7.379  12.416  12.059  0.0487  0.0495  0.1728
17687W        W33821  16.698  16.161  13.272  0.0381  0.0067  0.0921
17688W        W33822  13.633  17.754   2.252 -0.0326 -0.2097 -0.0512
17689W        W33823  14.620   2.659  12.041 -0.0667 -0.0610  0.0192
17690W        W33824   0.108   7.410   1.892 -0.2198 -0.2140 -0.2539
17691W        W33825   1.110  12.383  11.765  0.2076  0.2441 -0.0137
17692W        W33826  16.577   5.609  12.411  0.3179  0.2661  0.2976
17693W        W33827  10.490   7.518  14.082  0.2351  0.1106  0.3549
17694W        W33828   0.459  16.443  14.523 -0.2273 -0.1354  0.1178
17695W        W33829   2.985   8.611   1.966  0.1769 -0.2136  0.0897
17696W        W33830   5.133  10.034  10.854  0.1560  0.3045  0.1266
17697W        W33831   0.375   7.597   2.281 -0.2193 -0.2815 -0.1131
17698W        W33832  11.808   4.938  13.129  0.1765 -0.1306  0.0068
17699W        W33833   6.764  17.260  14.868 -0.2991  0.0565  0.1735
17700W        W33834   8.886  11.864   2.808  0.3048  0.0024 -0.2637
17701W        W33835  14.580   9.293  11.590  0.0450  0.0944 -0.0962
17702W        W33836  11.322  14.884   0.451 -0.1913 -0.1061  0.1459
17703W        W33837   5.611  16.024  10.879  0.1415 -0.0349  0.0142
17704W        W33838  12.952   8.145   0.684  0.0348 -0.2760 -0.0617
17705W        W33839  17.162  18.300   5.248  0.1648  0.0726 -0.0601
17706W        W33840   6.103   9.885  13.391 -0.1064  0.0365  0.0880
17707W        W33841   2.835   6.329   1.846 -0.0289  0.0010  0.1530
17708W        W33842  14.480   5.251   1.724  0.3691  0.0315 -0.1034
17709W        W33843   3.553  10.245   4.380 -0.0138  0.1525 -0.0095
17710W        W33844  11.395  16.106   4.644 -0.0252 -0.0892 -0.1190
17711W        W33845   5.673   1.699   9.941 -0.0697  0.0619  0.0763
17712W        W33846  13.553  14.354  14.126 -0.2751  0.1291 -0.0132
17713W        W33847  16.608   4.378  13.076 -0.0200 -0.1747 -0.0731
17714W        W33848   8.860   5.932  11.534  0.1194 -0.0610  0.2600
17715W        W33849   0.672  16.031  14.233 -0.0509  0.1242  0.0571
17716W        W33850   6.029   7.379   0.671  0.2708 -0.0188  0.2952
17717W        W33851   1.982   1.966   1.618  0.2415  0.0102  0.1915
17718W        W33852   2.535  17.135  11.880  0.2905  0.1697  0.0719
17719W        W33853   3.296  18.711  10.191  0.2684 -0.1022  0.2560
17720W        W33854  10.503  15.096   0.278 -0.0041 -0.1129 -0.1836
17721W        W33855  15.419   3.025   3.861  0.2698  0.2631  0.0771
17722W        W33856  13.714  10.532  13.262  0.1504 -0.1719  0.0684
17723W        W33857  18.505   4.103   1.737 -0.1668 -0.0012  0.3223
17724W        W33858   8.963   0.066   4.952  0.2491 -0.0091  0.1853
17725W        W33859  12.777  14.424   0.720 -0.0306 -0.0836  0.0095
17726W        W33860   2.352   0.444  13.593 -0.2735 -0.0805 -0.1093
17727W        W33861  12.837  11.884   2.465  0.0155 -0.3255  0.0661
17728W        W33862  10.477   8.151  15.011 -0.1703 -0.2673 -0.1565
17729W        W33863   4.910  12.540  14.026 -0.0454 -0.0799  0.2385
17730W        W33864   8.586  13.810   2.635 -0.3229 -0.2141  0.0945
17731W        W33865   3.996  13.273  13.585 -0.2167  0.0578  0.0231
17732W        W33866   5.382  11.730   0.400  0.0719 -0.3155 -0.0821
17733W        W33867  17.697   6.080  11.191 -0.1058 -0.2268  0.2057
17734W        W33868  12.528   2.993  12.351 -0.1103 -0.3008  0.0820
17735W        W33869   9.585   9.164   3.524 -0.2825  0.1452  0.3864
17736W        W33870   5.643   1.009  10.613  0.0660  0.1273  0.3019
17737W        W33871  18.555   9.816  15.191  0.1448 -0.3205  0.0546
17738W        W33872  16.683   3.464   0.919 -0.0021  0.0930  0.1376
17739W        W33873   0.128  18.001   1.372 -0.1952 -0.0676 -0.1209
17740W        W33874   1.948  10.842   2.510 -0.3144  0.0831 -0.0868
17741W        W33875   2.228  16.988   4.947  0.2805  0.0133  0.5935
17742W        W33876   4.292   7.535   1.527 -0.0660 -0.0042 -0.0543
17743W        W33877  10.030  10.993   3.873 -0.1337  0.0656 -0.0354
17744W        W33878  15.251  10.215   1.785 -0.2347 -0.0468  0.0126
17745W        W33879   6.491  13.716   2.954 -0.1153  0.2237  0.3882
17746W        W33880   4.374   5.835   1.769  0.0124  0.1247 -0.2509
17747W        W33881  13.915   3.986   0.836 -0.1114  0.0586  0.3214
17748W        W33882  17.634   6.222  11.886 -0.2156 -0.0267 -0.0452
17749W        W33883  16.933   2.708   4.894  0.2538 -0.0666 -0.0262
17750W        W33884  12.787  14.284  11.382 -0.2059 -0.1629 -0.0110
17751W        W33885  14.541  12.932   4.142 -0.0922 -0.0326 -0.2506
17752W        W33886  18.199   6.416   4.577  0.0344 -0.1698  0.1595
17753W        W33887   6.725  14.325  13.957  0.0016 -0.2290 -0.2469
17754W        W33888  15.077  13.488  11.277 -0.7604  0.1303 -0.0794
17755W        W33889   5.475   2.011   1.067 -0.1958  0.0814  0.1005
17756W        W33890   4.432  11.716   3.146  0.1430 -0.1572 -0.1166
17757W        W33891  15.373  16.528  10.752 -0.1124  0.0105 -0.0010
17758W        W33892   4.605   7.136   1.686  0.0272 -0.2333  0.2327
17759W        W33893   2.239   6.250   3.439 -0.3596 -0.0182  0.0930
17760W        W33894   5.839  12.850  14.763  0.1998  0.0393  0.3380
17761W        W33895  15.169  14.663  14.592 -0.0227  0.2809  0.0815
17762W        W33896   2.082   7.519   0.266  0.0594  0.1219  0.0915
17763W        W33897   7.337   3.921   0.004  0.1225  0.2419  0.1629
17764W        W33898   6.657   6.851   1.198 -0.0540 -0.0999  0.0247
17765W        W33899   8.398  11.342  10.637  0.1881 -0.0642  0.2173
17766W        W33900  18.700   2.635  11.889  0.1888 -0.0510  0.0792
17767W        W33901  17.859  11.332  10.615 -0.3424 -0.1707  0.1952
17768W        W33902   7.571  13.391  12.939  0.1434  0.1086 -0.0642
17769W        W33903  11.980   7.902   3.976  0.1229  0.0215 -0.2043
17770W        W33904  14.730   5.971  12.366 -0.0560  0.0787 -0.2113
17771W        W33905  18.776  15.308  12.593  0.1309  0.2443  0.5836
17772W        W33906  11.321  16.441   2.996 -0.3431  0.2552  0.2907
17773W        W33907  10.643  15.359  15.126  0.2424  0.1768 -0.1120
17774W        W33908  15.457  15.284  12.994 -0.1670  0.1552  0.5226
17775W        W33909   4.940   7.449  14.448 -0.0372  0.0264  0.0758
17776W        W33910   4.671  17.736  10.187  0.1612 -0.3219  0.1589
17777W        W33911  18.715  11.418  12.682  0.1797  0.4196 -0.2180
17778W        W33912  12.766  13.313  13.602  0.1753 -0.2300  0.2904
17779W        W33913   7.044  17.075   4.716 -0.0314 -0.2000  0.1072
17780W        W33914  13.214   8.369   5.448 -0.1475 -0.0229  0.2157
17781W        W33915  10.396   4.438   3.414  0.1422  0.4441  0.2391
17782W        W33916  16.680  13.222  14.102 -0.1631 -0.2519  0.0982
17783W        W33917   1.328  15.215   2.014 -0.1099 -0.0475  0.1958
17784W        W33918  18.454  18.402   3.915  0.2217  0.0008  0.2505
17785W        W33919   1.571  14.768  14.981  0.0858  0.2532  0.1076
17786W        W33920  16.047   6.168   0.102  0.1783 -0.0485 -0.3242
17787W        W33921  15.047   9.750   1.738  0.2484 -0.2946 -0.2131
17788W        W33922  15.739   9.425  14.772  0.0649  0.2334 -0.1385
17789W        W33923  15.870  16.895   0.290 -0.3306 -0.0410  0.1311
17790W        W33924   2.529  12.974  13.764  0.1287 -0.1309 -0.1485
17791W        W33925  10.387   8.687   0.754  0.0892 -0.0107 -0.0281
17792W        W33926  18.813   8.152   4.453 -0.4885  0.0638 -0.0921
17793W        W33927  17.568  13.191  11.314  0.2127  0.1745 -0.1479
17794W        W33928   7.187  10.053   3.833  0.3352  0.3102 -0.1228
17795W        W33929   4.659  15.159   0.647  0.0908 -0.0547 -0.0116
17796W        W33930  16.033  12.924   3.501  0.1043  0.0299  0.0591
17797W        W33931   1.173   7.136   2.865  0.1762  0.2097 -0.0207
17798W        W33932  11.300  12.096   2.065 -0.0938 -0.0313 -0.0936
17799W        W33933  12.972   1.637   3.211  0.0116  0.1092  0.0486
17800W        W33934  17.997   8.184   3.589 -0.0940  0.0391  0.1708
17801W        W33935  16.208   0.829  14.835  0.2372 -0.1902 -0.0866
17802W        W33936   0.479   1.748  11.850  0.0388  0.2999  0.0085
17803W        W33937  13.244  14.632   4.587  0.0688  0.0056  0.0682
17804W        W33938  14.783  13.577  12.206  0.3713 -0.1356  0.1191
17805W        W33939  10.914   2.709   4.161  0.3751 -0.1564  0.1828
17806W        W33940  15.658   9.191   1.534  0.1629 -0.0888 -0.1581
17807W        W33941   8.786   8.249  14.260  0.3760  0.3493 -0.0073
17808W        W33942   6.152  12.482   1.423  0.0255  0.2091 -0.1508
17809W        W33943  18.049  17.039   0.498  0.0039  0.0223  0.1406
17810W        W33944   7.528   8.593  12.633  0.0090  0.1369 -0.2149
17811W        W33945   3.657  17.711   3.649 -0.0520  0.1151 -0.4248
17812W        W33946   9.691  18.437   2.044 -0.0113 -0.0120 -0.5297
17813W        W33947   5.348   8.478   1.109  0.1049  0.2161 -0.4158
17814W        W33948   0.921  12.632  11.268 -0.0334  0.1517  0.2670
17815W        W33949  14.322  16.837  13.152 -0.4004 -0.3165  0.2081
17816W        W33950  16.200  12.429  13.149 -0.2054  0.0496 -0.0537
17817W        W33951  12.352   2.057   2.344  0.0396 -0.1662  0.3437
17818W        W33952  16.274   3.359  10.084  0.1785  0.1865 -0.1101
17819W        W33953   7.839   0.968   1.184  0.0781  0.0972  0.0529
17820W        W33954   2.500  17.759   0.841  0.0699  0.1140 -0.1223
17821W        W33955   6.421   2.889  11.710  0.0249 -0.3182  0.0102
17822W        W33956  11.510  10.692   5.054  0.1180  0.0608 -0.0955
17823W        W33957   5.194   9.108   0.380 -0.0393  0.0164  0.0137
17824W        W33958  17.223   4.537  11.887  0.1247 -0.0159 -0.0219
17825W        W33959   7.058  14.562  12.341 -0.2284 -0.0845 -0.0919
17826W        W33960   6.267   4.263   4.054 -0.3727 -0.2873  0.0330
17827W        W33961   4.292  17.902  10.704 -0.3398 -0.0243  0.0343
17828W        W33962  13.997   0.653   4.168 -0.2134 -0.0514 -0.2003
17829W        W33963   9.131  10.604   9.774 -0.3097  0.0730 -0.3740
17830W        W33964   6.039   1.761  15.190  0.3141  0.0633  0.1309
17831W        W33965  13.204  12.053   3.932  0.1964  0.0169  0.2626
17832W        W33966  15.413   7.929  14.294  0.1577 -0.0152  0.2219
17833W        W33967   2.168   5.553   4.317  0.0528  0.1577  0.1254
17834W        W33968   9.589  12.133   2.486 -0.1500  0.1754  0.0125
17835W        W33969  16.051   0.065   0.030  0.2769 -0.1257 -0.0527
17836W        W33970  13.001   2.494  10.611  0.3350  0.0182 -0.2430
17837W        W33971   7.025  13.581   4.419 -0.1056 -0.1098  0.1000
17838W        W33972   5.545   5.256  10.851  0.2169  0.0237 -0.0343
17839W        W33973  12.310  14.073   1.492 -0.1349  0.0185 -0.2946
17840W        W33974   9.546   8.512   1.191 -0.0207  0.0109 -0.1648
17841W        W33975   1.726  13.992  10.934 -0.0784 -0.3133  0.0150
17842W        W33976   6.398  10.780  14.776  0.1320  0.1314  0.3000
17843W        W33977  15.307   8.393  13.732  0.0067 -0.0972 -0.4881
17844W        W33978  12.825  15.463  14.880 -0.3551  0.1193  0.2223
17845W        W33979   9.538  14.954  15.087  0.2581  0.2143  0.1197
17846W        W33980  10.376  17.067   1.068 -0.1004 -0.0188  0.1047
17847W        W33981   1.915   1.849   4.785 -0.0398 -0.0037  0.2818
17848W        W33982   8.750   2.624  13.119 -0.0547  0.1828  0.2065
17849W        W33983  17.671  13.114   1.193  0.0071  0.1504 -0.3367
17850W        W33984   0.160   1.739   2.220 -0.0499 -0.2065  0.4503
17851W        W33985   6.491   5.347   1.133  0.2401 -0.0268  0.2029
17852W        W33986   5.616   0.563  10.878  0.1612  0.2985 -0.2629
17853W        W33987   3.718  11.167  14.283  0.2500  0.0384 -0.3315
17854W        W33988  10.780  13.596  14.302  0.2013  0.1306  0.1398
17855W        W33989   9.029   4.817  10.845 -0.1712  0.1471  0.3691
17856W        W33990   0.856  10.390   3.694 -0.3627  0.1167  0.2192
17857W        W33991  18.605   4.551   1.518  0.0804 -0.0803 -0.1042
17858W        W33992  10.269  12.652   4.785  0.0579  0.1664 -0.1518
17859W        W33993   0.434  10.362   3.947 -0.3295 -0.1212 -0.1111
17860W        W33994  11.658   0.510   0.498  0.0922  0.0095  0.0047
17861W        W33995   2.108   6.137  14.690  0.1397 -0.1998  0.1376
17862W        W33996  13.770   1.617   3.004  0.0208  0.0337  0.3083
17863W        W33997  17.421   8.195   5.427  0.3089 -0.2182 -0.2239
17864W        W33998  10.214  13.919  13.595 -0.1845  0.1281  0.0121
17865W        W33999   7.879  14.006   3.317  0.0456  0.0040  0.0170
17866W        W34000  14.208   0.933   3.427 -0.0919 -0.0699 -0.1949
17867W        W34001  13.185  10.994  11.190  0.0104  0.0556  0.3057
17868W        W34002   9.388  10.901  12.894 -0.5638  0.2396  0.0439
17869W        W34003   6.362  16.873  13.076 -0.0156  0.1725  0.1394
17870W        W34004  11.442   9.555   9.887  0.0125 -0.3272  0.0273
17871W        W34005  11.694   4.610   5.360  0.3822 -0.1097  0.0158
17872W        W34006  17.188  13.548   2.601 -0.4008 -0.0639  0.1713
17873W        W34007  16.380   8.484   1.222 -0.0669 -0.1470  0.0769
17874W        W34008   0.290   0.960   4.783  0.0010 -0.0886  0.1372
17875W        W34009  16.326  11.161  11.073  0.1897  0.2366  0.0545
17876W        W34010   5.550  13.998  11.181  0.2604 -0.3163 -0.4778
17877W        W34011  13.896  10.018  12.083 -0.0128 -0.1086  0.0880
17878W        W34012   2.508   4.272   3.918  0.2086  0.1204  0.1451
17879W        W34013   5.802  12.227   4.516  0.0274  0.2604 -0.0597
17880W        W34014   3.391   0.539  14.481  0.0018  0.0274  0.0979
17881W        W34015   2.141   7.960  15.265  0.4071  0.1371  0.3427
17882W        W34016  12.064   8.522  14.463 -0.0611 -0.2052  0.0454
17883W        W34017  12.249  10.205  14.822  0.0601  0.1461  0.0740
17884W        W34018  13.211   1.095  14.651 -0.0903  0.3068  0.2010
17885W        W34019   4.947  10.387   1.136 -0.1729  0.1301  0.1886
17886W        W34020  11.168   1.965  12.241 -0.0661 -0.0715 -0.1890
17887W        W34021   3.720   6.501  14.047 -0.2583 -0.3617 -0.3475
17888W        W34022  17.426  16.702   4.508 -0.0601 -0.0634 -0.0523
17889W        W34023   6.751  18.699  11.030  0.0008 -0.2299 -0.2111
17890W        W34024   1.822   9.351  10.604  0.0622  0.0058  0.1206
17891W        W34025  11.500   3.202   2.408  0.3337  0.0455  0.2719
17892W        W34026  12.397   5.508  12.052  0.2429  0.2429 -0.1246
17893W        W34027   3.349  13.178   2.145 -0.0580  0.0693 -0.2837
17894W        W34028   5.619   4.237  14.934 -0.2206 -0.0167  0.0511
17895W        W34029  18.430   8.252  13.420 -0.0274  0.1585  0.0695
17896W        W34030   2.686   3.319  14.115  0.2443  0.0093 -0.1189
17897W        W34031  15.895   1.557   3.250 -0.1100  0.3718  0.1912
17898W        W34032   1.038  13.120  14.495 -0.2689  0.0860  0.0512
17899W        W34033   3.898   5.149  10.893  0.2897 -0.0002  0.2196
17900W        W34034   3.612   4.080  11.020  0.1778  0.0778 -0.1025
17901W        W34035   4.475   9.068  10.207  0.1012 -0.0922 -0.0614
17902W        W34036   8.341   1.776   2.109  0.0343 -0.0710 -0.5142
17903W        W34037   2.219   7.237  10.638 -0.2154 -0.0800  0.3176
17904W        W34038   8.163  12.900   1.519  0.0525  0.2343 -0.1708
17905W        W34039  14.076   7.338  10.504  0.1494 -0.0621 -0.1790
17906W        W34040  10.901  12.242  10.737 -0.0824  0.2694  0.1851
17907W        W34041  11.490   7.918   1.899  0.2055  0.1826 -0.2427
17908W        W34042  11.675   6.877  13.252  0.0693 -0.1211 -0.1944
17909W        W34043  11.819   8.101  14.340 -0.2342 -0.0197 -0.2074
17910W        W34044  10.748  12.370  12.201  0.3510 -0.4652  0.1686
17911W        W34045   4.214  11.429  14.152  0.0643  0.1723  0.0234
17912W        W34046   3.392   4.772  13.139 -0.0611  0.2042 -0.1002
17913W        W34047  10.750   9.045  12.919 -0.0642  0.0938 -0.2806
17914W        W34048   4.003  10.097   1.218 -0.1884 -0.0233  0.0965
17915W        W34049   9.187   5.251   4.306 -0.3326 -0.2875  0.0566
17916W        W34050   7.164   4.352   3.193 -0.0494  0.1664  0.0928
17917W        W34051  16.629   6.664  15.037 -0.1606  0.2853 -0.2810
17918W        W34052   4.842   3.793  11.003 -0.0328 -0.2446  0.0422
17919W        W34053  10.725   5.793  15.107 -0.0009 -0.0581  0.1818
17920W        W34054  14.555   7.130  11.858  0.1199  0.0818 -0.3732
17921W        W34055   7.209   9.814   2.653 -0.1474 -0.0695  0.0846
17922W        W34056   9.772   3.250  10.262 -0.1006  0.1204 -0.2021
17923W        W34057   9.249   3.868  10.621 -0.0571 -0.0977 -0.0440
17924W        W34058  13.133   5.053  14.909 -0.0377  0.3585 -0.2392
17925W        W34059   4.859   8.880  12.082  0.1727 -0.1404 -0.0273
17926W        W34060  16.153  11.728  14.920 -0.1843 -0.0193 -0.1126
17927W        W34061   2.225   3.068  15.285 -0.3222  0.2268  0.2206
17928W        W34062  15.236  15.934  13.651  0.0955  0.1466 -0.1661
17929W        W34063  12.172  12.832   4.636 -0.4802  0.0045  0.0434
17930W        W34064   3.768   6.359  13.267 -0.1292  0.2809 -0.1322
17931W        W34065  13.916  15.432   1.411  0.2563  0.3485  0.1309
17932W        W34066  13.158  17.546   2.538 -0.1480  0.1440  0.1680
17933W        W34067   5.439  14.055  11.975  0.1765  0.0180 -0.1303
17934W        W34068   3.345   0.602   2.706 -0.1094  0.0203 -0.1770
17935W        W34069  13.551   3.710   3.830  0.0900  0.0602 -0.1131
17936W        W34070   4.398   1.146   4.162 -0.0659  0.0007  0.1970
17937W        W34071  16.757   2.968   3.383  0.1128  0.1699  0.3285
17938W        W34072  16.338   7.981   1.247  0.2233  0.0953  0.1550
17939W        W34073  14.653  14.803  11.739 -0.4552  0.0713  0.1596
17940W        W34074  10.353   7.921   2.565  0.1203 -0.1283  0.1272
17941W        W34075   0.825  18.956   0.953 -0.0457 -0.0611 -0.0473
17942W        W34076  16.203   9.803   4.659  0.1548 -0.0324 -0.0088
17943W        W34077   6.373   4.750  14.539  0.2188 -0.2012 -0.1836
17944W        W34078  10.542  16.929  10.650  0.0397 -0.1270 -0.2715
17945W        W34079   4.254  16.651  13.619 -0.0211  0.1600  0.0030
17946W        W34080  17.342   2.019  14.021 -0.2898 -0.0448 -0.3571
17947W        W34081   8.630  10.562   0.301 -0.0451 -0.0859  0.2414
17948W        W34082   3.965   8.643  10.544 -0.1840  0.0089 -0.3311
17949W        W34083   3.061  16.212   5.180  0.1506 -0.2131 -0.0147
17950W        W34084   5.088  10.776   0.266 -0.3174 -0.3268  0.1222
17951W        W34085  18.901   1.718  14.552  0.0304  0.2521  0.0557
17952W        W34086  17.169   5.274  14.923 -0.2653  0.3672  0.3323
17953W        W34087   1.599   4.189   0.787 -0.0987 -0.1577 -0.1470
17954W        W34088   8.944   7.377  15.036 -0.0667 -0.1769 -0.1287
17955W        W34089   9.259   2.863   1.933 -0.2157 -0.0103 -0.1200
17956W        W34090  17.825   4.703  10.277 -0.0634  0.1213 -0.0463
17957W        W34091   0.147  15.359  11.035  0.3520  0.1345  0.2637
17958W        W34092   1.801  10.701   1.081 -0.1065  0.0502  0.0734
17959W        W34093   3.109   9.489   0.897 -0.0149  0.2614  0.0680
17960W        W34094  17.385  12.836   3.723  0.1206 -0.2971  0.0716
17961W        W34095   3.107   9.251  13.824 -0.0072  0.0860  0.0360
17962W        W34096  11.509   7.411  11.313  0.1504  0.0938  0.0932
17963W        W34097   5.664  16.394  12.793 -0.1925  0.1864  0.1214
17964W        W34098  17.497  13.639  13.586 -0.1984  0.1645 -0.1492
17965W        W34099   6.904  17.614   4.447  0.3046  0.0455  0.3606
17966W        W34100   7.693  15.674   1.945  0.1014 -0.1233 -0.4408
17967W        W34101  12.475  14.139  12.947  0.3700 -0.2223  0.1304
17968W        W34102  15.004  14.529  11.168  0.1749  0.0103  0.3321
17969W        W34103   4.968  15.572  10.107 -0.1738 -0.4396 -0.0903
17970W        W34104  13.288   7.305  13.930 -0.2631  0.0056 -0.0650
17971W        W34105  13.299   5.951   1.720  0.1122 -0.1664  0.0028
17972W        W34106  18.415  16.109  10.373  0.2268 -0.0084 -0.1330
17973W        W34107   6.118   4.750  12.994  0.0915 -0.2819  0.2249
17974W        W34108  16.429  14.281   0.695 -0.1290 -0.0954 -0.2127
17975W        W34109  15.090   0.651  13.212  0.1314 -0.1922 -0.1475
17976W        W34110   2.311   5.787  12.138  0.2270  0.0814 -0.2800
17977W        W34111   8.059   5.931   1.869 -0.2898 -0.2505  0.2559
17978W        W34112  12.978  17.281   2.018 -0.0828 -0.2893 -0.2340
17979W        W34113  10.895  15.225   4.816 -0.2525 -0.3047 -0.3136
17980W        W34114  15.318  14.096  15.286 -0.0765  0.1736 -0.2130
17981W        W34115   4.102  13.519  12.638  0.0495 -0.1940 -0.0078
17982W        W34116   7.405   7.236  12.760 -0.1076 -0.2952  0.1059
17983W        W34117   9.481   0.894   4.024  0.0851  0.0608 -0.1281
17984W        W34118  10.287  13.107   4.656 -0.1111  0.0560 -0.1799
17985W        W34119  14.831   3.479   0.850 -0.0534  0.0529 -0.2099
17986W        W34120  12.913   3.329  13.717 -0.0707 -0.0423  0.2190
17987W        W34121   1.384  15.646  11.955 -0.3290 -0.1649 -0.1960
17988W        W34122  15.701   7.676   1.916 -0.2571  0.3042 -0.0190
17989W        W34123  11.111  15.089   2.833  0.3439 -0.1682  0.1702
17990W        W34124  16.806   3.353  10.875 -0.4991 -0.1043 -0.2551
17991W        W34125   1.480  16.720  12.730  0.2243 -0.0807  0.1806
17992W        W34126   9.428   9.494   3.979 -0.0594  0.0256  0.0249
17993W        W34127  18.595   7.980   0.695  0.0028 -0.2101  0.1653
17994W        W34128  15.313   9.988   2.222  0.1957 -0.1010 -0.0914
17995W        W34129  18.859   5.602   2.245  0.1274 -0.1801  0.1778
17996W        W34130  13.175  17.815   1.439 -0.3434 -0.0482  0.1796
17997W        W34131   9.927  17.854   2.964 -0.0916  0.0461 -0.2443
17998W        W34132  10.318   8.586  11.036  0.0871 -0.0821  0.0645
17999W        W34133   4.810   2.617  12.399 -0.0628 -0.2509  0.2547
18000W        W34134  16.345  17.475   5.397 -0.3803  0.1646 -0.0516
18001W        W34135  11.705   9.645  13.804 -0.1275 -0.5340  0.2359
18002W        W34136   8.165  12.092   2.183 -0.0852  0.0401  0.1051
18003W        W34137  18.560   6.910  13.826  0.0151  0.0525  0.3061
18004W        W34138  14.049  16.814  10.816  0.0032  0.0636 -0.0075
18005W        W34139   0.566  17.714   1.260 -0.1900 -0.5239  0.0727
18006W        W34140   0.435   0.677   1.932 -0.3933  0.1184 -0.0730
18007W        W34141   6.018   5.980  14.757 -0.1957  0.1284  0.1375
18008W        W34142  17.447  10.824  10.482 -0.1126 -0.1640 -0.1869
18009W        W34143  18.003   4.537   3.566  0.1806 -0.3293  0.0944
18010W        W34144   4.028   8.366  11.602 -0.2131 -0.0565  0.0861
18011W        W34145  16.998  16.783   3.188 -0.0503 -0.0367 -0.1072
18012W        W34146  11.312  15.672   1.242  0.1227 -0.0962 -0.1417
18013W        W34147   6.888  12.960  13.249  0.1845  0.0276 -0.0256
18014W        W34148   8.649   0.142   1.390  0.0581 -0.2472  0.2913
18015W        W34149  16.538   6.844   1.777  0.0145  0.0430 -0.0871
18016W        W34150  12.298   6.937   5.108 -0.4153  0.0191 -0.2888
18017W        W34151   8.917  17.172   0.601  0.3734 -0.3258 -0.1893
18018W        W34152  13.221   3.951   1.548 -0.2767 -0.1764  0.1243
18019W        W34153   5.752   5.846  15.213  0.1253 -0.3694 -0.1894
18020W        W34154  10.884   1.191   3.814 -0.0521 -0.2908  0.5893
18021W        W34155   8.287  16.772  13.850 -0.1038  0.2083 -0.1189
18022W        W34156   4.654   7.178  11.442  0.4870 -0.1172  0.0334
18023W        W34157  12.068  16.978   0.420 -0.1553 -0.1719  0.1866
18024W        W34158   1.160   7.461   1.870 -0.2690  0.0109 -0.1361
18025W        W34159   7.399   5.243   2.602  0.3506 -0.0152  0.2072
18026W        W34160   7.998   7.247  12.700 -0.2166  0.2054  0.1251
18027W        W34161  18.433   6.859   1.911 -0.0865  0.3637  0.2318
18028W        W34162   7.896  14.643  12.322 -0.1585 -0.4021  0.0037
18029W        W34163  11.388  14.665  13.763 -0.0350 -0.0401  0.0061
18030W        W34164   6.929   7.256  13.342 -0.2762 -0.1564  0.1760
18031W        W34165   0.519   7.816  10.593 -0.0648  0.1610 -0.2752
18032W        W34166   3.191   5.414  14.987  0.2765 -0.0186 -0.3425
18033W        W34167   5.995   4.926  11.067 -0.6106  0.2599  0.2645
18034W        W34168   0.738   6.278   4.998 -0.2265  0.1776  0.4184
18035W        W34169   5.563  16.877  14.355  0.1080  0.1108  0.1458
18036W        W34170   0.781   7.665  13.077 -0.0814  0.4789  0.1843
18037W        W34171   2.706   9.774   1.216  0.3458  0.1560  0.2854
18038W        W34172   8.653   5.117   1.938  0.2069 -0.3080 -0.0666
18039W        W34173   1.718  10.891  12.173  0.1371  0.0894 -0.1148
18040W        W34174  17.838  12.788  13.447  0.2610  0.1337  0.0375
18041W        W34175  14.394  13.391   2.694  0.1346  0.4888  0.1822
18042W        W34176  10.020   6.476  12.524 -0.0679 -0.2976  0.0919
18043W        W34177   7.385  18.456   4.339 -0.1462 -0.0627 -0.1657
18044W        W34178  13.956   7.514  12.120  0.4889  0.1242  0.2361
18045W        W34179  12.651   1.209  11.722  0.0699 -0.0042  0.2300
18046W        W34180  14.024  18.816   4.908 -0.1818 -0.3117 -0.1853
18047W        W34181  18.730  18.202  15.051  0.2250 -0.0828  0.0700
18048W        W34182  14.176   6.858  14.032 -0.2394  0.1719  0.0025
18049W        W34183  10.301   3.309  11.311  0.1043 -0.1834 -0.2434
18050W        W34184   1.345   3.338   3.475  0.0461 -0.0044  0.1197
18051W        W34185  14.831  12.135   1.345 -0.0050  0.0200 -0.1889
18052W        W34186  13.692  11.873   1.561  0.0214 -0.4108 -0.1349
18053W        W34187   7.485   3.646  13.090  0.2945  0.0714  0.0187
18054W        W34188   6.692   2.504  15.200 -0.2433  0.0137 -0.1818
18055W        W34189  16.384  10.312  12.223  0.0376  0.2288 -0.0577
18056W        W34190   8.408   1.392  13.195  0.3036  0.1381  0.1495
18057W        W34191   8.224   0.308   0.534 -0.1271  0.2472  0.1473
18058W        W34192  11.457   9.138   3.263  0.0402 -0.0494  0.1262
18059W        W34193   3.438  11.596   4.674 -0.1067  0.0447  0.1569
18060W        W34194   1.556   1.814  14.996 -0.1752  0.2400  0.1218
18061W        W34195   1.655   4.056  11.610 -0.2528 -0.0384  0.0600
18062W        W34196   1.288  17.138  11.854 -0.1194 -0.1480 -0.0480
18063W        W34197  16.838   5.286  10.013 -0.1942 -0.1651 -0.3857
18064W        W34198  14.391   5.867   0.824 -0.3049  0.4401  0.1731
18065W        W34199  17.918   5.694  11.870 -0.0871 -0.1379 -0.0547
18066W        W34200   1.029   4.128  12.297  0.3631 -0.0575  0.0763
18067W        W34201   4.921  18.352  11.039  0.2032 -0.0123  0.4700
18068W        W34202  15.319  16.082   0.445 -0.1142 -0.0798 -0.0784
18069W        W34203  10.783  14.663   1.679 -0.1433 -0.3484  0.1157
18070W        W34204   2.160   9.055   4.007 -0.0927 -0.2230  0.0906
18071W        W34205  14.318   4.917  11.890 -0.0052 -0.2187 -0.3336
18072W        W34206   5.385   4.818  10.513 -0.1728 -0.2123  0.0621
18073W        W34207  10.687  13.459  12.392  0.0854  0.1150 -0.0353
18074W        W34208  10.504   5.233  14.912 -0.2561  0.2509 -0.1377
18075W        W34209  14.875   4.322  14.967 -0.1450  0.0637 -0.2831
18076W        W34210   1.771  14.176  15.003 -0.1408  0.0510 -0.1651
18077W        W34211  14.552   7.343  13.824  0.2802  0.5944 -0.1471
18078W        W34212   3.966  11.975   2.272 -0.3109 -0.1943  0.0491
18079W        W34213  14.694   1.585   3.024 -0.0866  0.0505 -0.0661
18080W        W34214  13.556   0.411   4.169 -0.0424 -0.0681 -0.1024
18081W        W34215   0.762  18.448   0.890 -0.0668  0.2362  0.0153
18082W        W34216   5.374  10.473  13.203 -0.0335 -0.0028 -0.0022
18083W        W34217  18.202   4.378  13.343  0.1754  0.1641  0.0921
18084W        W34218   0.416   4.130   3.542  0.2874 -0.0844  0.1661
18085W        W34219   7.608   4.222   2.171 -0.1425 -0.2872  0.2357
18086W        W34220  11.424  13.839   1.574 -0.0639  0.0572 -0.1557
18087W        W34221  16.823   5.628  11.688  0.0204  0.1707  0.0436
18088W        W34222  18.971   4.679  14.986 -0.1953 -0.0869 -0.1108
18089W        W34223   2.346  11.116  12.239  0.2302 -0.0930 -0.1997
18090W        W34224  10.136  13.060  11.407  0.3601 -0.0817  0.1344
18091W        W34225   8.728   0.997   5.105  0.2565 -0.2144  0.1832
18092W        W34226   4.012   9.032  12.176 -0.3665  0.5179 -0.0362
18093W        W34227   2.111  10.335   0.914  0.2095 -0.0461  0.1457
18094W        W34228   8.845   3.456  14.302 -0.2678 -0.2029  0.0128
18095W        W34229  10.151  15.715  13.520 -0.2990  0.0505 -0.0308
18096W        W34230   5.428  10.971   3.152  0.0889  0.0847  0.0031
18097W        W34231  14.141  18.003   4.385 -0.3937  0.0405  0.1039
18098W        W34232   7.634   9.613  13.577  0.2408 -0.2746 -0.0571
18099W        W34233   7.127  18.915   3.485 -0.2669  0.1514  0.0479
18100W        W34234  13.174   0.068  12.629 -0.0775 -0.2187  0.0900
18101W        W34235   7.420  13.788   4.261 -0.2895 -0.2090  0.2706
18102W        W34236   6.195   3.756  14.290 -0.1895  0.1054  0.3689
18103W        W34237  17.144   7.227   4.249  0.0855  0.2686  0.0829
18104W        W34238  17.168  13.815   1.731 -0.2870  0.0933 -0.0250
18105W        W34239  18.115   2.059   0.073 -0.2345 -0.1689 -0.2356
18106W        W34240  14.111  10.493   3.110  0.0951 -0.1637 -0.1141
18107W        W34241   5.619   8.455  14.005 -0.0575 -0.0775  0.0152
18108W        W34242  14.188   1.248  14.857 -0.2172 -0.0198 -0.1026
18109W        W34243   3.891   3.477   4.412 -0.0935  0.2752 -0.0322
18110W        W34244   3.308  18.371  15.077  0.0050 -0.0266 -0.2892
18111W        W34245  10.251  13.689   4.561 -0.1875  0.4255  0.0126
18112W        W34246  11.885   1.215  13.994 -0.1641  0.4273 -0.0903
18113W        W34247   3.180   1.009  13.947 -0.0060  0.1804 -0.0429
18114W        W34248   2.142  12.359  11.996  0.1523 -0.2040  0.0415
18115W        W34249   2.972   7.182   0.762 -0.0782 -0.3436 -0.0845
18116W        W34250  16.728   3.338  12.338  0.3565  0.3352 -0.0755
18117W        W34251  13.055  18.429   2.608  0.2802 -0.2644  0.1154
18118W        W34252   0.309   3.634   3.379 -0.1142  0.1893  0.0379
18119W        W34253  18.343   1.071  11.172  0.1033  0.0977  0.1379
18120W        W34254   3.449  17.918  15.028 -0.3944  0.0443  0.0027
18121W        W34255  18.037  11.598  13.963  0.1837  0.3972 -0.0217
18122W        W34256   4.924   3.704   1.208 -0.2433  0.0987  0.0004
18123W        W34257   0.558  13.507   5.231  0.0303  0.0928 -0.1460
18124W        W34258  10.481  12.007   2.706  0.0435  0.2119  0.0846
18125W        W34259   7.311   6.185  10.319  0.1958 -0.0650  0.4332
18126W        W34260   6.869  14.746   3.711 -0.0205  0.0542  0.1826
18127W        W34261   7.196  17.873  10.927  0.1726  0.0546 -0.2899
18128W        W34262   4.460   0.174  14.925 -0.0935  0.1145 -0.0391
18129W        W34263   4.275   6.446   0.244 -0.0825 -0.1460 -0.1455
18130W        W34264   7.434  18.458  15.095 -0.2548 -0.2098 -0.0056
18131W        W34265   5.839   6.831   4.051  0.0997 -0.0027  0.0514
18132W        W34266   2.238  18.230   3.445 -0.0404  0.1297 -0.0883
18133W        W34267   4.018   9.585   1.824 -0.0647  0.1278 -0.3548
18134W        W34268  14.761   2.822  10.781 -0.0176 -0.3123 -0.2950
18135W        W34269   5.114   1.676  10.768 -0.0775 -0.2952 -0.1105
18136W        W34270  15.689  11.798   1.009 -0.0689 -0.0490  0.0983
18137W        W34271   3.054  16.443   3.781 -0.0362 -0.2497  0.1761
18138W        W34272  12.411   9.140  14.221  0.0879  0.2337 -0.3837
18139W        W34273   6.750  15.991   1.828  0.0621 -0.1908 -0.0429
18140W        W34274   3.674  13.660   0.770  0.0502 -0.0249 -0.2415
18141W        W34275  16.063   4.502  11.660 -0.3869 -0.2309 -0.3741
18142W        W34276  17.082   0.026  15.006 -0.1267  0.0945  0.1074
18143W        W34277   9.298   2.298   3.769 -0.1635  0.0064 -0.1078
18144W        W34278  18.568   6.800  14.347  0.2652 -0.4089  0.2573
18145W        W34279   2.762   8.538  14.124  0.2190 -0.2048 -0.0562
18146W        W34280   9.342  15.979  14.812  0.2223  0.2677 -0.2374
18147W        W34281  10.699  10.361   1.436  0.0727  0.0776 -0.0704
18148W        W34282  16.167  10.735  15.123 -0.1109  0.0562  0.0415
18149W        W34283  17.802   8.691  12.400 -0.1688  0.0762  0.2627
18150W        W34284  10.812  15.850  12.827  0.2218 -0.0369 -0.3058
18151W        W34285  13.784  15.628  11.067 -0.1711  0.0982  0.2028
18152W        W34286   1.393  11.962  12.667 -0.1079  0.1555 -0.1745
18153W        W34287  11.759   6.471  13.639 -0.0133  0.1299  0.0869
18154W        W34288  17.497   2.816   1.869 -0.0524  0.1251 -0.1997
18155W        W34289   2.799  14.910   0.324  0.2715  0.0843 -0.0018
18156W        W34290  15.000   5.311  11.637 -0.3785  0.1541  0.1907
18157W        W34291   1.957   4.883  14.582 -0.0813 -0.2388 -0.2224
18158W        W34292  15.693  11.199   9.376  0.0379  0.0983 -0.0456
18159W        W34293   7.529  10.839   3.292 -0.1859  0.0982 -0.1197
18160W        W34294   1.018   7.387  14.907 -0.1209 -0.2062  0.0907
18161W        W34295   5.093  12.918   4.189  0.2293 -0.0339  0.0249
18162W        W34296  15.400  10.583  14.534 -0.4044  0.2157  0.1488
18163W        W34297   9.295   9.765   2.581  0.2766 -0.0220  0.0042
18164W        W34298   5.896   0.369   3.835  0.0528  0.0229  0.0358
18165W        W34299   2.989  13.859   4.645  0.2851  0.1385  0.1921
18166W        W34300   2.705   8.430  11.151 -0.2695  0.0961  0.2891
18167W        W34301   6.994   7.176   1.619  0.1538 -0.2573 -0.0733
18168W        W34302   5.908  18.375   0.648 -0.0391 -0.0013  0.4791
18169W        W34303   5.676  12.506  13.294  0.0882 -0.3166 -0.0866
18170W        W34304  10.946  18.146  11.694  0.0670 -0.0186  0.2144
18171W        W34305   3.386  14.124   1.635  0.1196  0.0640 -0.4074
18172W        W34306  10.511  10.573   2.570  0.0234  0.0189 -0.0143
18173W        W34307   5.392  11.493  11.966 -0.2443 -0.2232  0.1673
18174W        W34308   8.603   5.350  13.120  0.1883  0.0686 -0.2528
18175W        W34309   4.358  17.706  13.352 -0.1315  0.3949 -0.1079
18176W        W34310  13.611  10.555   0.405 -0.1908  0.0251 -0.2545
18177W        W34311   8.841  12.981   3.252 -0.0497 -0.1457 -0.1389
18178W        W34312  18.885   9.169  14.339  0.1429 -0.2004 -0.0324
18179W        W34313   4.350   3.557  10.754  0.0765 -0.4944 -0.0940
18180W        W34314  16.097  13.330  11.333  0.2436 -0.1188  0.2361
18181W        W34315  16.809   6.985   1.211 -0.1920 -0.2362 -0.0838
18182W        W34316  14.691  10.071   9.910  0.0915 -0.2413  0.0940
18183W        W34317  11.080  17.155   3.514 -0.3822 -0.0259 -0.0703
18184W        W34318   3.663  10.333   4.894  0.1244  0.0228  0.0619
18185W        W34319   4.597   8.775   4.543 -0.0809 -0.2714  0.1087
18186W        W34320   0.389  18.551  13.730 -0.1073  0.0176 -0.2054
18187W        W34321  15.666   9.416   0.027 -0.3303  0.0200 -0.0929
18188W        W34322   2.211  18.803  12.238  0.0175 -0.1016  0.2486
18189W        W34323   0.132  11.509  10.151  0.3227 -0.2955  0.5212
18190W        W34324  12.849   7.537   5.377 -0.1455  0.1377  0.0448
18191W        W34325  10.050   5.239  12.002  0.3355  0.1696 -0.1793
18192W        W34326   9.787   2.437  13.252  0.2694 -0.0149  0.1248
18193W        W34327   0.323  12.768   5.927  0.0483  0.1749  0.0569
18194W        W34328   1.248  17.363   1.993  0.1240 -0.5065 -0.1291
18195W        W34329  12.478   8.609   2.754 -0.2425 -0.0378  0.0822
18196W        W34330   9.348  15.053   1.388 -0.2225  0.1746  0.1650
18197W        W34331   5.935  14.975   4.757 -0.1608 -0.0902 -0.2638
18198W        W34332  16.637  18.334  15.195 -0.2094  0.1461 -0.2702
18199W        W34333  10.892  14.949   5.970 -0.0826 -0.1566  0.1429
18200W        W34334  18.886  16.957   3.688 -0.1377 -0.0714 -0.2120
18201W        W34335   1.302   1.164   1.245 -0.0300 -0.2325 -0.0519
18202W        W34336   1.732   6.812   4.157 -0.1381  0.2633 -0.1521
18203W        W34337   5.595  11.485  13.812 -0.2972 -0.0921  0.1991
18204W        W34338   9.863  14.993  13.512 -0.3100  0.2501  0.1978
18205W        W34339   4.977   4.740  12.517 -0.0945 -0.1991  0.1095
18206W        W34340   6.268  12.510  12.147 -0.1746  0.1049  0.1434
18207W        W34341   8.233   6.500  11.429 -0.2758  0.0551 -0.1837
18208W        W34342  16.266  18.536   0.246  0.1619 -0.0420 -0.3063
18209W        W34343  14.701  16.659  13.427  0.5402 -0.1242 -0.0021
18210W        W34344   2.374  17.543  14.177  0.1011  0.0087  0.1004
18211W        W34345  18.534   8.533   5.851  0.0563 -0.0558 -0.2876
18212W        W34346  18.963   1.345   4.052 -0.0487  0.2990 -0.0161
18213W        W34347  17.347   6.116   2.514 -0.0535  0.0020  0.0321
18214W        W34348  12.216   8.082  14.723 -0.0683 -0.0886 -0.2758
18215W        W34349   6.242  17.693  13.060 -0.1880  0.0342  0.0698
18216W        W34350   1.473   7.418   0.110  0.0673 -0.1497 -0.0463
18217W        W34351   5.027  15.405   1.437  0.1440 -0.3000 -0.2218
18218W        W34352  14.184   3.499   1.615  0.1455 -0.0469 -0.2339
18219W        W34353  12.533  17.521   2.934 -0.1155  0.1260 -0.0112
18220W        W34354  15.145  15.259   2.326 -0.3329  0.1835  0.2487
18221W        W34355  17.042  11.271   4.217  0.0598 -0.2429 -0.1303
18222W        W34356  18.191  16.300  11.972  0.0808 -0.1367  0.3955
18223W        W34357  15.415   3.274   5.067 -0.0345  0.4259 -0.2311
18224W        W34358  17.308  14.829  11.084  0.1904  0.1882  0.2142
18225W        W34359   9.638   1.039   4.938 -0.2305  0.0990  0.0083
18226W        W34360   8.791   2.251   3.475  0.0122 -0.1243 -0.1303
18227W        W34361   2.486   2.225  10.249  0.0443 -0.2310  0.3370
18228W        W34362  11.876   0.920  13.061  0.1938 -0.1521  0.0057
18229W        W34363  16.306  13.379   0.739 -0.1953  0.2491 -0.1960
18230W        W34364   0.063  17.371   1.125 -0.0262 -0.1123  0.1352
18231W        W34365   0.974   7.901  10.985  0.1017  0.0930  0.1803
18232W        W34366  11.441  13.338   1.454  0.2306  0.1272 -0.1005
18233W        W34367   4.512   0.813   2.059 -0.3695 -0.0489  0.1093
18234W        W34368  11.123  13.953  14.708  0.0952  0.1065  0.0255
18235W        W34369   2.959   5.841   2.843 -0.0474 -0.0620 -0.0508
18236W        W34370   8.889   9.283  11.221  0.0693 -0.0019 -0.1496
18237W        W34371  15.271  17.595   4.858 -0.0151  0.1023 -0.0456
18238W        W34372   9.883  14.739   4.075  0.0580 -0.0454  0.2131
18239W        W34373  11.031   1.304   3.297  0.4975  0.2084  0.1895
18240W        W34374  14.213   7.520   0.338 -0.1414  0.0987 -0.3530
18241W        W34375   2.524  12.206   4.016  0.0395  0.2862 -0.0362
18242W        W34376   0.086  14.279   1.740 -0.1533  0.0198 -0.0153
18243W        W34377  13.819   7.910  13.715 -0.0087 -0.1953  0.1756
18244W        W34378   3.805   2.010  10.353  0.4501  0.1384  0.1598
18245W        W34379   7.632   1.501  13.294 -0.0065  0.1063 -0.3220
18246W        W34380   1.585   5.025  12.968 -0.1603 -0.1867 -0.2151
18247W        W34381   9.823  15.614   3.866 -0.1313 -0.0859  0.0431
18248W        W34382   8.810  17.990   2.085  0.4346  0.3059  0.1071
18249W        W34383  14.340   8.740   4.090  0.2774  0.0197  0.0923
18250W        W34384  15.099   1.678   2.045 -0.2252 -0.0580 -0.1521
18251W        W34385   3.683   6.085  14.261  0.0019 -0.0575 -0.0801
18252W        W34386  18.160  17.476   3.351 -0.0779  0.0363 -0.4931
18253W        W34387  12.785   5.756  12.291  0.1192  0.1957  0.1356
18254W        W34388  15.581  13.630   3.459 -0.1198  0.1779 -0.3390
18255W        W34389   9.918  16.610   3.302 -0.0236 -0.1353 -0.0838
18256W        W34390  14.643   5.956  14.620  0.1582  0.1853  0.0871
18257W        W34391   1.568   4.635  13.678  0.1501  0.1061  0.1566
18258W        W34392   0.980   7.251  13.690  0.0905  0.0293 -0.2769
18259W        W34393   2.683  14.805  13.610 -0.0463  0.1329 -0.1781
18260W        W34394   9.141  18.816   3.420 -0.1876  0.1050  0.2500
18261W        W34395   0.893   3.681  13.319  0.0862 -0.1650 -0.0211
18262W        W34396   1.538  16.417   4.770  0.1478  0.0247 -0.0567
18263W        W34397  10.323  15.221   1.059 -0.1213 -0.0548  0.0574
18264W        W34398   6.477   3.068  12.179 -0.0932 -0.2653 -0.0321
18265W        W34399   9.085   3.851   4.143 -0.0617 -0.2228  0.1677
18266W        W34400  12.989  15.354  13.369  0.1486 -0.2681  0.2373
18267W        W34401  17.283  15.318  14.150 -0.2730 -0.2889 -0.2360
18268W        W34402   2.879  17.559   3.276  0.0783  0.1249  0.2682
18269W        W34403  11.384  15.980   3.165 -0.0400  0.0909  0.1728
18270W        W34404   9.907  17.520   0.905 -0.0761 -0.0961 -0.1235
18271W        W34405   7.205  13.866  12.597  0.1042 -0.0759 -0.2572
18272W        W34406   0.236  10.037  11.093 -0.0835 -0.2100  0.1970
18273W        W34407   0.675   3.525   1.450 -0.0633  0.3692 -0.1894
18274W        W34408  15.301  18.814   0.772 -0.0518 -0.1490 -0.1979
18275W        W34409   5.714  11.444   1.758  0.1782  0.3051  0.2588
18276W        W34410  13.966  16.989   4.577 -0.0494  0.2302 -0.2767
18277W        W34411   0.623  14.180   2.791  0.1117 -0.0868  0.4403
18278W        W34412   1.823   0.686  11.960  0.0706  0.3027 -0.0806
18279W        W34413  10.469  11.188   3.828  0.0028 -0.0045  0.1901
18280W        W34414  17.724   5.601   3.569 -0.1251 -0.0555  0.2086
18281W        W34415   6.299   1.785  11.448 -0.0438  0.3869 -0.1604
18282W        W34416  13.930   3.866  14.964  0.0374  0.1262  0.4283
18283W        W34417   0.586   9.894   4.104  0.0402  0.2288 -0.1284
18284W        W34418   1.578   0.953  10.144 -0.0297  0.2507  0.0858
18285W        W34419  14.650  15.954  10.983  0.0347  0.0041 -0.0449
18286W        W34420   4.669   7.924  13.865  0.0266  0.3899 -0.0516
18287W        W34421   0.657   5.404  13.356  0.1291  0.1957 -0.2560
18288W        W34422   4.762   8.558   2.585  0.2626  0.1034  0.1789
18289W        W34423   7.452  15.943  11.780 -0.1677 -0.2729  0.0193
18290W        W34424   4.803   0.421  12.141 -0.3104  0.0060  0.2351
18291W        W34425   2.629  13.003   3.965 -0.0757  0.0011  0.2765
18292W        W34426   8.710   9.777   1.508 -0.0822  0.3164  0.0016
18293W        W34427   4.658   2.280   3.752  0.2013  0.1418 -0.0029
18294W        W34428   6.535   7.925  15.254  0.2256 -0.0596  0.1547
18295W        W34429  15.605  18.285   4.637  0.1345  0.0978  0.0429
18296W        W34430  15.728   6.645   2.652 -0.2235  0.0352 -0.0147
18297W        W34431   3.764   0.134  11.291  0.1205  0.2835 -0.1008
18298W        W34432  16.601  13.878  10.670 -0.2645  0.2704 -0.1286
18299W        W34433   9.226  11.102   2.557 -0.1232 -0.1269  0.1710
18300W        W34434  16.958  17.684  14.015  0.1116 -0.0718 -0.1699
18301W        W34435   3.565  15.237   1.580 -0.0281 -0.0836  0.0393
18302W        W34436   8.899  10.326   3.698  0.4334 -0.0836 -0.1289
18303W        W34437   9.908  16.286  13.033  0.1272  0.0287 -0.0365
18304W        W34438   6.442   2.868   1.892  0.1233 -0.2028 -0.3978
18305W        W34439  17.815   4.002   0.580 -0.1452  0.1504 -0.0363
18306W        W34440   9.546  13.700  11.699  0.0495 -0.0554  0.1247
18307W        W34441  11.616  13.671  11.065 -0.3708 -0.1950 -0.0598
18308W        W34442  16.414   8.743   2.154  0.0006 -0.0585 -0.0198
18309W        W34443   4.017  12.742   4.680  0.0945  0.2746 -0.2496
18310W        W34444  12.796  14.747  12.421 -0.4879 -0.3883 -0.0462
18311W        W34445  16.206   8.843  12.177 -0.2582 -0.1164 -0.5916
18312W        W34446  12.771   3.229  11.917 -0.1467 -0.0317 -0.0540
18313W        W34447   7.337  12.271   9.623  0.1522  0.0459 -0.1064
18314W        W34448   5.722   9.887   4.792 -0.1288  0.0190 -0.1508
18315W        W34449  14.018   7.912   4.439  0.4106  0.1267 -0.1632
18316W        W34450   2.929   2.239  11.349  0.1394  0.1279 -0.1172
18317W        W34451   7.869   2.319  12.432 -0.2907  0.3914  0.1230
18318W        W34452  12.666  17.112  10.739  0.1741  0.0578 -0.0427
18319W        W34453  18.864  18.773   4.601 -0.2021 -0.0712  0.0266
18320W        W34454   4.433   9.268   2.013  0.0570 -0.0158 -0.0689
18321W        W34455  14.460   6.026   0.323  0.2767 -0.1327  0.0149
18322W        W34456  11.293  14.103  11.068 -0.0592 -0.2030 -0.0541
18323W        W34457   9.188  17.104  15.102 -0.2382  0.4102 -0.0280
18324W        W34458   4.985  13.756  12.439  0.2167  0.0420 -0.1469
18325W        W34459  14.397  12.712  12.875  0.2535  0.1329  0.1516
18326W        W34460  17.678   2.250   0.318 -0.1350 -0.3695 -0.0461
18327W        W34461   1.947   9.544  12.990  0.0027  0.2498  0.0375
18328W        W34462   2.248   7.115  12.855  0.2104 -0.2083  0.0818
18329W        W34463   3.339   3.430   3.390 -0.0801  0.0270 -0.1512
18330W        W34464   4.679   3.587   0.237  0.1623 -0.1413  0.1197
18331W        W34465  10.143   7.932  14.271 -0.0732 -0.0587 -0.1747
18332W        W34466  13.229   6.829   0.950  0.1190  0.1253 -0.0256
18333W        W34467   2.111  14.104  12.887 -0.2058 -0.0669  0.1058
18334W        W34468   8.992  17.865  14.165 -0.0222  0.0209 -0.1618
18335W        W34469  18.172   9.470  15.110 -0.1272 -0.0294 -0.3764
18336W        W34470   7.005   5.181  15.250 -0.1739  0.0998 -0.1674
18337W        W34471   6.564  12.006  11.934 -0.3012 -0.0254  0.1732
18338W        W34472   1.148  13.393   0.608  0.0378 -0.4021 -0.0470
18339W        W34473   8.556  11.564   2.003 -0.3406  0.1484  0.0535
18340W        W34474   1.575  16.782  13.763  0.0655 -0.0863 -0.3494
18341W        W34475   4.600  13.538   4.167 -0.2815 -0.1755  0.0666
18342W        W34476   1.889   2.686  15.003  0.0054 -0.0540 -0.1073
18343W        W34477  19.002   2.074  13.275  0.0038 -0.2749  0.0161
18344W        W34478  12.781   1.211   3.281  0.0274  0.0315 -0.1152
18345W        W34479   2.657   5.651   4.578 -0.0375 -0.3076 -0.1390
18346W        W34480  18.334  11.886  15.033  0.0017  0.0059  0.1742
18347W        W34481   6.348  13.585   3.524 -0.0490  0.1243 -0.0702
18348W        W34482  13.501   7.873   2.843 -0.0253 -0.1901 -0.1796
18349W        W34483  12.568   6.355   0.743 -0.1379 -0.1216 -0.4177
18350W        W34484  18.838   0.058   6.193 -0.0741  0.1729  0.0945
18351W        W34485   5.130   7.090   0.177 -0.0129  0.1819  0.1711
18352W        W34486   1.916   7.610  11.849 -0.0346  0.0615  0.2144
18353W        W34487   3.351   1.480   1.800 -0.2297 -0.0805 -0.2633
18354W        W34488   2.188  11.598  12.480 -0.0378  0.1579 -0.0534
18355W        W34489  16.667  10.478   1.789 -0.0534  0.3240 -0.0900
18356W        W34490  12.733   1.029   0.598  0.2555  0.2573 -0.1918
18357W        W34491  18.066   5.303  13.020 -0.0887  0.1152  0.0243
18358W        W34492   1.366  15.250  13.133 -0.1206  0.0839  0.3160
18359W        W34493  15.575  13.683   4.625 -0.0159  0.1719  0.2666
18360W        W34494  18.660  17.907  13.460 -0.2894 -0.4425  0.2031
18361W        W34495   9.124  16.967   1.100  0.0244  0.1963  0.1233
18362W        W34496   7.038   2.269  11.330 -0.2280  0.0594  0.0851
18363W        W34497  17.311  16.799  14.775 -0.2403  0.2887  0.5143
18364W        W34498   6.913   2.871   3.924 -0.1069  0.3463 -0.1782
18365W        W34499  15.672  13.844  12.032 -0.0033  0.3431 -0.0702
18366W        W34500  13.910   7.147   2.633 -0.0506 -0.0268 -0.1785
18367W        W34501  14.112  18.395  13.617  0.3144  0.0869 -0.1744
18368W        W34502   4.171   1.470   2.698  0.0731  0.0433 -0.2724
18369W        W34503   6.388   7.625   3.754 -0.1203  0.0398  0.4682
18370W        W34504   3.662  17.592   0.594 -0.0270 -0.0681  0.1568
18371W        W34505   8.149   3.349  10.544 -0.0106 -0.0912  0.1830
18372W        W34506  16.790   9.328  14.122  0.1038 -0.0348  0.1496
18373W        W34507  14.588   1.733  12.235 -0.1204  0.1895 -0.0329
18374W        W34508  17.441  12.850  13.961  0.1430 -0.2103 -0.1762
18375W        W34509  10.112  18.470  11.618  0.1401 -0.2600  0.0456
18376W        W34510   3.762   3.900  15.147 -0.2539  0.2810 -0.0030
18377W        W34511  17.225   3.622   0.407  0.0626  0.1546 -0.1153
18378W        W34512  12.781   0.699   3.484 -0.1942 -0.0868 -0.2330
18379W        W34513  14.720  17.014   4.663  0.1086 -0.2092 -0.2374
18380W        W34514  16.117  18.174  15.246  0.0643  0.0664  0.0731
18381W        W34515  18.397   2.850  13.466  0.0272 -0.0880 -0.0211
18382W        W34516  14.941   5.560  12.264  0.0697 -0.0131  0.1796
18383W        W34517  11.699   1.292   2.825  0.1653 -0.0904  0.1309
18384W        W34518  12.691  17.638  11.467 -0.0940  0.1134  0.0787
18385W        W34519  11.111  17.688   3.209  0.0002  0.1563 -0.0904
18386W        W34520  12.372  18.533  11.435  0.0660  0.1434  0.0576
18387W        W34521  18.421   7.888   3.694  0.0492  0.1893  0.3020
18388W        W34522   6.638  18.384   3.031  0.1330 -0.0901  0.0662
18389W        W34523   0.402   2.917   0.089 -0.0884  0.1114  0.1770
18390W        W34524  11.155   9.991   0.204  0.2182 -0.1457 -0.3165
18391W        W34525   4.570   6.547   9.486  0.2876  0.3557 -0.1946
18392W        W34526  10.493   6.440  11.486  0.2676 -0.1014 -0.1856
18393W        W34527  12.391   2.460  12.364 -0.0767 -0.2879  0.1052
18394W        W34528  18.252  18.259   1.433 -0.0383 -0.0813  0.3875
18395W        W34529   9.152  11.172   1.025  0.2536 -0.0339 -0.2411
18396W        W34530   3.114   2.877   1.928 -0.1559  0.1243  0.0048
18397W        W34531  13.703  17.876  14.582 -0.2112  0.0072  0.0464
18398W        W34532   2.157  18.575   4.330  0.2155  0.0778 -0.2628
18399W        W34533  10.993  15.503  13.758 -0.0441  0.0536  0.0564
18400W        W34534  14.528   1.775  14.079 -0.0521  0.0599  0.2926
18401W        W34535  17.056  14.889  13.912  0.0883 -0.0145  0.1744
18402W        W34536   2.230  11.707   2.493  0.1719  0.1232 -0.1863
18403W        W34537  16.417  14.065  12.405  0.1993  0.2317 -0.0714
18404W        W34538  17.639  12.898   3.263 -0.0992 -0.1119  0.1457
18405W        W34539  14.478  17.541  12.191  0.4563 -0.1366  0.0308
18406W        W34540  11.227  13.598  11.455  0.3422 -0.0456  0.2445
18407W        W34541  12.691  13.590  14.648 -0.1977  0.0920 -0.1993
18408W        W34542   2.802   8.878   0.982 -0.2328  0.1669  0.2149
18409W        W34543   2.603   0.585  11.385  0.1591 -0.1150 -0.3642
18410W        W34544   0.404  18.578   5.824  0.1323 -0.1761 -0.0506
18411W        W34545  11.433   5.925   4.065  0.2496 -0.0413  0.2712
18412W        W34546   6.696  18.180   3.851  0.1672  0.2928 -0.1532
18413W        W34547  16.505  18.330   4.923 -0.0502 -0.2594  0.1272
18414W        W34548  15.140  10.704  14.123  0.1631 -0.3384  0.0522
18415W        W34549   7.356  16.959  13.817  0.2619 -0.0976  0.1633
18416W        W34550   8.150   6.036   1.351 -0.2038  0.3873  0.1053
18417W        W34551  10.338  17.702   2.236  0.0492 -0.0431 -0.0903
18418W        W34552   2.385   1.790   4.572 -0.2930  0.0390  0.0780
18419W        W34553  13.281   5.796   2.214  0.1385  0.2922  0.0115
18420W        W34554   1.037   9.482   3.038  0.0108 -0.0383  0.2470
18421W        W34555  10.034   5.448   3.900  0.1462  0.2945 -0.2311
18422W        W34556   4.670   4.400  12.164 -0.1202  0.3898 -0.2400
18423W        W34557  15.333   7.508  11.572  0.1376 -0.1073  0.1674
18424W        W34558   4.359   7.102   4.700  0.1175  0.0506  0.0785
18425W        W34559  16.597  11.514  15.096  0.1740 -0.2900 -0.1425
18426W        W34560  16.324   1.202   0.983 -0.1762 -0.0572 -0.1820
18427W        W34561   1.920  10.159   4.068 -0.4106  0.1186  0.1898
18428W        W34562  14.802  14.290   0.613  0.1474  0.3123 -0.1047
18429W        W34563   1.042   4.644   9.825 -0.5591 -0.1694 -0.1847
18430W        W34564  11.385   2.469  11.478  0.0687 -0.1907  0.4441
18431W        W34565   0.514   6.394  11.545 -0.2184 -0.0519  0.5690
18432W        W34566  12.713  15.233   0.156  0.1771 -0.0882 -0.0485
18433W        W34567   7.147   8.209   4.320 -0.1471  0.1701 -0.0262
18434W        W34568  16.250  10.859  12.795 -0.2053 -0.1747 -0.0861
18435W        W34569   8.090  10.305   5.298  0.2518  0.0091 -0.1328
18436W        W34570  11.058  10.224  12.707 -0.2126 -0.0606 -0.0061
18437W        W34571  14.288  12.693   1.312  0.2844  0.4016  0.2504
18438W        W34572   1.343  10.726  10.800 -0.3988 -0.0856 -0.1212
18439W        W34573  14.347  12.190   1.237 -0.1047  0.0704 -0.2026
18440W        W34574   6.144   2.856   4.594 -0.0379 -0.2223 -0.1286
18441W        W34575  13.309  14.138  12.651 -0.0925 -0.1783  0.0595
18442W        W34576   5.659   3.213  13.718  0.1848  0.1076  0.1718
18443W        W34577   3.295  10.830   3.659 -0.1355 -0.0243  0.2355
18444W        W34578   8.874  11.525   9.574 -0.1634  0.2159 -0.4672
18445W        W34579  10.856  12.432   4.875  0.0075 -0.0714 -0.0966
18446W        W34580   9.648  16.990   4.846 -0.2543  0.1315 -0.1306
18447W        W34581   2.829   8.965  11.403  0.2283 -0.0181 -0.0826
18448W        W34582   8.799   6.568   5.352  0.0934  0.4936  0.2120
18449W        W34583   5.897   8.657   4.826  0.1930  0.1470  0.0020
18450W        W34584  13.459   9.914  14.319 -0.2512  0.0110  0.1884
18451W        W34585   1.670  18.709   0.496  0.0342 -0.2302 -0.2573
18452W        W34586  15.757  10.771  11.862  0.2061  0.0618 -0.0391
18453W        W34587   3.504   8.136  12.605 -0.0220 -0.0613 -0.0464
18454W        W34588  17.082  17.332  11.615  0.0104  0.0200 -0.6386
18455W        W34589  13.683  12.805  12.281  0.0800  0.3766  0.0205
18456W        W34590   5.009   6.406   2.403 -0.1638 -0.4005 -0.0600
18457W        W34591   1.374   6.657   3.842  0.0822 -0.2087  0.0902
18458W        W34592   3.666   0.843  13.699 -0.0319 -0.1628  0.1523
18459W        W34593   9.529  14.764   3.556 -0.1881 -0.0874  0.0652
18460W        W34594  11.475   1.467  14.697  0.3224  0.0677 -0.2926
18461W        W34595  10.360   5.898   2.599 -0.1704  0.1046  0.0345
18462W        W34596  16.985  18.422   4.731 -0.0161  0.1043 -0.1639
18463W        W34597   8.739  18.541   4.238  0.2376 -0.0015  0.0222
18464W        W34598  18.531  16.926   2.211 -0.1737 -0.2838 -0.1115
18465W        W34599  13.323  10.644  11.977  0.0467 -0.0990  0.0754
18466W        W34600  18.527   5.348  14.385 -0.0450  0.0057 -0.0675
18467W        W34601   0.876   2.469   2.304 -0.1995 -0.1494 -0.2050
18468W        W34602  15.196  17.553  13.561  0.1530  0.1002  0.1095
18469W        W34603  13.636   8.094   5.141 -0.5486  0.1239  0.0557
18470W        W34604   3.314  11.027   0.875 -0.4294  0.1875 -0.1420
18471W        W34605  17.510  12.802  14.461 -0.2709  0.0229  0.0734
18472W        W34606  18.198   0.809   2.658  0.0990 -0.1017  0.0766
18473W        W34607   9.570   4.023   2.283 -0.1079  0.1262  0.1726
18474W        W34608   9.545   3.016   3.710 -0.1196 -0.1581  0.1261
18475W        W34609  12.551   4.520   3.630 -0.0331 -0.2994 -0.1993
18476W        W34610  15.284   0.251  13.802  0.3305  0.1503  0.0649
18477W        W34611   1.200  14.129   3.232  0.1029 -0.2942  0.0896
18478W        W34612   4.139   8.125  13.444 -0.1538 -0.1451 -0.0842
18479W        W34613  10.239  15.859  12.734  0.3388  0.0786 -0.0231
18480W        W34614   0.299   2.771  12.569  0.1836 -0.2281  0.2937
18481W        W34615   0.573   1.645  12.684 -0.0750 -0.1310 -0.3488
18482W        W34616   0.337   6.974   3.977  0.1732 -0.0339  0.2157
18483W        W34617   9.240   7.223   1.214 -0.4277  0.3983  0.0884
18484W        W34618   0.448  17.112   0.807  0.3134 -0.2527 -0.1544
18485W        W34619   7.998   5.839   5.146 -0.0549 -0.1638 -0.0835
18486W        W34620  18.783  18.524  14.620 -0.1345  0.2067 -0.4456
18487W        W34621   6.442  17.785   1.867  0.3569  0.3274 -0.1618
18488W        W34622  16.935   8.368  13.830  0.2970  0.2394 -0.2403
18489W        W34623  12.022   1.182  14.727 -0.1143 -0.1979 -0.0465
18490W        W34624  13.745   9.227   0.971  0.0402  0.0381 -0.1782
18491W        W34625  14.554  15.646  14.907 -0.3254  0.0699  0.3369
18492W        W34626  17.747   1.236  12.600 -0.2116 -0.0536  0.0266
18493W        W34627  10.098  10.750   2.127 -0.1919 -0.2111  0.2911
18494W        W34628   6.180  12.717  13.905  0.0764 -0.1303  0.3792
18495W        W34629   2.701  16.731  13.038  0.1978  0.1834 -0.3590
18496W        W34630  11.609  10.267   1.694  0.0187  0.2436  0.0306
18497W        W34631   5.873   7.779  14.583  0.2119 -0.2164 -0.0633
18498W        W34632   8.321  13.071   3.194 -0.2725  0.3058 -0.1408
18499W        W34633  10.437  14.685  13.712 -0.1234  0.1301  0.1314
18500W        W34634   0.476   6.879  11.296 -0.3644 -0.2674 -0.1798
18501W        W34635   7.463  13.260   2.222 -0.3440  0.1238 -0.2545
18502W        W34636   2.723  18.928   4.994 -0.3813 -0.2123  0.2987
18503W        W34637   6.338   4.004  14.736  0.2938  0.0040  0.2459
18504W        W34638   0.355  16.748   3.848  0.0824  0.1111  0.1468
18505W        W34639   7.793   7.205  10.970 -0.0229  0.2482 -0.0393
18506W        W34640   1.693   2.876   4.865  0.0043 -0.1464  0.1544
18507W        W34641  12.147   9.983   2.727  0.0069 -0.0086 -0.1317
18508W        W34642   8.616  18.049  14.373 -0.1217 -0.1537 -0.2370
18509W        W34643   5.473   3.460   2.859  0.1904 -0.1476 -0.0968
18510W        W34644   0.824   9.482   3.772  0.2410  0.0312 -0.1719
18511W        W34645  11.448   0.791  11.092  0.1626 -0.1907  0.0482
18512W        W34646   5.190   3.406   4.303  0.0491  0.2004  0.1020
18513W        W34647  14.812  17.505  14.280  0.0000 -0.1268 -0.1219
18514W        W34648   3.506   5.979   2.773  0.1214 -0.0019  0.3851
18515W        W34649  12.735  16.178  11.863 -0.1688 -0.1038  0.3157
18516W        W34650  13.275   5.674  12.635  0.0323  0.0288  0.1650
18517W        W34651   7.727  12.606  10.587 -0.1792 -0.2830  0.3105
18518W        W34652  15.610  16.010  10.761  0.1570 -0.4549  0.0524
18519W        W34653  15.051  16.893  13.759 -0.3612 -0.2561 -0.1459
18520W        W34654   2.133  15.985   0.491 -0.0058  0.0055  0.3117
18521W        W34655   2.316  15.996  15.276 -0.3884 -0.0378  0.3332
18522W        W34656  14.785   6.132  14.173 -0.0393 -0.1506 -0.1465
18523W        W34657   2.492   1.719   2.180 -0.1547 -0.2679 -0.0440
18524W        W34658  15.886   1.375  11.671 -0.0292 -0.3544  0.0698
18525W        W34659  17.965  13.126  12.120 -0.2717 -0.3003  0.1477
18526W        W34660  12.455   6.766   3.349 -0.1386 -0.0722 -0.0060
18527W        W34661  18.896   4.951   6.080 -0.3021  0.0863 -0.0203
18528W        W34662  17.713   3.980  12.495  0.2795 -0.3893  0.1801
18529W        W34663   1.040  11.091   3.467  0.1063  0.1615  0.2452
18530W        W34664   0.142   4.592   4.285 -0.0739  0.0799 -0.2397
18531W        W34665  16.084  10.245  15.051 -0.0689 -0.3932 -0.1655
18532W        W34666   0.278  17.318   4.526  0.2469 -0.0671 -0.0330
18533W        W34667   8.024  17.369   4.569 -0.4206  0.0560 -0.2700
18534W        W34668   1.278  17.524   3.503 -0.0079  0.4351  0.0045
18535W        W34669   6.500  17.351   4.552  0.1220 -0.0750 -0.0036
18536W        W34670   9.445   2.993   5.085 -0.3337  0.0498 -0.2717
18537W        W34671   9.534  17.404   1.878 -0.2102  0.0206  0.4792
18538W        W34672   4.898  14.053  11.077 -0.2492 -0.1862 -0.0675
18539W        W34673   6.897   1.036   3.805  0.0091  0.1246 -0.0810
18540W        W34674  14.297  11.871   0.890  0.0016 -0.1286  0.1675
18541W        W34675   9.182   9.301  13.190 -0.0495  0.3279  0.3642
18542W        W34676   3.539   5.017  11.189  0.0740 -0.1479 -0.1655
18543W        W34677  16.791   7.042   3.479  0.1732  0.0652  0.2633
18544W        W34678  10.599  18.806  12.481  0.0009  0.2344  0.0982
18545W        W34679  18.104  16.228   5.123 -0.0558  0.0733  0.0418
18546W        W34680  11.746   5.108  12.571  0.0677  0.0123  0.0762
18547W        W34681  11.700  17.356   2.810 -0.2863 -0.3983 -0.4811
18548W        W34682   0.657   0.622  15.127  0.0652 -0.0845 -0.0987
18549W        W34683  16.539  11.553  12.888  0.0192 -0.1486  0.2485
18550W        W34684   0.987   8.394  14.649 -0.1631  0.1241 -0.1440
18551W        W34685   7.622   2.918  13.217 -0.1588 -0.1100 -0.2981
18552W        W34686   4.319  13.796   0.714  0.0923  0.0832  0.0800
18553W        W34687  12.317   3.106   4.011  0.1244  0.0339  0.1687
18554W        W34688   1.856   4.542   4.612 -0.0295  0.1924 -0.1666
18555W        W34689   9.890  15.634   5.013  0.1878 -0.0868  0.2052
18556W        W34690   9.110  11.843   0.019  0.0199  0.2994  0.0193
18557W        W34691   8.673   1.280  12.296  0.1085 -0.0032  0.0970
18558W        W34692  15.840  15.615   3.485  0.2634  0.2570  0.1099
18559W        W34693  10.126   3.971   0.493  0.0309  0.1370 -0.2056
18560W        W34694  11.333   3.491   1.787 -0.0215  0.0800  0.0738
18561W        W34695   8.541   0.946   4.486  0.0634  0.0765  0.3036
18562W        W34696   5.567   3.156  13.185  0.2979  0.3595  0.1621
18563W        W34697   5.317   5.554   3.339 -0.2854  0.1674 -0.1074
18564W        W34698  18.357  14.119   2.079  0.0596 -0.0179  0.2449
18565W        W34699   3.621  18.987   5.193 -0.0962 -0.3588 -0.0555
18566W        W34700  15.464  10.802   1.788 -0.0431  0.0637  0.0202
18567W        W34701   5.071  17.225  10.891  0.2069 -0.0918  0.2040
18568W        W34702   8.539  17.347  12.815 -0.1681  0.0899  0.2254
18569W        W34703   4.230  12.611  12.798 -0.1045 -0.0061  0.0154
18570W        W34704  17.474  16.859   3.082  0.0167  0.1636  0.0706
18571W        W34705  10.101  16.606   4.184  0.0081 -0.0932  0.4328
18572W        W34706   3.301  15.739   0.387 -0.0485 -0.3852  0.0828
18573W        W34707   1.768   9.866  13.282  0.3066 -0.1852  0.3498
18574W        W34708   4.441   3.770   4.443 -0.1378  0.0455 -0.1499
18575W        W34709   2.661   6.434   5.314  0.0746 -0.3264 -0.0149
18576W        W34710   0.252   6.233  12.315 -0.3217 -0.2033 -0.1370
18577W        W34711  18.453   2.155  13.454 -0.0760  0.1307 -0.1002
18578W        W34712   2.662   4.901  12.256 -0.0475  0.0934  0.0419
18579W        W34713   4.756   2.384  14.281 -0.0039  0.0035  0.0849
18580W        W34714   2.101   0.187  12.700  0.2193 -0.0326 -0.1488
18581W        W34715  14.674   1.685   4.997 -0.3081  0.0785 -0.1557
18582W        W34716   2.230  11.993  11.569  0.4098  0.2449 -0.0239
18583W        W34717  14.976  18.989  10.896  0.0312 -0.3573 -0.1064
18584W        W34718  14.391   9.700   4.906 -0.0417  0.2055 -0.0204
18585W        W34719  10.757   1.724  11.834  0.0645  0.0837 -0.3564
18586W        W34720   2.873   7.907  12.892  0.2931  0.0335  0.1905
18587W        W34721  14.883  17.837  13.837  0.1184  0.0516 -0.0203
18588W        W34722   8.765   9.245   3.473  0.0572 -0.1250  0.1298
18589W        W34723  15.052  15.659   0.045 -0.1136  0.2095  0.0667
18590W        W34724  17.608   5.191  15.133  0.2632 -0.1547 -0.3449
18591W        W34725   0.426  10.439  13.303  0.0725 -0.2688  0.0179
18592W        W34726   6.172   5.886  11.219  0.0560  0.0858 -0.0896
18593W        W34727   2.552   7.722   0.237  0.0727  0.0835 -0.1786
18594W        W34728  17.722   6.642   4.587  0.2311 -0.3983 -0.2822
18595W        W34729   2.465  11.164   3.226 -0.1980  0.1439 -0.2699
18596W        W34730  12.015   3.073  12.488  0.1782  0.2455  0.2691
18597W        W34731   7.971  13.029   1.076 -0.3700  0.0367  0.3509
18598W        W34732  13.758   2.361   0.798 -0.0066 -0.3683 -0.2608
18599W        W34733  15.086   5.046  12.333 -0.0915  0.0719 -0.1746
18600W        W34734   2.840  13.646  12.968 -0.0093  0.1353  0.2754
18601W        W34735   7.237  17.207  15.122  0.1559 -0.0963 -0.0283
18602W        W34736   8.372   5.363   1.039 -0.2361 -0.3130  0.1881
18603W        W34737  15.482   5.930   2.373  0.0019  0.0308  0.0190
18604W        W34738   2.145   3.192  12.706 -0.3662  0.1179 -0.3513
18605W        W34739   6.862  18.263  11.709 -0.1075 -0.4127 -0.0564
18606W        W34740  10.905   0.750  15.095  0.0849  0.0615  0.0787
18607W        W34741  11.147  12.641  14.138  0.4647 -0.3157  0.0908
18608W        W34742   0.717  12.142   2.663  0.2018 -0.1063  0.0189
18609W        W34743   2.471   0.677   0.451  0.0102 -0.1717 -0.0365
18610W        W34744   0.607   3.052  12.175  0.2878  0.0019  0.2147
18611W        W34745   9.489   9.486   2.965 -0.0988 -0.1964  0.4659
18612W        W34746   7.667   0.185   4.452 -0.2078 -0.0077 -0.0239
18613W        W34747   7.750   6.654  10.925  0.0119 -0.2888  0.2066
18614W        W34748   1.274   9.430  12.648 -0.1564  0.0961 -0.0074
18615W        W34749   8.027   9.345   4.457  0.1039 -0.0610  0.1350
18616W        W34750  15.329  12.679   1.423  0.0506  0.0823  0.1918
18617W        W34751   4.045   8.095  12.436 -0.0952  0.1038 -0.3464
18618W        W34752  12.453   6.834  12.537  0.3591 -0.1261 -0.3285
18619W        W34753  15.260  18.116  12.367  0.0035 -0.1817  0.0644
18620W        W34754   9.494   8.930  12.993  0.0091  0.2703  0.1669
18621W        W34755  12.284  10.954  11.204 -0.0768 -0.2046 -0.0169
18622W        W34756   7.355   2.722   1.126  0.3324 -0.1154 -0.1461
18623W        W34757  10.452   9.187   4.578  0.2362  0.0854  0.2069
18624W        W34758  18.284   0.758  14.820 -0.0285  0.2323  0.2114
18625W        W34759   9.077   8.857   5.068  0.1750  0.5902 -0.2451
18626W        W34760   5.339  16.530  11.969 -0.0435 -0.2926 -0.0882
18627W        W34761  13.725   3.203   3.306  0.0586  0.1553  0.0451
18628W        W34762   9.024   0.452  13.330  0.2433 -0.1880 -0.0016
18629W        W34763  13.013   5.890  15.265 -0.1436  0.0899 -0.0832
18630W        W34764  14.410   1.652   1.354  0.0575 -0.0071  0.1596
18631W        W34765   8.116  15.348  12.148 -0.1479  0.0383  0.1592
18632W        W34766   6.247  13.258  13.529  0.1393 -0.1647  0.1586
18633W        W34767  15.066  12.683   4.336  0.1311 -0.0225 -0.0741
18634W        W34768  17.083   7.113   2.372  0.0863 -0.1349 -0.0185
18635W        W34769  13.871  11.883   1.098  0.0937  0.0653  0.3954
18636W        W34770  14.889   8.210   0.759 -0.0146 -0.1955  0.2120
18637W        W34771  12.125  16.389  12.712 -0.1358  0.0308  0.0839
18638W        W34772  11.774  15.585   1.636  0.2340 -0.1673  0.0547
18639W        W34773  18.332  18.110   2.587  0.3660 -0.0688  0.1659
18640W        W34774   5.925   3.685   5.100 -0.1568 -0.1863  0.0467
18641W        W34775  16.104  14.075   4.475  0.0733 -0.0047  0.2756
18642W        W34776  15.631  13.371  12.217  0.1771  0.0408 -0.2855
18643W        W34777  16.422   0.382   1.611 -0.1135  0.0018 -0.1388
18644W        W34778   2.239   2.465   1.477 -0.0820 -0.0798 -0.2858
18645W        W34779  16.199   2.760   0.978 -0.0625 -0.1277 -0.0113
18646W        W34780   4.631  11.212   2.674  0.2108  0.0195  0.2444
18647W        W34781  17.788  17.121   2.697  0.0751  0.2222  0.1249
18648W        W34782   0.480   9.511  14.855 -0.1583 -0.1489  0.1617
18649W        W34783   5.276   6.885  13.230  0.1068 -0.0114  0.0726
18650W        W34784  15.365  11.347   2.389  0.3335  0.0827 -0.1381
18651W        W34785   7.432  14.111   2.928  0.1506 -0.3334 -0.2049
18652W        W34786  17.442   8.709  13.629 -0.1335 -0.0185  0.1499
18653W        W34787  12.036   6.241  11.340 -0.0761 -0.2377 -0.1586
18654W        W34788   6.480   7.352  12.421  0.0829  0.2017  0.2242
18655W        W34789   5.290   3.960   4.540 -0.1101 -0.0332 -0.2635
18656W        W34790   7.233  16.826  14.296 -0.4982 -0.2183  0.1465
18657W        W34791   6.789   0.091  12.804 -0.0732 -0.0234  0.0953
18658W        W34792  16.745  15.611  12.120 -0.4162  0.1956 -0.0225
18659W        W34793   9.959  11.552  13.342 -0.1989 -0.1932 -0.3306
18660W        W34794   4.339   7.035  12.402  0.0796 -0.2191  0.0758
18661W        W34795  10.597   0.600  14.267 -0.1566 -0.0234 -0.0618
18662W        W34796  10.148   6.903   0.189  0.0194  0.0451  0.3263
18663W        W34797   0.950   0.204  14.709  0.0597 -0.0374  0.1684
18664W        W34798  15.505  16.007   4.611 -0.2122 -0.1935  0.0924
18665W        W34799   2.442   9.501  11.167  0.2636  0.2992 -0.0483
18666W        W34800  12.109   1.828   4.259 -0.1724 -0.0133 -0.2306
18667W        W34801  15.814   0.513  13.687  0.1242 -0.1152 -0.1357
18668W        W34802  16.719  14.218   2.503  0.0354  0.0040  0.2247
18669W        W34803   0.036   7.490  15.207 -0.1009 -0.1390 -0.0451
18670W        W34804  11.359   8.132  10.920 -0.2061  0.0031  0.1030
18671W        W34805   0.095   6.728   1.389  0.0411  0.0840 -0.2516
18672W        W34806   3.824  10.639   2.923 -0.0117  0.0406  0.2264
18673W        W34807   8.145   7.659  10.126  0.0712  0.0977 -0.0569
18674W        W34808   4.508  10.505   4.218 -0.3850  0.0072  0.0558
18675W        W34809  12.786  17.497   0.373 -0.0614  0.2305 -0.2522
18676W        W34810   3.197   7.973  14.327  0.1144  0.1024 -0.2448
18677W        W34811  13.600   0.021  11.145  0.1070 -0.1679 -0.1270
18678W        W34812  15.591   7.222   0.310 -0.0800  0.1105  0.0258
18679W        W34813   4.837   7.657   4.529 -0.1021  0.0316 -0.1251
18680W        W34814  14.914   4.345  11.737  0.2103 -0.0368  0.0788
18681W        W34815   1.469  17.984  14.525 -0.1472  0.2208 -0.0816
18682W        W34816   2.493   8.741   1.902 -0.2905 -0.1276 -0.0826
18683W        W34817   3.314   1.798   0.321  0.0059 -0.0687 -0.1447
18684W        W34818   0.713  15.785   0.968  0.2816 -0.1247  0.0487
18685W        W34819   2.557  16.951  13.486 -0.2090  0.1581 -0.2454
18686W        W34820  13.882   0.887  10.872  0.0907  0.6453  0.0058
18687W        W34821   1.402  14.689   1.744 -0.1251 -0.1135 -0.2330
18688W        W34822  12.467   3.293  12.825  0.3362  0.1924  0.2671
18689W        W34823   4.316   9.968  14.508  0.2957  0.0493  0.0678
18690W        W34824   2.030   7.377   4.410 -0.0051  0.1771 -0.1966
18691W        W34825   8.774  15.093   3.290 -0.0175 -0.4206  0.1314
18692W        W34826  13.811   7.299  15.138  0.0664  0.2545 -0.0012
18693W        W34827   2.607  12.235  15.156  0.0767 -0.1917 -0.0603
18694W        W34828   0.240  11.231  13.999 -0.2703 -0.2462  0.6008
18695W        W34829  10.915   4.559   3.794  0.1541  0.1704  0.2236
18696W        W34830   1.599   5.980  13.708 -0.0859 -0.1638  0.0346
18697W        W34831   5.060   0.327   0.365  0.0456 -0.1052  0.1158
18698W        W34832   7.760  12.405  12.857 -0.2771  0.1036  0.0992
18699W        W34833  11.826   0.872   2.574 -0.0717 -0.0250 -0.2193
18700W        W34834  12.956   6.423   1.084  0.0646  0.0658  0.0033
18701W        W34835  13.393  11.830   4.417 -0.0986 -0.0475  0.2629
18702W        W34836  17.150   5.552   3.451  0.0163 -0.1272 -0.0814
18703W        W34837   3.296  11.703  11.554  0.1164  0.3467 -0.2607
18704W        W34838  14.339   8.932  13.202 -0.3642 -0.0396  0.0631
18705W        W34839  17.309  12.600   4.198  0.3874 -0.0130 -0.1416
18706W        W34840   1.160  12.238  14.496  0.1181 -0.0209 -0.1789
18707W        W34841  10.295   4.432   1.001 -0.1403  0.2514 -0.0480
18708W        W34842   2.587   8.830  10.865  0.5867  0.0999 -0.0512
18709W        W34843   7.042  18.076   5.152 -0.3976 -0.0171 -0.0252
18710W        W34844   2.279  17.337   0.653 -0.4603 -0.2052 -0.1552
18711W        W34845   8.316   7.117  13.043 -0.1306  0.1891 -0.2218
18712W        W34846   4.572   8.102   0.028  0.3207  0.1069 -0.1089
18713W        W34847  15.526   7.332  14.014  0.1879 -0.3347  0.2557
18714W        W34848   1.400   8.385  11.773  0.1066 -0.0581  0.0838
18715W        W34849  11.885  15.548   3.856  0.0704 -0.1971 -0.0597
18716W        W34850  16.355  13.015  14.518 -0.0482 -0.0399 -0.3561
18717W        W34851   6.790  13.415   3.694 -0.4525  0.0232  0.2898
18718W        W34852  13.268  18.766   2.000 -0.1777  0.2515  0.2236
18719W        W34853   5.333  11.150   0.999 -0.0840 -0.1138 -0.1517
18720W        W34854  18.231   0.879   0.035 -0.2231  0.2519  0.0524
18721W        W34855   3.665   8.177  11.162 -0.1261 -0.1651 -0.2024
18722W        W34856   5.401   9.605   2.400  0.0439 -0.4053 -0.0979
18723W        W34857   8.650  13.098   3.761 -0.1779 -0.0986 -0.3765
18724W        W34858  13.548  17.321  12.681 -0.3804  0.1323 -0.3581
18725W        W34859   3.954  14.656  12.149  0.0665 -0.0144 -0.1335
18726W        W34860   2.063   4.031  14.245  0.1710 -0.3046 -0.0811
18727W        W34861   8.306  13.577   3.027 -0.0510  0.0041 -0.2666
18728W        W34862  10.268   9.586   1.366  0.0558 -0.1326  0.1149
18729W        W34863   1.679  16.356  13.539 -0.0710  0.2054 -0.0050
18730W        W34864  15.431  18.504  11.286 -0.2471  0.0210 -0.1161
18731W        W34865   2.129   2.554  11.297  0.0287  0.2914 -0.0874
18732W        W34866   4.820  14.129   1.703  0.2610 -0.0769 -0.0070
18733W        W34867   9.261  15.788  10.780 -0.4191  0.0586  0.2196
18734W        W34868  18.662   0.135   2.149  0.0910  0.2753 -0.0486
18735W        W34869   3.781   4.995   4.359 -0.0942  0.1752  0.0702
18736W        W34870   3.494  10.562   1.192 -0.0433  0.3780  0.1212
18737W        W34871  10.697   3.647   0.685 -0.1164  0.0543  0.4456
18738W        W34872   0.062   6.520   0.751 -0.0156 -0.0916 -0.0809
18739W        W34873   8.287   1.867  13.339 -0.0141  0.1231  0.3593
18740W        W34874   4.902   5.562  13.332 -0.1580 -0.1335  0.1892
18741W        W34875   6.863   1.148   4.294  0.1518  0.1756 -0.2801
18742W        W34876   7.152   4.757  14.961  0.2588 -0.0981 -0.1553
18743W        W34877   9.213   1.985  10.800  0.1424 -0.1441  0.1348
18744W        W34878   1.690  11.758  13.225 -0.2142 -0.4901 -0.3096
18745W        W34879   7.137   9.609   0.482  0.6228  0.4684 -0.1905
18746W        W34880   0.772   1.895  12.305  0.3376  0.1521 -0.1591
18747W        W34881  12.097   0.353  14.014 -0.0108 -0.1446 -0.2578
18748W        W34882  11.951  10.084  11.712  0.5106  0.2276  0.0108
18749W        W34883  12.812   6.581   5.574  0.1313  0.1284  0.1228
18750W        W34884  17.895   8.929   2.253 -0.0912 -0.0572 -0.0013
18751W        W34885  15.326   7.021  11.792  0.0871  0.3652  0.3037
18752W        W34886  15.609   5.402  14.488  0.0718 -0.0787 -0.1995
18753W        W34887  17.249   3.793  14.214 -0.3352 -0.0266  0.1360
18754W        W34888   7.311  10.886   0.183  0.0177 -0.3128  0.2243
18755W        W34889  14.976   8.717  10.019 -0.0186  0.4702 -0.1233
18756W        W34890  11.792   8.344   0.302  0.0221  0.0206 -0.0686
18757W        W34891  11.226  18.960  13.750  0.1618 -0.1387  0.0578
18758W        W34892  15.765   0.263   4.475  0.2535 -0.0422  0.0240
18759W        W34893  13.054  17.427   3.633 -0.0154  0.2726  0.1190
18760W        W34894   3.359  13.668   1.907 -0.0204 -0.1193  0.1209
18761W        W34895  11.430   6.497   3.726 -0.1138 -0.1313 -0.4189
18762W        W34896  16.992   6.408   2.737  0.0765  0.1364 -0.1522
18763W        W34897   2.921  13.890   4.073 -0.0570  0.2367 -0.0349
18764W        W34898  17.021   8.339  14.876 -0.2397  0.1739 -0.1824
18765W        W34899   2.923  11.169   2.965  0.0364  0.1520  0.2004
18766W        W34900  15.372  13.296  10.819  0.1201  0.3893  0.0994
18767W        W34901  10.344   1.327  13.233 -0.0136  0.3106  0.3776
18768W        W34902   3.448   6.435   2.522 -0.1393 -0.1544  0.0667
18769W        W34903   6.965  15.869   5.450  0.1571  0.3548 -0.1048
18770W        W34904   8.147   1.483  14.657  0.4760  0.2262  0.3152
18771W        W34905  12.785   7.987   4.661 -0.0431 -0.0387  0.1007
18772W        W34906  12.772   6.632   4.907  0.0305  0.2385  0.2214
18773W        W34907   0.537   6.886  11.801 -0.1101  0.2890  0.0008
18774W        W34908   1.110  10.169  13.648 -0.0605 -0.2701 -0.0254
18775W        W34909   9.433  18.321   4.882  0.4034  0.3187  0.1399
18776W        W34910   8.878   4.486  13.970  0.2460 -0.2920 -0.0476
18777W        W34911   7.629  14.911   2.222 -0.0105  0.1506  0.0671
18778W        W34912  14.020  15.626  14.145  0.0123 -0.1891 -0.2038
18779W        W34913   4.551  14.824  13.125 -0.2615  0.0191 -0.0942
18780W        W34914  17.927  11.941   0.577 -0.2154 -0.0761 -0.0796
18781W        W34915  18.066  10.674   1.500 -0.1291  0.2978 -0.1680
18782W        W34916  10.770   3.191   0.429 -0.0869  0.1363 -0.1072
18783W        W34917  14.524   1.339  11.439  0.0020  0.3767 -0.2327
18784W        W34918   0.218  11.655  10.841  0.0402  0.0888  0.2485
18785W        W34919  16.501  13.223  12.657  0.0156 -0.3551 -0.1049
18786W        W34920  10.802  18.782  11.937 -0.0927 -0.2230 -0.0409
18787W        W34921  15.755  16.384   0.379 -0.0868 -0.0737 -0.1320
18788W        W34922  10.036  10.255   1.351  0.0454  0.1727 -0.5557
18789W        W34923   5.023   6.386   1.406  0.0357  0.2174 -0.0508
18790W        W34924   8.717  14.411  11.176 -0.1184  0.0141 -0.1846
18791W        W34925   5.437   1.659   1.874 -0.1368 -0.2734  0.2246
18792W        W34926   4.361   1.809  13.110  0.0353 -0.1089  0.4791
18793W        W34927   5.575   4.538   3.401  0.1794  0.3229  0.1933
18794W        W34928  14.579   7.332   3.959 -0.0538  0.4382  0.2229
18795W        W34929   2.643   2.938   4.604  0.2950  0.3843 -0.1388
18796W        W34930  14.940   0.605   2.238  0.0357 -0.0772  0.0793
18797W        W34931   3.097   6.154   5.272 -0.0761 -0.1674  0.0286
18798W        W34932  13.387  10.668  12.852  0.3184 -0.0334  0.0350
18799W        W34933  12.489   4.412  11.648 -0.2838 -0.1905 -0.2988
18800W        W34934   7.527  17.632  14.972  0.0017  0.0284 -0.0953
18801W        W34935  12.724  15.261   3.324 -0.1002  0.1789  0.1529
18802W        W34936  10.429   8.383  13.424 -0.3388  0.2078  0.0779
18803W        W34937   2.014  11.818   5.553 -0.1242 -0.4733 -0.1791
18804W        W34938  10.374  12.454   1.921  0.2657 -0.0498 -0.1099
18805W        W34939   5.403   3.658   0.851 -0.1678 -0.2172  0.0312
18806W        W34940   0.232  16.048   1.543 -0.1923  0.0327  0.3823
18807W        W34941   4.009  11.225   4.429 -0.5487 -0.3371  0.2726
18808W        W34942   2.681   7.508   5.197 -0.1608  0.3202  0.4143
18809W        W34943  11.106   5.439  13.502 -0.2092  0.2040 -0.0212
18810W        W34944   7.334   6.001   0.177 -0.0197  0.1023  0.2493
18811W        W34945   7.265   7.036  12.199 -0.0116 -0.0467  0.2194
18812W        W34946  10.728  12.526   4.068 -0.1243 -0.1601 -0.1367
18813W        W34947   6.613  10.311  11.278  0.0205 -0.1829  0.0143
18814W        W34948   6.615   3.280   0.173 -0.0873  0.3237  0.1878
18815W        W34949   7.656  15.819   4.055 -0.2346 -0.0272 -0.2776
18816W        W34950   7.014   0.954   0.784 -0.1214 -0.0861 -0.2459
18817W        W34951  15.831  16.486   2.529 -0.1156  0.3929 -0.1885
18818W        W34952   6.449  16.741  10.994 -0.0810 -0.2543 -0.1293
18819W        W34953  16.778   3.153   5.216  0.0619  0.1469  0.0836
18820W        W34954   6.734  11.905   0.824 -0.0586 -0.1361 -0.1150
18821W        W34955   7.804   9.471  11.345 -0.0139 -0.2566  0.0302
18822W        W34956  17.463  18.565   3.764  0.1295 -0.0285  0.0147
18823W        W34957  14.977  16.723  11.998  0.0247 -0.3315  0.2132
18824W        W34958  12.993   0.023  13.827 -0.0093 -0.0737  0.3795
18825W        W34959   1.179  17.248  11.393  0.2454 -0.0101 -0.3546
18826W        W34960  18.503  13.374   4.254  0.0379  0.2141 -0.0166
18827W        W34961  16.039   1.157  10.789 -0.0310 -0.0368 -0.0630
18828W        W34962   1.698  15.698   0.677 -0.4722 -0.0917 -0.0685
18829W        W34963  16.728   0.203   5.097  0.1081 -0.3015 -0.1030
18830W        W34964   5.212   4.726   1.196  0.0169  0.0960  0.1939
18831W        W34965  17.749  14.142   2.172  0.1071  0.1254  0.2190
18832W        W34966   5.148  17.334   2.361 -0.0365 -0.0959  0.3266
18833W        W34967  13.425  12.599   5.570  0.3958 -0.2563 -0.1854
18834W        W34968   9.210   7.501  14.664  0.3885 -0.0112 -0.0117
18835W        W34969  16.719   8.472  12.497 -0.1151  0.2989  0.0208
18836W        W34970   3.483   0.652  10.828 -0.0169 -0.1739  0.0478
18837W        W34971  15.302   0.755  14.326 -0.1103  0.0478 -0.0757
18838W        W34972  10.125   6.868   4.070 -0.1608  0.1932  0.2384
18839W        W34973   6.263  12.445  14.537  0.1350 -0.0008 -0.1836
18840W        W34974   3.125  13.046   3.893  0.1214  0.3513 -0.0095
18841W        W34975   6.114  10.431   2.223  0.1198  0.1205 -0.0060
18842W        W34976   1.437   7.324  14.043 -0.0979  0.2643  0.2168
18843W        W34977  17.657   6.595  10.508 -0.0587  0.1175 -0.2769
18844W        W34978   9.737   7.659  11.861  0.2141 -0.0765  0.0857
18845W        W34979  13.068   8.022   2.508 -0.3532 -0.3462  0.1426
18846W        W34980   1.956  13.107  13.704  0.2704  0.0180 -0.3876
18847W        W34981  16.315   5.992  13.995 -0.2317 -0.0409  0.1402
18848W        W34982  16.088   4.816  14.913  0.2790  0.1170 -0.0372
18849W        W34983  18.310  14.776  11.150 -0.3910 -0.0050 -0.2547
18850W        W34984  16.674   9.798   3.241 -0.3426 -0.0078  0.0199
18851W        W34985   3.038  18.953  10.912 -0.0925 -0.1061  0.0662
18852W        W34986  18.025  12.786   4.632 -0.2626  0.0372  0.1050
18853W        W34987   1.825   0.914  13.658 -0.0984  0.1970  0.0609
18854W        W34988  17.190   9.639  13.992  0.1224 -0.1017  0.2215
18855W        W34989   4.104  15.241   2.874  0.1925  0.0315 -0.1302
18856W        W34990   1.842   3.841  12.900 -0.1760  0.0153 -0.1076
18857W        W34991  15.799   8.632   0.263  0.1800 -0.1600 -0.0054
18858W        W34992  14.963   2.100  12.128 -0.0029 -0.0894 -0.2950
18859W        W34993  18.180  10.098  13.744 -0.1279  0.0596  0.0610
18860W        W34994  13.435  13.870   4.974 -0.0666 -0.2050  0.1294
18861W        W34995   3.245   2.348   0.368  0.1026  0.2637  0.2132
18862W        W34996  13.970   3.732  11.137  0.2927 -0.0973 -0.2539
18863W        W34997   5.047  12.558  12.701 -0.1160 -0.3373 -0.2430
18864W        W34998  15.661   9.154   2.724 -0.1068 -0.1085  0.0109
18865W        W34999  10.208  17.418  12.467  0.1335  0.0091  0.4575
18866W        W35000   8.835  14.125   3.028 -0.1172 -0.1369 -0.2771
18867W        W35001   2.832  11.334   4.599 -0.0615 -0.1349  0.1423
18868W        W35002  11.471  10.696  13.036  0.0490  0.3413  0.0279
18869W        W35003  11.269  13.563  10.330  0.1248 -0.2252 -0.0658
18870W        W35004   8.253  17.052   1.081  0.0517 -0.3267 -0.0444
18871W        W35005   5.941   5.356  11.426 -0.3280 -0.0428  0.1900
18872W        W35006   6.171  13.842   1.822 -0.1824 -0.0092 -0.1006
18873W        W35007  11.898   6.940  10.230 -0.0507 -0.0769  0.0944
18874W        W35008  10.617  17.609   4.269  0.0401  0.2629 -0.0643
18875W        W35009  16.122  15.300  12.044  0.1462  0.0764 -0.0620
18876W        W35010  16.042  13.799   0.993  0.2486  0.0452 -0.1900
18877W        W35011  15.537  17.901   3.201 -0.2647 -0.1679 -0.0829
18878W        W35012  18.733  13.398  14.408  0.1063 -0.0567  0.3806
18879W        W35013   9.863  14.765  12.181  0.0561  0.1327  0.3229
18880W        W35014   8.482  15.809  13.795  0.0550 -0.0800  0.1591
18881W        W35015   6.096  18.883  12.256  0.0924  0.3293  0.2834
18882W        W35016  17.492   7.056   0.287  0.0216  0.0095 -0.0763
18883W        W35017   1.677   1.279  13.149  0.1491  0.0923 -0.1122
18884W        W35018   2.252  14.051   4.142  0.0216  0.0692 -0.0495
18885W        W35019   6.511  13.879   1.412  0.1210 -0.3048 -0.1849
18886W        W35020   3.607  14.784  13.776  0.1407  0.0505  0.3483
18887W        W35021  15.647   6.551   1.027 -0.2945  0.3281 -0.1335
18888W        W35022  10.480  14.207   1.576 -0.1820  0.1289 -0.0003
18889W        W35023  10.508  15.702   2.966 -0.2982  0.0283  0.1835
18890W        W35024   7.343  10.547   5.328  0.1964  0.1475  0.0130
18891W        W35025   2.570   6.838  12.587  0.1067  0.3067 -0.2170
18892W        W35026   1.173   3.298  13.267 -0.0067 -0.3494 -0.0983
18893W        W35027   9.718  16.278  14.769  0.0577 -0.2762 -0.0061
18894W        W35028  16.309  10.576   3.514  0.0920  0.1497 -0.1029
18895W        W35029   7.820   8.147   5.079 -0.0429 -0.1087 -0.2721
18896W        W35030  11.091   3.200   2.723  0.2294  0.1369  0.1576
18897W        W35031   1.570   3.317   4.111  0.1023  0.4942  0.1919
18898W        W35032   0.297   8.474  12.114  0.0417 -0.2529  0.1247
18899W        W35033   2.633  13.199   2.804  0.0510 -0.2187 -0.2987
18900W        W35034  11.487   2.837  12.535 -0.2383  0.3934 -0.1593
18901W        W35035  11.618   1.491  11.766 -0.1614 -0.2197  0.0138
18902W        W35036   6.927  18.675   4.326 -0.3489 -0.2049  0.2494
18903W        W35037   0.905   2.993  15.230  0.1367 -0.2756  0.0591
18904W        W35038  18.579  14.585   4.557  0.1427 -0.2787 -0.2603
18905W        W35039  18.798   1.335   2.075 -0.1552 -0.3843 -0.0665
18906W        W35040   5.707   3.510  14.157 -0.0606 -0.0933 -0.0313
18907W        W35041  15.425   2.375   5.427  0.0991 -0.0030  0.1216
18908W        W35042  12.905  16.914   4.749 -0.1072  0.2158  0.2639
18909W        W35043  14.422  11.746   2.821 -0.2691 -0.3506  0.3490
18910W        W35044   4.583   0.595   4.669  0.1358 -0.1908  0.1593
18911W        W35045  11.545   8.767   3.580  0.1857  0.0727 -0.1674
18912W        W35046   6.421  17.118   0.050 -0.0046 -0.1822 -0.1096
18913W        W35047  10.807   7.866  12.717 -0.0054 -0.0390 -0.1772
18914W        W35048   6.742   0.864  14.626  0.3090 -0.1719 -0.1808
18915W        W35049   0.116   6.009   4.796 -0.1742 -0.0203  0.0199
18916W        W35050   5.112  17.655   3.273  0.2260 -0.2399 -0.0990
18917W        W35051   1.428   8.832  11.449  0.4460  0.4147 -0.1072
18918W        W35052  18.405   9.156  14.056  0.0160  0.2232 -0.4184
18919W        W35053  12.842  16.257  10.487 -0.0250  0.3025  0.0530
18920W        W35054  17.541  15.046   0.288 -0.0566 -0.3320 -0.0508
18921W        W35055  10.402   9.040  11.445 -0.1894  0.4157  0.2503
18922W        W35056  12.528  13.788  10.698  0.2006 -0.0543  0.0896
18923W        W35057  13.151   1.006  12.818 -0.1651 -0.3343  0.1461
18924W        W35058   6.131  12.525  13.040 -0.3564  0.1663 -0.1530
18925W        W35059  17.225   0.968  15.251 -0.0250  0.0320 -0.1676
18926W        W35060   8.965  12.493   3.145  0.0625  0.0370  0.6293
18927W        W35061  12.627   2.724  14.381  0.0110 -0.0964 -0.2001
18928W        W35062  18.519   6.607   3.207 -0.0964 -0.1585  0.0454
18929W        W35063  10.801  11.984  11.742 -0.0218  0.0390 -0.3250
18930W        W35064  18.364  10.938  12.682  0.0272 -0.1227  0.0132
18931W        W35065  11.867   5.041   1.576  0.2764 -0.0381  0.0503
18932W        W35066   5.498  10.051   2.019  0.1518  0.3331  0.0092
18933W        W35067   8.746   5.847   4.602 -0.0084 -0.1244  0.0701
18934W        W35068   6.800   5.376  11.589  0.2223 -0.1841 -0.3026
18935W        W35069   5.403   4.896  12.830  0.1199  0.2351  0.2509
18936W        W35070   6.568  16.102   3.566  0.3318  0.0546  0.0077
18937W        W35071  18.219   5.414  13.525 -0.1766 -0.1608  0.1960
18938W        W35072   1.710   8.362   5.862  0.0053 -0.2118  0.1589
18939W        W35073   9.359   8.635  15.029  0.0761  0.1257 -0.0609
18940W        W35074   7.400   6.511  12.068  0.0871  0.1262 -0.3527
18941W        W35075   9.314  10.973   2.046 -0.1099  0.2229 -0.1853
18942W        W35076   9.293  18.676  14.500 -0.0210 -0.4880 -0.0841
18943W        W35077   1.030   9.142   5.121  0.1400  0.0242 -0.1222
18944W        W35078   7.023  18.808  10.160 -0.3108  0.1422  0.1465
18945W        W35079   4.093  13.857   1.355  0.0069 -0.0172  0.3214
18946W        W35080   0.566   9.409   2.954 -0.2645  0.1267 -0.0433
18947W        W35081  16.096   6.501  11.297 -0.1056 -0.0714  0.2389
18948W        W35082   6.069  17.189   2.243 -0.1196  0.1978 -0.1248
18949W        W35083   3.412   7.630  11.454  0.2734 -0.1196  0.1808
18950W        W35084  16.267   0.758   1.230 -0.1506 -0.1014  0.3047
18951W        W35085   0.919  14.490   0.237 -0.0676 -0.1565  0.0045
18952W        W35086  10.455   6.770  10.513 -0.0841 -0.1141 -0.0060
18953W        W35087  13.226  17.024   3.312 -0.0597  0.2017  0.2915
18954W        W35088  14.071  18.384  14.115 -0.1383 -0.0111 -0.4257
18955W        W35089  16.060  15.381  14.688 -0.1892 -0.3862  0.0939
18956W        W35090   1.325   3.224   4.957 -0.1316 -0.0770 -0.3091
18957W        W35091   4.099   5.831   4.224 -0.1037 -0.0417  0.0077
18958W        W35092  13.363   3.959  12.128 -0.0106 -0.0050  0.1212
18959W        W35093   3.517   9.672   0.164  0.0173 -0.0133  0.0543
18960W        W35094   2.801  12.448   2.697  0.1736  0.0426 -0.4236
18961W        W35095   3.626  14.852   3.905  0.1161 -0.0115 -0.1856
18962W        W35096  13.457   0.116   3.259 -0.4037  0.2423 -0.0639
18963W        W35097   9.932   7.910  12.238  0.0686  0.0262  0.1272
18964W        W35098  17.361  10.807   0.905 -0.1113 -0.2885 -0.0628
18965W        W35099   5.004   7.108   3.523 -0.0126  0.2027 -0.0666
18966W        W35100   1.195  12.050   5.177  0.0961 -0.0122  0.1419
18967W        W35101  17.609   5.672   4.927  0.0709 -0.2140 -0.1766
18968W        W35102   7.491   1.807   3.596  0.0532 -0.0573 -0.0357
18969W        W35103   3.738  15.564   2.318 -0.0690 -0.1965  0.1713
18970W        W35104  11.698   8.586  12.909  0.0542  0.3019 -0.2277
18971W        W35105  12.867   6.210   2.000  0.0449 -0.0298 -0.1083
18972W        W35106   4.884   5.718   4.762 -0.0185 -0.2658  0.1288
18973W        W35107   2.725   4.978   1.226 -0.1411 -0.1216  0.0937
18974W        W35108  15.591   0.304   2.726  0.3976  0.1117 -0.1190
18975W        W35109  16.865  13.352   3.113  0.0731 -0.0498  0.4284
18976W        W35110  17.322  13.273   3.403  0.1859  0.1222  0.3800
18977W        W35111  18.427   8.757   2.160  0.3824 -0.1804 -0.1655
18978W        W35112   7.561   0.897   2.373 -0.1719 -0.1025 -0.3492
18979W        W35113  18.229   6.342   1.336 -0.1488 -0.0435 -0.0547
18980W        W35114  16.637  17.605   1.990 -0.3235  0.0574  0.1853
18981W        W35115   9.549   6.982   0.498  0.0622 -0.3950  0.1465
18982W        W35116   0.142  18.186  11.826 -0.2570 -0.1812  0.2639
18983W        W35117   2.460   2.728   2.780  0.1342  0.0668  0.3609
18984W        W35118  14.740   8.697   0.292  0.0511  0.0937 -0.0874
18985W        W35119  14.386  16.099   1.090 -0.1325 -0.1475 -0.2983
18986W        W35120   9.070   0.392   5.366  0.0330 -0.4212  0.0847
18987W        W35121  13.190   1.421  11.825 -0.2126  0.2336  0.2569
18988W        W35122  15.314  14.021  12.730  0.0069  0.1083  0.2905
18989W        W35123  15.634  16.332  12.970 -0.2561  0.0171 -0.5314
18990W        W35124   4.591   6.167  11.389  0.2221 -0.0131  0.4062
18991W        W35125  13.757  18.574   1.910 -0.0408 -0.3973  0.1604
18992W        W35126   5.929   8.305  11.469 -0.1337 -0.1491 -0.3279
18993W        W35127   0.596   9.142  11.408  0.0059 -0.2361 -0.4414
18994W        W35128   5.415   8.807  12.514 -0.0571 -0.2010 -0.3914
18995W        W35129  15.746   5.447   4.834 -0.0186 -0.2240 -0.0360
18996W        W35130  13.202  12.471   3.085  0.1489  0.0304  0.2283
18997W        W35131   1.395   2.485  11.125 -0.1181 -0.3443  0.0060
18998W        W35132  17.805  15.603  12.699 -0.0740 -0.0445  0.0164
18999W        W35133   8.505  18.531  15.222  0.0069  0.0457 -0.0801
19000W        W35134  10.016   8.139  15.284 -0.0212 -0.1230  0.0146
19001W        W35135   1.507   1.035   4.031 -0.3858  0.0779  0.1036
19002W        W35136   5.689   5.334   4.743  0.1825 -0.3895 -0.3745
19003W        W35137  13.554  11.659  10.634  0.1930  0.1150  0.0869
19004W        W35138  15.297   2.887  11.056  0.0286  0.2034 -0.1842
19005W        W35139  14.768  16.384   3.170 -0.1309 -0.1881 -0.0545
19006W        W35140   1.931   8.720  13.324 -0.0843  0.1273 -0.1923
19007W        W35141  16.935   5.219   2.855 -0.1113  0.1125  0.0253
19008W        W35142   8.697   2.776  10.688  0.0466 -0.1050  0.2296
19009W        W35143   3.091  10.000   1.977  0.1310 -0.1763  0.2513
19010W        W35144   2.366  15.956   3.844 -0.2323 -0.0114  0.0964
19011W        W35145  15.521   4.783  11.349 -0.0388  0.0260 -0.1924
19012W        W35146  11.379   4.954   0.854 -0.1961 -0.0188  0.0144
19013W        W35147  15.567   8.015  14.824 -0.1083 -0.0753 -0.2636
19014W        W35148   3.073   7.317  10.393  0.0026  0.1727 -0.1638
19015W        W35149   9.226   0.439   4.266 -0.0838  0.1175  0.2598
19016W        W35150  16.575   2.408   1.469  0.1562 -0.1235 -0.1296
19017W        W35151  10.377  15.191   5.754  0.4670  0.2311  0.0324
19018W        W35152  14.730  12.164   0.889 -0.3135  0.0693  0.2417
19019W        W35153   8.197  15.991   0.854  0.1531  0.0697 -0.1527
19020W        W35154   6.151  12.618   1.986  0.0719  0.0918 -0.4580
19021W        W35155  13.493   1.799  11.720 -0.0687  0.0658  0.4217
19022W        W35156   1.277   3.287  15.061 -0.1103 -0.0381 -0.1470
19023W        W35157   8.152   9.646   2.783  0.1826  0.0003  0.1168
19024W        W35158  14.827  17.085   4.199 -0.0692  0.0969 -0.2620
19025W        W35159   6.661   5.274   0.369  0.3305  0.1158  0.3030
19026W        W35160  18.912   5.762   1.426  0.3431 -0.1142  0.0464
19027W        W35161   2.153  12.489  11.391  0.1239 -0.1461  0.1475
19028W        W35162   5.295   3.814  12.284 -0.0925 -0.3017 -0.0013
19029W        W35163  17.991  13.829   6.026 -0.4923 -0.2858 -0.1603
19030W        W35164   5.282   0.587   2.563  0.1059  0.2528 -0.1820
19031W        W35165   5.144  11.667  13.915 -0.4972  0.0502 -0.2683
19032W        W35166   5.666   0.376  11.803  0.0144 -0.0043 -0.5130
19033W        W35167   4.003  13.276  14.481 -0.0189  0.0354 -0.0764
19034W        W35168   6.447   3.750   1.085  0.1323 -0.0159 -0.0805
19035W        W35169  15.636   2.865   5.387 -0.1780  0.0697 -0.0593
19036W        W35170   5.613   9.502   1.352 -0.2941 -0.0987 -0.0413
19037W        W35171   3.797   0.098   0.188 -0.4713  0.3346  0.1454
19038W        W35172   9.132   2.163  14.934 -0.3156 -0.1956  0.4016
19039W        W35173   5.762  10.079   1.605  0.2993  0.1129  0.1800
19040W        W35174   1.618   1.463   0.964  0.0123  0.2601 -0.1019
19041W        W35175  14.775   0.953  12.696  0.3130  0.0592 -0.1325
19042W        W35176  18.547  10.241   2.172 -0.0367 -0.2305  0.1338
19043W        W35177  16.759   5.416   0.441  0.0489 -0.1743  0.1702
19044W        W35178  14.951  14.660   4.553 -0.1248 -0.0923  0.1885
19045W        W35179  18.228  16.124  14.409 -0.1767  0.0542  0.2220
19046W        W35180  13.244  13.205  12.280  0.3329  0.2633 -0.1295
19047W        W35181   1.568   6.955   2.171  0.0497  0.1276 -0.1511
19048W        W35182  13.526   0.406  13.430  0.2792  0.3938 -0.0728
19049W        W35183   1.921  15.952  11.031 -0.1625  0.1887  0.1997
19050W        W35184   8.722   1.791   5.409  0.1266 -0.0334 -0.1397
19051W        W35185   6.658   9.594  11.340 -0.0856 -0.1169 -0.2046
19052W        W35186   4.628  18.475   3.261 -0.0787  0.2400 -0.1631
19053W        W35187   3.274  12.421  12.378  0.0295 -0.1090 -0.0969
19054W        W35188  15.993   3.037  13.544 -0.0487 -0.0657  0.0622
19055W        W35189   0.322   5.109  15.284 -0.0592 -0.3945  0.1500
19056W        W35190  12.793   5.453  12.682  0.0820 -0.1769 -0.0587
19057W        W35191   0.886   7.953   0.077 -0.0918  0.3690 -0.1310
19058W        W35192   8.971  11.393   5.420  0.2949 -0.2076 -0.1476
19059W        W35193  14.680   8.992   0.987  0.2034 -0.0419  0.0071
19060W        W35194   4.638   6.478  14.273 -0.2052  0.0948 -0.0764
19061W        W35195  18.180  15.845  12.987 -0.0757 -0.0815  0.0305
19062W        W35196   7.717  15.705  13.895 -0.1081  0.0297  0.1171
19063W        W35197   1.857   2.157   0.993 -0.2215  0.3061  0.0534
19064W        W35198  12.357   7.931  11.025 -0.1533 -0.2250 -0.3002
19065W        W35199  12.152   6.619   2.498  0.0046 -0.2429 -0.6313
19066W        W35200  14.002   9.684  13.034 -0.3070  0.1276  0.4127
19067W        W35201   5.400  18.367   3.853  0.1054  0.2358 -0.0763
19068W        W35202   8.779   1.623   1.149 -0.0305  0.1844 -0.1271
19069W        W35203   7.420   5.719  12.458  0.3018  0.1500  0.1136
19070W        W35204   1.661  11.169   0.236 -0.0461  0.1348  0.0662
19071W        W35205  12.500   0.874   3.908 -0.0483  0.3181  0.0353
19072W        W35206   4.253  17.453   5.429 -0.0012  0.0976 -0.1063
19073W        W35207   1.378  10.542  11.843 -0.4887  0.1336  0.2840
19074W        W35208   6.401  13.339  12.482 -0.0608 -0.2857 -0.3081
19075W        W35209   4.494   0.616  13.209 -0.1344  0.2579  0.2839
19076W        W35210   1.319   7.802  11.820 -0.0023 -0.1107  0.2672
19077W        W35211  15.071   7.165  13.933  0.0289 -0.1139  0.0541
19078W        W35212   2.442   3.689   5.582 -0.0677 -0.3661  0.2402
19079W        W35213   2.340  15.862   2.826 -0.0836 -0.4498 -0.2339
19080W        W35214   1.554   6.780  14.026  0.0293  0.0815 -0.2726
19081W        W35215  15.456  11.671   9.519 -0.4224  0.0175 -0.1640
19082W        W35216  10.633   6.812  13.074  0.0964  0.0879 -0.0721
19083W        W35217   2.156   8.114   3.042 -0.0268 -0.0339 -0.0034
19084W        W35218   5.644   1.110  11.123  0.1111 -0.2035  0.0387
19085W        W35219  10.607   2.394   2.672 -0.0617 -0.2471  0.1807
19086W        W35220  17.990   6.136  12.704 -0.1009  0.1279  0.0609
19087W        W35221   0.977  13.549   4.012  0.1402  0.0405 -0.0096
19088W        W35222  18.010   3.111  12.549 -0.0008 -0.2438 -0.0438
19089W        W35223  10.212   6.885  14.601  0.2006 -0.0541  0.3331
19090W        W35224  16.514   5.903  12.947 -0.1868  0.4521 -0.2739
19091W        W35225  15.929  14.616   2.092  0.2021 -0.1859  0.0555
19092W        W35226  10.409   3.996  10.598  0.2179  0.2972 -0.0736
19093W        W35227  10.323   2.146   0.034  0.3544 -0.3407  0.0041
19094W        W35228   5.129   3.518  13.138  0.3497  0.1881  0.0290
19095W        W35229   8.419   1.604  11.914  0.0402 -0.1016 -0.2630
19096W        W35230  18.478  18.277  13.124 -0.1197  0.2478  0.1190
19097W        W35231   4.328  11.337   3.968 -0.1043 -0.2115 -0.0454
19098W        W35232  17.622  10.217  14.953 -0.4510  0.2216  0.0049
19099W        W35233  11.245   2.545  10.556  0.0066  0.1579  0.1990
19100W        W35234   0.342   7.263  11.549  0.1024  0.0806 -0.1171
19101W        W35235   4.355  18.866   2.594 -0.1112  0.1208  0.1360
19102W        W35236   0.198  16.277  14.095 -0.3066 -0.0330  0.0448
19103W        W35237  13.500  15.198  11.180 -0.0912 -0.0415 -0.3035
19104W        W35238   4.279   8.664   2.661  0.5186 -0.1743 -0.1189
19105W        W35239   8.087   8.336   0.299 -0.0487 -0.4234 -0.3748
19106W        W35240  14.217   3.845   4.650 -0.2182 -0.2996 -0.4046
19107W        W35241   4.587   5.827  13.647 -0.0515  0.0755 -0.0458
19108W        W35242   5.222  18.525   5.157 -0.2916 -0.3202  0.4188
19109W        W35243  10.769   2.297  14.211 -0.3292  0.0613 -0.0528
19110W        W35244   7.386  18.874   4.713  0.1672  0.2532 -0.0833
19111W        W35245   7.810   7.081   4.459  0.2271  0.0518  0.1299
19112W        W35246   2.623  18.165   4.626 -0.1184  0.1160  0.1292
19113W        W35247  18.442  13.392  12.826 -0.0469  0.4225  0.0410
19114W        W35248   0.743  11.111   0.298  0.3251 -0.0265  0.1410
19115W        W35249  12.041   0.416   3.901  0.2999  0.1450 -0.0801
19116W        W35250   7.342   2.275   0.661 -0.1690 -0.0171 -0.0338
19117W        W35251  10.006   5.950   1.125 -0.1171  0.1560 -0.2404
19118W        W35252  12.314  14.279   0.232 -0.0308 -0.1363  0.0180
19119W        W35253  13.024   7.810  12.054 -0.1043 -0.0017 -0.1380
19120W        W35254   5.116  11.381   2.211  0.1457 -0.0813 -0.1162
19121W        W35255  16.730   0.243  13.060 -0.3794 -0.1548  0.1597
19122W        W35256  13.659  10.532  11.535 -0.1917 -0.0553 -0.1225
19123W        W35257  11.387  18.740   9.832 -0.1042  0.2065 -0.1113
19124W        W35258   0.966   4.978   4.568  0.1017  0.0134 -0.0329
19125W        W35259  17.075   9.161   0.800  0.0852 -0.0437 -0.0417
19126W        W35260  16.934   0.877  10.889 -0.1848 -0.1544  0.1484
19127W        W35261   4.294   6.816   2.918  0.2742  0.1732  0.0421
19128W        W35262   3.540   2.150  13.100 -0.1162  0.1842  0.0058
19129W        W35263   8.465  16.572  12.262 -0.1274  0.2352  0.1420
19130W        W35264  15.171   2.853   1.788 -0.1858 -0.1710  0.2552
19131W        W35265   8.180   1.740   4.761 -0.0138 -0.0283  0.0279
19132W        W35266  11.080  14.983  12.054 -0.0017  0.0587  0.0678
19133W        W35267   4.592  16.633   3.470 -0.0758  0.0158  0.1725
19134W        W35268   7.250   8.051  14.626  0.0705 -0.0359 -0.0587
19135W        W35269  14.887   2.362  14.718 -0.1902  0.2831 -0.1220
19136W        W35270  12.154   2.161  14.456 -0.1851 -0.0646  0.0193
19137W        W35271   6.422  12.893  14.770  0.0209  0.1388  0.1020
19138W        W35272  15.024  13.085   1.317 -0.4772 -0.0318 -0.0706
19139W        W35273   8.228  14.416  10.897 -0.0841 -0.1424  0.2281
19140W        W35274   2.352  18.627   4.769 -0.1344  0.2059 -0.1953
19141W        W35275  16.302   2.602   0.475  0.0574  0.0134 -0.1243
19142W        W35276  17.320  16.338   3.239  0.1095 -0.0500  0.0674
19143W        W35277   4.423   8.882   1.121 -0.1585  0.1463  0.1503
19144W        W35278   0.255   5.535   2.610 -0.1157 -0.2527 -0.0879
19145W        W35279   9.976   8.396  13.655 -0.3874  0.0077  0.1990
19146W        W35280  11.732   8.458   1.252 -0.1118  0.0784 -0.0754
19147W        W35281   2.704   3.152   1.999 -0.1556 -0.0134  0.2093
19148W        W35282   9.626   3.873   3.953 -0.2011 -0.1747 -0.1561
19149W        W35283   3.642  10.888   4.238 -0.1515  0.0250  0.2252
19150W        W35284  12.239   8.673   3.463  0.1511  0.4593  0.0088
19151W        W35285  18.992   0.886  10.487 -0.0628  0.1559 -0.0339
19152W        W35286  15.412  10.686   2.728  0.1036 -0.1782 -0.3648
19153W        W35287   7.940  10.123  11.992 -0.1857 -0.0280  0.2861
19154W        W35288   6.147   1.955  10.827  0.2195 -0.1333  0.1335
19155W        W35289   0.011   0.855   1.283 -0.2939 -0.1355  0.2447
19156W        W35290  17.279   5.224   4.288 -0.1227  0.1291 -0.2215
19157W        W35291   3.261  13.232  13.871  0.1055  0.1143 -0.2706
19158W        W35292   5.587  17.577  14.865  0.3293  0.1968 -0.1798
19159W        W35293   8.135   4.789   2.530  0.1448  0.2383  0.1388
19160W        W35294   1.954  15.502  14.149  0.0606 -0.0903  0.0681
19161W        W35295  11.844   8.770   3.140  0.0802 -0.0395 -0.1556
19162W        W35296  16.104   4.695   4.837 -0.4467 -0.1774  0.0049
19163W        W35297   1.474   4.495   5.374  0.1243  0.2289  0.1044
19164W        W35298   4.363  13.832   1.831 -0.3940  0.0462  0.0876
19165W        W35299  15.657   3.394  14.841 -0.1837  0.0285  0.0272
19166W        W35300   0.101  18.294   1.955  0.2139 -0.1263 -0.0850
19167W        W35301   3.411   2.755   0.560 -0.2723 -0.1129  0.1633
19168W        W35302   4.584  11.110   4.909 -0.0671  0.2074 -0.2042
19169W        W35303   8.406  18.297  10.746  0.3284  0.0168  0.2467
19170W        W35304   1.591  15.404   6.105 -0.1246  0.4207  0.1752
19171W        W35305   5.517   2.888  14.971  0.1708 -0.0207  0.1083
19172W        W35306   9.321   7.232  13.632  0.2080  0.1545  0.0652
19173W        W35307  14.612   8.150   2.910 -0.0002  0.0255  0.1525
19174W        W35308  12.095  16.528  12.212  0.0658 -0.2387  0.0369
19175W        W35309  13.792  10.378   2.713  0.0913  0.2873  0.1077
19176W        W35310   6.147  11.165  12.229  0.2370 -0.1015  0.0240
19177W        W35311   9.881   0.601  15.129 -0.1099 -0.0716  0.3075
19178W        W35312  15.986  13.738   1.581 -0.1726 -0.2934  0.2305
19179W        W35313  10.020  13.617   2.527 -0.1608 -0.0897 -0.1425
19180W        W35314   6.887  17.684   3.845  0.7551 -0.1977 -0.3151
19181W        W35315   8.459  15.910   4.614 -0.3449 -0.1976  0.2296
19182W        W35316   5.229  18.418  10.626 -0.0583  0.0402  0.0519
19183W        W35317   4.683   1.945  14.749  0.1371 -0.3332  0.0862
19184W        W35318   5.867  13.817  11.734 -0.1550 -0.0526  0.1403
19185W        W35319   4.852   2.750   3.133 -0.0299  0.0251 -0.1737
19186W        W35320  12.289  11.827   1.349 -0.2520  0.1828  0.0000
19187W        W35321  18.086   8.213   4.919  0.0582  0.1008  0.0642
19188W        W35322  10.619  18.426  12.881 -0.0235 -0.0996  0.0646
19189W        W35323   8.575   1.807  14.384 -0.2306 -0.0726 -0.0249
19190W        W35324   1.652  11.696  14.464  0.1809  0.0136  0.0166
19191W        W35325  15.164   4.738  10.673  0.1369  0.1103  0.0999
19192W        W35326   1.132   1.162  11.473  0.0829  0.2989 -0.1000
19193W        W35327   9.146  12.245   2.748  0.0296 -0.1539 -0.2715
19194W        W35328  16.350  15.724  11.096 -0.0051 -0.0259 -0.2605
19195W        W35329   6.531   5.996   0.500  0.1305  0.0233 -0.0565
19196W        W35330  13.014  14.853  13.407 -0.0556  0.3576  0.0605
19197W        W35331   6.977   7.029   3.811  0.0310  0.1705  0.0618
19198W        W35332   5.303  12.160  13.233 -0.0358  0.2080 -0.2773
19199W        W35333   1.910  17.923  12.903  0.1413 -0.1460  0.1351
19200W        W35334  17.653   3.933  13.257 -0.1880 -0.1367 -0.1319
19201W        W35335   4.703  18.368   1.392  0.1029 -0.0225  0.1445
19202W        W35336   0.458  11.638   5.886  0.0983  0.1714 -0.0413
19203W        W35337  10.295   5.066  11.260 -0.1297  0.2080  0.0078
19204W        W35338  14.204   5.956  15.182 -0.0728  0.2373 -0.1037
19205W        W35339  18.236  12.316   4.502 -0.2107 -0.1606 -0.3394
19206W        W35340  13.217   7.755   0.978  0.2303 -0.0554 -0.0921
19207W        W35341   4.432   7.622   3.726  0.1416  0.1453 -0.0917
19208W        W35342   2.087   5.355   2.457 -0.1788  0.0148 -0.2319
19209W        W35343  17.985   4.880   0.117  0.1539  0.1632  0.0587
19210W        W35344  16.963  10.941   2.874  0.0093  0.0594 -0.0800
19211W        W35345  12.490   3.672   2.526  0.1137  0.1346 -0.1584
19212W        W35346  12.150   4.992   0.372 -0.1118 -0.5093 -0.1049
19213W        W35347   4.317  13.739   2.663  0.1498 -0.1914 -0.0215
19214W        W35348   2.973   4.832   2.239  0.1623 -0.1098 -0.1687
19215W        W35349  16.011  16.691  13.755 -0.0705 -0.1119  0.1817
19216W        W35350  12.221  17.726   3.926 -0.0282 -0.0340  0.0139
19217W        W35351  12.558  16.152  11.030 -0.1035  0.2566  0.0247
19218W        W35352  15.598  12.311   3.574  0.0176 -0.2357 -0.3573
19219W        W35353  16.482   2.093  11.967 -0.3362 -0.0425  0.1393
19220W        W35354   0.807  12.924  13.590 -0.0979 -0.1504 -0.0006
19221W        W35355  15.801   1.198   2.481  0.1143 -0.0633  0.2904
19222W        W35356  15.979   9.688   1.646 -0.0434  0.3341  0.0814
19223W        W35357   8.821  13.443   4.437  0.0190  0.2586 -0.1095
19224W        W35358  12.164  12.207   4.496  0.2579  0.0608 -0.3580
19225W        W35359   7.903   6.861   4.047  0.2162  0.2472  0.3785
19226W        W35360  12.177   9.901   4.968  0.0397  0.1101 -0.2098
19227W        W35361  10.149  12.593   1.481 -0.1285 -0.0894 -0.1286
19228W        W35362   5.607   1.076   0.324  0.1344 -0.0540  0.2177
19229W        W35363  11.023   7.973  11.552  0.0321  0.2906 -0.0362
19230W        W35364   8.655  15.996   0.349 -0.1030  0.1650  0.1658
19231W        W35365  18.983   7.785   3.396  0.0000  0.2837  0.2921
19232W        W35366   2.120   6.853  14.202 -0.1907 -0.0344 -0.2211
19233W        W35367  12.937   0.038   1.740  0.2802 -0.0270  0.0325
19234W        W35368   8.514  10.012   3.871  0.1622 -0.2633  0.1704
19235W        W35369   8.991   9.905   3.987 -0.1052 -0.2412 -0.0601
19236W        W35370  17.116   7.557   1.684 -0.0520  0.1607 -0.0438
19237W        W35371  10.561  10.372  13.104  0.1885  0.0862 -0.0054
19238W        W35372  10.371  11.098  12.637  0.0828 -0.0600  0.0693
19239W        W35373   0.176  12.271   1.076  0.0299  0.0303 -0.1049
19240W        W35374  13.559  14.456   4.270  0.3032  0.2485  0.2124
19241W        W35375  17.627  13.871   4.800  0.0266  0.3198 -0.0426
19242W        W35376   4.428  10.552   3.769  0.2426  0.1793  0.1406
19243W        W35377   1.310  14.932  12.111 -0.1499  0.1003 -0.0603
19244W        W35378  18.856   9.603  14.601 -0.3559 -0.3693  0.3145
19245W        W35379  17.291  11.277  11.018  0.2726  0.0417 -0.0572
19246W        W35380  16.666  15.419   4.031  0.3127  0.1994  0.0443
19247W        W35381  10.922   1.349   1.134 -0.2193  0.0437 -0.1979
19248W        W35382  12.596   3.729  11.140 -0.3145  0.1308 -0.1443
19249W        W35383  10.318  14.552  14.163 -0.0036 -0.0405  0.3928
19250W        W35384   2.733  14.216  11.503 -0.0027  0.1626  0.4028
19251W        W35385  16.784   1.578   3.526  0.1085  0.0591  0.0368
19252W        W35386   1.720  10.236   3.180 -0.0705  0.2223 -0.0758
19253W        W35387  10.797  17.488   3.732 -0.1711 -0.0044  0.0252
19254W        W35388  12.164  18.518   9.951  0.1869  0.1503 -0.0573
19255W        W35389   1.878  12.284   3.105 -0.1878 -0.0658  0.3753
19256W        W35390  10.447  13.561  15.086 -0.1501  0.0144  0.1565
19257W        W35391  12.432   8.533   0.759 -0.3977 -0.1048 -0.0411
19258W        W35392  18.768   7.096  11.344  0.0724  0.1077  0.0943
19259W        W35393  17.134  11.363  11.985 -0.0049  0.2335  0.3032
19260W        W35394   2.026   4.264  10.967  0.1955  0.2822 -0.0890
19261W        W35395   6.883  14.525  13.088 -0.3456  0.0784 -0.0071
19262W        W35396   7.064   0.967   2.129 -0.0639 -0.1273  0.0238
19263W        W35397   7.512   7.376   1.180 -0.0810  0.1088  0.1953
19264W        W35398  10.149  16.710   2.181 -0.0587 -0.0207 -0.2261
19265W        W35399  15.646  16.154   3.387  0.2593  0.0526 -0.2138
19266W        W35400   4.937  11.145   3.110 -0.0330 -0.1321 -0.0184
19267W        W35401  10.667   6.877  14.825 -0.1228  0.0315  0.1029
19268W        W35402  13.486   5.362  14.452 -0.2108  0.0769  0.2077
19269W        W35403  11.682   8.626  13.563 -0.0050  0.0890  0.2518
19270W        W35404   1.404  14.685  13.935  0.2503 -0.0674 -0.0880
19271W        W35405  14.761  13.760   4.316  0.2695  0.0667 -0.2550
19272W        W35406   6.088   3.420  10.866  0.0340  0.1003 -0.0311
19273W        W35407  18.528  11.264  11.823 -0.2163 -0.3192  0.1033
19274W        W35408  14.112   4.941   2.910 -0.0486  0.0721 -0.3868
19275W        W35409  13.942  15.246   2.436  0.0956  0.2178 -0.0002
19276W        W35410   4.854  12.005   1.782 -0.1545  0.1607 -0.1483
19277W        W35411  16.660   1.083   5.562  0.2252  0.3085  0.3255
19278W        W35412   7.976  16.127   3.170  0.0549  0.0619 -0.0352
19279W        W35413   8.740   8.092   3.764  0.0606  0.0437  0.0261
19280W        W35414   7.337  18.189  10.527 -0.0519  0.1205  0.0606
19281W        W35415  13.574  17.130   1.413  0.2224 -0.1364 -0.0001
19282W        W35416  14.878  11.893   4.624  0.5656 -0.1891  0.3185
19283W        W35417   7.325  10.324   4.528  0.3439 -0.0281 -0.0878
19284W        W35418  13.488   1.552   3.443  0.0504  0.0896  0.0805
19285W        W35419  10.701   6.248   2.996  0.3799 -0.1093 -0.0878
19286W        W35420  11.126  12.171  13.938 -0.2661 -0.0078 -0.0534
19287W        W35421  16.711   7.040  14.365 -0.1169 -0.2342  0.1783
19288W        W35422   0.005  17.310   0.620  0.3009  0.2457  0.2961
19289W        W35423  10.532  12.258   1.418 -0.0377  0.2113 -0.3710
19290W        W35424   8.109   6.398  15.022  0.0462  0.2849  0.0665
19291W        W35425   3.407  10.285  13.875 -0.2470 -0.3109 -0.1876
19292W        W35426   2.198   7.065  14.698 -0.0997 -0.1619 -0.0424
19293W        W35427  16.152  18.658   4.874 -0.1252 -0.0213  0.0693
19294W        W35428  13.819  10.990  14.868 -0.1135 -0.1128  0.2099
19295W        W35429  10.873   9.789  12.096 -0.2297  0.0777  0.0943
19296W        W35430  10.088   8.534  11.453  0.1999  0.0232  0.0151
19297W        W35431   7.942  16.457  10.348 -0.2326  0.1693  0.0443
19298W        W35432  10.801  11.011  10.782  0.0081  0.2468 -0.1218
19299W        W35433   6.289   8.477  11.866 -0.0214 -0.2100  0.3329
19300W        W35434   8.579   9.301   0.006  0.1750 -0.2260  0.0900
19301W        W35435   2.573   7.121   3.236  0.1618 -0.1756  0.0594
19302W        W35436   1.088   4.401   1.660 -0.3214 -0.2693  0.1200
19303W        W35437   6.180  11.011   3.577 -0.1913 -0.2000 -0.2469
19304W        W35438   1.988  13.736  14.879  0.2706 -0.1636 -0.2612
19305W        W35439  17.677   8.777  14.083 -0.0033  0.4228 -0.0204
19306W        W35440  11.838   5.529  11.434  0.0632  0.1170 -0.1957
19307W        W35441   8.533  11.995  13.899 -0.0406  0.0514 -0.1309
19308W        W35442   2.810   7.840   4.356 -0.4204  0.0394 -0.0957
19309W        W35443   9.612   4.701  12.591  0.1006  0.0881 -0.0731
19310W        W35444   5.432   1.689  11.433  0.1251 -0.1942 -0.0602
19311W        W35445   9.020  10.225  14.447  0.1357 -0.5251  0.1427
19312W        W35446  17.908   5.494   4.538  0.2182  0.2828  0.0511
19313W        W35447  17.932   4.016  13.704 -0.0984 -0.0142 -0.2084
19314W        W35448  17.657  11.945   2.258  0.4376  0.0517 -0.2632
19315W        W35449   4.698  15.382  11.360  0.2368 -0.2361  0.0582
19316W        W35450   6.904  14.247  14.881 -0.2536  0.1032  0.0791
19317W        W35451   4.575   0.103  14.446 -0.1206 -0.2540  0.0117
19318W        W35452  11.688   8.860   1.527 -0.0745 -0.0528  0.1818
19319W        W35453  13.745  14.646   3.270  0.0709  0.1611  0.1227
19320W        W35454   2.092  13.257  14.841  0.0346 -0.0227  0.2296
19321W        W35455   9.711  16.806  13.872 -0.2744  0.3089  0.0866
19322W        W35456  14.398   1.925  12.926 -0.2128 -0.3892  0.1151
19323W        W35457  17.911  17.697   6.287  0.1949 -0.0914 -0.0072
19324W        W35458   6.123  16.201  14.875  0.0374  0.1456 -0.3193
19325W        W35459   5.304  11.760   1.776  0.0803 -0.1274 -0.0030
19326W        W35460   4.429   0.280   1.799  0.2003  0.1149  0.0438
19327W        W35461   4.261  17.831   1.995 -0.0502 -0.1454 -0.0007
19328W        W35462  18.399   9.843  14.708  0.0989  0.3039  0.0981
19329W        W35463  10.978   6.005   4.425 -0.0909  0.4373  0.1643
19330W        W35464  17.800  18.805   3.522  0.3360  0.1099  0.1900
19331W        W35465   8.034  17.229  12.867 -0.1282  0.2454  0.0192
19332W        W35466   2.722  16.271  12.088  0.1718 -0.0719 -0.1789
19333W        W35467  16.438   6.975  13.877  0.0168  0.1026  0.2491
19334W        W35468  16.559  12.479  10.372 -0.0640 -0.1992  0.2326
19335W        W35469  15.525   0.428  10.406  0.2489 -0.1392  0.0117
19336W        W35470  11.208  13.703  14.317 -0.2760  0.1796 -0.0423
19337W        W35471   4.942  11.844   4.714  0.2479 -0.0227  0.3656
19338W        W35472  14.162   1.305   9.708  0.0724 -0.2194 -0.2136
19339W        W35473   0.054  12.461   0.591 -0.0075  0.4588  0.0415
19340W        W35474  17.421   0.372  14.569 -0.0944 -0.2012 -0.1148
19341W        W35475   6.264   4.993  12.372  0.4172 -0.1246 -0.0414
19342W        W35476  11.067   9.960  14.196  0.1764  0.1438 -0.0914
19343W        W35477   5.269   1.314  11.965  0.1819  0.1616  0.3709
19344W        W35478   4.210  12.363   3.057  0.0596  0.4580 -0.1740
19345W        W35479  14.305  17.297   4.777  0.2819 -0.0501  0.0933
19346W        W35480  12.060  10.101  12.956  0.4040  0.1244 -0.0527
19347W        W35481   3.660   5.560   3.460  0.3048  0.0395 -0.1665
19348W        W35482  13.422  15.916   2.191 -0.1637  0.0458  0.1371
19349W        W35483  14.529  18.651  10.084 -0.1067  0.0801  0.1419
19350W        W35484   6.657  15.822   1.387 -0.0130 -0.4427  0.1274
19351W        W35485   4.424   5.250   1.036 -0.0538  0.2011 -0.0909
19352W        W35486  10.266  14.891   9.930  0.0310  0.1116 -0.0230
19353W        W35487   0.550   2.699   2.595  0.2061  0.2392  0.2161
19354W        W35488   7.309  17.989  11.440  0.0418  0.0525 -0.2211
19355W        W35489  11.076  15.982  14.030  0.1485  0.1391  0.1737
19356W        W35490   4.822   2.562  13.630  0.0017  0.1825  0.2290
19357W        W35491   4.963   7.414   4.042 -0.3663  0.0912 -0.0304
19358W        W35492   9.437  16.463   2.134 -0.1751  0.4745 -0.1384
19359W        W35493  13.792  18.819  13.188 -0.3034 -0.0479 -0.0259
19360W        W35494  15.025  10.775   1.049  0.3851 -0.0099  0.1311
19361W        W35495  13.458  10.890  15.190 -0.1565  0.0199  0.1125
19362W        W35496   5.665  17.012  12.542  0.1314  0.0102  0.1557
19363W        W35497  16.479   0.445  15.083  0.2431 -0.0258  0.4304
19364W        W35498   6.327   7.761  10.528 -0.1248 -0.0173 -0.1989
19365W        W35499   3.554   5.950   2.243 -0.0850  0.1809 -0.0157
19366W        W35500  13.607  17.479   9.873  0.2625 -0.0248  0.0653
19367W        W35501   7.587   0.975   0.698  0.2749  0.2369 -0.1734
19368W        W35502   8.595  10.701  15.045 -0.1393 -0.0756  0.2587
19369W        W35503  14.934  16.334   4.485  0.0018 -0.0393 -0.1102
19370W        W35504   2.785  17.637   4.681 -0.0269 -0.3197 -0.1591
19371W        W35505   3.363   4.646   4.566  0.0584  0.1656 -0.0648
19372W        W35506   9.076   2.811  12.784 -0.0674  0.2635 -0.0889
19373W        W35507   1.494  11.326  14.133 -0.0348  0.1066 -0.1935
19374W        W35508  16.384  10.590   2.222  0.4105 -0.1261  0.0646
19375W        W35509   9.584  12.561  10.830 -0.2094 -0.0051 -0.4329
19376W        W35510  16.266   1.012  14.167 -0.1439  0.0478 -0.2668
19377W        W35511  11.396   2.152   4.119 -0.0673 -0.0361  0.0603
19378W        W35512  15.713  16.823  14.739  0.2642  0.0204 -0.1141
19379W        W35513  13.748   0.993   9.928  0.2086  0.0557  0.3017
19380W        W35514  11.000   9.484   0.172 -0.1260 -0.1369  0.0970
19381W        W35515  11.842  10.747   1.061 -0.1213 -0.0501  0.2820
19382W        W35516  18.296   5.243   4.793  0.1757 -0.2333 -0.0761
19383W        W35517   6.266   0.636  10.050 -0.2331  0.0020  0.2974
19384W        W35518   5.754   2.955   5.441 -0.0418  0.1083 -0.3244
19385W        W35519  16.711   0.412   3.399  0.0622 -0.2735  0.4314
19386W        W35520  11.816  11.181  10.418  0.2206 -0.0949 -0.3090
19387W        W35521   9.333  18.138  12.690  0.0512 -0.2882  0.0744
19388W        W35522  11.251  14.506  12.242  0.1137 -0.1293 -0.3040
19389W        W35523  14.344  10.281   2.176 -0.3019  0.1290  0.2256
19390W        W35524  13.601  11.061  13.958 -0.1728 -0.0974 -0.0392
19391W        W35525  10.413   4.529  13.455  0.2925 -0.1470  0.0818
19392W        W35526  15.879  18.299   5.088  0.2117  0.1756  0.0684
19393W        W35527   2.544   5.140   4.523 -0.0574 -0.1594  0.1943
19394W        W35528   1.073   2.263   3.710 -0.1778 -0.0756  0.0608
19395W        W35529  17.092   4.728  12.350 -0.0252  0.0760  0.3727
19396W        W35530   2.083  16.863   2.880 -0.1353 -0.0517 -0.1734
19397W        W35531   8.286  16.550   2.247  0.1361  0.0223  0.1298
19398W        W35532   7.291   6.763  14.041 -0.2720  0.0797 -0.1431
19399W        W35533   8.041   5.672  14.523 -0.2339 -0.3716  0.2086
19400W        W35534  14.363   1.059  10.707 -0.0888  0.0479  0.1725
19401W        W35535   8.061  18.169   3.641 -0.1889 -0.1534  0.1282
19402W        W35536   1.938  17.568   1.295 -0.4542  0.4234  0.0921
19403W        W35537  15.428   7.558  13.475  0.4869  0.0885  0.1854
19404W        W35538   1.329   1.239   2.140  0.4258  0.4156  0.1059
19405W        W35539   3.007   0.138  12.852  0.2742 -0.1284 -0.0691
19406W        W35540  11.952   9.452  12.900  0.1887 -0.1667  0.1210
19407W        W35541   2.482   3.780   3.656 -0.1004  0.2951 -0.0032
19408W        W35542   5.204  10.910   5.418 -0.0341  0.1395 -0.1210
19409W        W35543  13.815   6.380  14.859  0.1917  0.1765 -0.0397
19410W        W35544  13.698  18.143   2.590 -0.0542 -0.2261  0.4329
19411W        W35545  12.367  11.891   2.691 -0.1994  0.2484  0.1178
19412W        W35546  14.667   7.462   4.703  0.0012 -0.1902 -0.1440
19413W        W35547  18.654  14.002  13.446  0.2536  0.2215  0.0905
19414W        W35548   6.801  10.845  14.363  0.0852 -0.1201 -0.3462
19415W        W35549  11.889  10.818   2.128 -0.3522  0.4687  0.1697
19416W        W35550   7.469   3.026  12.161 -0.3148 -0.1723 -0.2457
19417W        W35551  14.510   8.465   3.711 -0.2246 -0.1330 -0.2890
19418W        W35552  15.169   0.937  12.416  0.4035 -0.0240  0.0731
19419W        W35553   4.436   2.390  12.233 -0.1495  0.1328 -0.1374
19420W        W35554   4.270   2.134  15.018  0.2179  0.1753 -0.0029
19421W        W35555   1.758   4.171  12.411 -0.1290  0.0042  0.0853
19422W        W35556   1.364   4.897   2.965  0.2365 -0.0270 -0.0930
19423W        W35557   1.540  15.185  10.695  0.1875  0.1990  0.0668
19424W        W35558   2.208  13.808   1.805  0.0164  0.2538 -0.1355
19425W        W35559   4.290  13.814  13.065 -0.0663 -0.0183 -0.3038
19426W        W35560  13.248   7.318   5.247  0.0675 -0.1541 -0.1918
19427W        W35561   1.242   6.451   0.082 -0.0178  0.1739 -0.1804
19428W        W35562  14.513   9.787   2.245  0.0511  0.0782 -0.2554
19429W        W35563   4.790  14.954   1.606  0.1411  0.0481  0.2725
19430W        W35564  18.758   1.784   3.868  0.1195 -0.0381 -0.0508
19431W        W35565   4.758  14.613  11.695 -0.1404  0.1671  0.2001
19432W        W35566  12.222   9.589   3.302  0.1148  0.2405 -0.0042
19433W        W35567   1.475   8.708  15.066 -0.1648 -0.0699  0.3829
19434W        W35568   4.317   7.609   4.810 -0.0545  0.3263  0.1442
19435W        W35569  10.161   6.262   2.910 -0.1693  0.2497 -0.2131
19436W        W35570   0.934   3.401  13.741 -0.0516  0.1315  0.3347
19437W        W35571   9.095  15.599   0.584 -0.1764 -0.1850  0.2168
19438W        W35572  12.867  18.074   5.096 -0.1722  0.1774 -0.1667
19439W        W35573   7.329   9.909  14.374  0.1211 -0.0721 -0.1922
19440W        W35574  15.436   9.610   4.787 -0.1332 -0.2471 -0.0447
19441W        W35575   2.546   1.350   2.697 -0.0048  0.1833 -0.1308
19442W        W35576  18.889   2.102   0.287 -0.0741 -0.0877 -0.2406
19443W        W35577  18.783   6.235  12.964 -0.0807  0.2094 -0.0053
19444W        W35578   8.148   2.373   0.612  0.1154  0.0083  0.2781
19445W        W35579   9.572  15.127  11.974 -0.0838  0.0530  0.0804
19446W        W35580   6.147   2.819  14.796  0.0109 -0.2238  0.1067
19447W        W35581  11.774  17.654  13.240  0.1949 -0.0062  0.0218
19448W        W35582  14.012  13.102  14.726 -0.0303 -0.2466  0.0448
19449W        W35583  16.255   8.579   9.791 -0.2458  0.0797 -0.2385
19450W        W35584  13.548   4.900   3.099 -0.0334  0.1757 -0.0553
19451W        W35585   2.260  16.584  13.233 -0.0737 -0.2778 -0.3097
19452W        W35586  16.329   2.045  14.289 -0.2217  0.1022 -0.3290
19453W        W35587   5.252   3.023   2.605 -0.0782 -0.5001  0.1250
19454W        W35588   9.377   2.216   0.194 -0.2229  0.0685 -0.1223
19455W        W35589   1.968  17.512  12.571  0.1235 -0.1193 -0.0958
19456W        W35590  18.145  10.993   0.920 -0.1522 -0.0180  0.2516
19457W        W35591  10.543  18.532  13.443 -0.2476  0.1964  0.1781
19458W        W35592  12.521   5.763   0.250  0.1190 -0.1432  0.0568
19459W        W35593  12.705   9.827   3.300  0.0746  0.0275 -0.0742
19460W        W35594   2.807   7.815   3.371  0.2490  0.1225 -0.0549
19461W        W35595  14.939  10.797   3.833  0.1540  0.1875 -0.0698
19462W        W35596  11.352  12.019  11.600 -0.3257 -0.2214  0.0559
19463W        W35597  18.344   9.604   3.756 -0.0843 -0.0394  0.1531
19464W        W35598  15.306  10.075  14.421 -0.2980 -0.1741 -0.3161
19465W        W35599  10.348   8.997   1.164  0.3719 -0.2221 -0.0322
19466W        W35600  16.990   4.815  11.449  0.2882  0.1219 -0.2092
19467W        W35601   7.673  10.474   1.859 -0.0938 -0.0963 -0.0639
19468W        W35602   4.838   1.562  11.261 -0.3267  0.1082 -0.1566
19469W        W35603  13.697   4.613   4.849  0.0918  0.0520 -0.4352
19470W        W35604   2.760   8.828   4.648  0.0357 -0.2275  0.0429
19471W        W35605  16.070   4.172   4.800  0.0812 -0.2149 -0.2052
19472W        W35606  12.499   4.831   3.115 -0.0057 -0.2181  0.0090
19473W        W35607  12.478   4.605   5.386  0.1247 -0.0240  0.0124
19474W        W35608  11.525   0.592  12.902  0.1793  0.1213 -0.1728
19475W        W35609   3.293  15.298  11.922 -0.2754 -0.3811 -0.0261
19476W        W35610   2.564   0.997   1.558  0.1101  0.0615  0.0363
19477W        W35611  10.775   8.349   3.340  0.0405  0.1345  0.4524
19478W        W35612  17.670   7.784  14.031 -0.1466 -0.1088  0.2420
19479W        W35613  18.091  15.386  13.531  0.0616 -0.3343  0.0447
19480W        W35614   9.242   4.703   3.810 -0.3037 -0.1507 -0.1808
19481W        W35615   0.119   5.261  10.635  0.1083  0.0472  0.2503
19482W        W35616   4.422   4.841  12.219  0.1322 -0.2056 -0.1334
19483W        W35617  10.091   4.491   4.269  0.1385  0.1159 -0.0118
19484W        W35618   7.359  16.497   2.635 -0.1406  0.3329 -0.2284
19485W        W35619  14.076   7.377  11.079 -0.0551 -0.2152  0.1569
19486W        W35620  10.813   7.556  11.856 -0.3156  0.2871 -0.1284
19487W        W35621  10.835   1.657  12.348 -0.1771  0.2796  0.1420
19488W        W35622   4.926  10.512   3.840 -0.0624  0.2059  0.0164
19489W        W35623  15.056   6.419   5.084  0.0552 -0.1341 -0.0173
19490W        W35624  15.947  13.973   5.460 -0.1786 -0.0962  0.3031
19491W        W35625  11.799   8.145  12.734 -0.0133  0.1630  0.0462
19492W        W35626  17.774  10.866   1.203  0.0147 -0.2990  0.2940
19493W        W35627   9.271   1.503   0.915 -0.0598 -0.2606  0.0338
19494W        W35628   0.652  10.738   3.361  0.2547  0.1536  0.0865
19495W        W35629   2.731  13.067   3.444  0.2201  0.0004  0.2036
19496W        W35630  18.408  12.755   5.018  0.2731  0.2031 -0.2047
19497W        W35631  13.803  15.499  11.570 -0.0328  0.2461  0.0787
19498W        W35632  16.723   2.693   5.431 -0.3532 -0.4029 -0.0306
19499W        W35633   6.030   2.602  12.760 -0.0311 -0.1087  0.0995
19500W        W35634   5.060  15.167   0.001  0.1349  0.0627  0.0534
19501W        W35635   5.006  13.749   1.169  0.0609  0.2614 -0.3476
19502W        W35636  10.550   7.453   4.137 -0.2941  0.0743  0.2449
19503W        W35637   6.235   1.062  13.397 -0.2491  0.0133 -0.0970
19504W        W35638  16.572   1.668  11.028  0.0458 -0.2349 -0.2460
19505W        W35639  17.439   1.152   3.771 -0.2059 -0.0669  0.2083
19506W        W35640  18.537   9.700  14.233  0.1552  0.0640 -0.0422
19507W        W35641  11.187   6.214  12.822  0.1469  0.1576  0.0420
19508W        W35642   1.500  11.903  11.986  0.2606  0.1050 -0.1313
19509W        W35643   8.886  10.107   0.184  0.4301 -0.1011  0.1502
19510W        W35644   2.338   9.239  13.608  0.1039  0.1253  0.0780
19511W        W35645  14.198  14.483   1.785 -0.0852 -0.1830 -0.0241
19512W        W35646  16.615   5.130  14.407  0.0242  0.0219  0.3081
19513W        W35647   4.851  11.651   2.679 -0.1112  0.0307 -0.0269
19514W        W35648  13.131  17.009  12.635 -0.1125  0.1943 -0.0803
19515W        W35649   5.873  18.183   2.677 -0.0843  0.3105  0.1803
19516W        W35650   5.608  16.044   1.669 -0.4840  0.0327 -0.1710
19517W        W35651   5.104   0.902   0.893  0.0772  0.0194  0.2074
19518W        W35652  16.472   1.331  14.897  0.0301 -0.0300 -0.2091
19519W        W35653  17.601  13.248  14.237 -0.0169  0.0353  0.1048
19520W        W35654  14.573  12.556   4.572 -0.1332  0.0475 -0.1812
19521W        W35655  17.731  13.656  10.662 -0.1772 -0.0604 -0.0812
19522W        W35656  13.924  15.687  13.340 -0.0662 -0.0210 -0.0481
19523W        W35657  15.529  13.769  14.867  0.2700  0.1202  0.2258
19524W        W35658  10.336   1.468  11.709  0.2392 -0.1222 -0.0827
19525W        W35659   0.519   7.995  11.227 -0.1657  0.1507 -0.0591
19526W        W35660   5.045   5.212   3.868  0.1606 -0.2669 -0.2698
19527W        W35661  14.511  11.621   1.303 -0.0508 -0.1020  0.1686
19528W        W35662   6.675   6.753   3.513  0.2567  0.0912 -0.2079
19529W        W35663   9.183  17.501   3.636  0.0201  0.0520 -0.1993
19530W        W35664   3.163   5.593  12.853 -0.1708  0.1393 -0.0871
19531W        W35665  13.467   6.507  11.860 -0.1262 -0.0905 -0.1175
19532W        W35666  17.308   2.525   5.137  0.3010 -0.2602  0.0842
19533W        W35667  14.132  12.150  14.646  0.0365  0.0910 -0.1795
19534W        W35668   6.652  10.497  13.516 -0.0409 -0.3761 -0.3669
19535W        W35669   2.312   7.487  15.073  0.3089  0.2745  0.1988
19536W        W35670  10.487  10.868   0.716 -0.0332 -0.1265  0.1674
19537W        W35671   7.577   8.096   4.641 -0.1081  0.2045  0.0277
19538W        W35672   9.922   1.690  11.917  0.1941  0.1531  0.0721
19539W        W35673  10.682   9.563  14.168 -0.5097 -0.1671 -0.4290
19540W        W35674   7.000   3.949  10.962  0.0802 -0.3733  0.0746
19541W        W35675   2.005  17.127   1.542 -0.0278 -0.1797 -0.0880
19542W        W35676   3.992   3.128  10.708  0.0066 -0.0246 -0.0213
19543W        W35677  11.447   2.812  13.573 -0.1296  0.1113  0.1683
19544W        W35678  15.926  12.230  13.576 -0.1423 -0.0366  0.0881
19545W        W35679   9.335   8.168  10.844  0.0213 -0.2402  0.4537
19546W        W35680  14.948  11.912  11.952  0.0971 -0.1943  0.0521
19547W        W35681  14.185  18.508   0.491 -0.1851 -0.2825  0.0690
19548W        W35682  13.134  13.663  13.278  0.2666  0.1794 -0.2648
19549W        W35683   5.316  11.995  12.061  0.1441 -0.0837 -0.0252
19550W        W35684   0.862   0.197  13.198 -0.0380  0.0603 -0.0999
19551W        W35685   8.648   2.518   1.048 -0.1016 -0.2799 -0.3720
19552W        W35686   7.164  10.601   3.483  0.4222  0.0930 -0.1878
19553W        W35687  13.965  11.423   1.858  0.1038  0.0134 -0.1361
19554W        W35688   4.315   5.639  13.217  0.0178  0.2016 -0.0545
19555W        W35689   8.795   7.720  13.101  0.0629 -0.0842 -0.2669
19556W        W35690   4.913   5.599  12.244  0.3758 -0.1668  0.0386
19557W        W35691   5.379  13.199   1.467  0.2728 -0.2056  0.2194
19558W        W35692  15.315   5.335  14.132 -0.0569 -0.0793 -0.2819
19559W        W35693   3.363   0.866   0.895 -0.0355 -0.0274  0.2962
19560W        W35694  15.084  16.361  13.879 -0.0588 -0.0190  0.1658
19561W        W35695   6.647  17.172   5.062 -0.2725  0.1397 -0.2114
19562W        W35696   2.267   1.166   1.207  0.0937  0.1236  0.0096
19563W        W35697  18.515   3.337   2.754 -0.0239 -0.0428 -0.2295
19564W        W35698  14.146   7.957   4.905 -0.2006  0.0965 -0.3179
19565W        W35699   4.241   3.135  13.870 -0.2040 -0.0151  0.2318
19566W        W35700   0.123   4.649   2.335  0.2271 -0.1748  0.0596
19567W        W35701   8.366   3.612  14.126 -0.0945 -0.1797  0.4047
19568W        W35702   2.270   6.422   2.496  0.0015 -0.0299 -0.3164
19569W        W35703  12.563   9.565  12.136  0.0362  0.1838 -0.2076
19570W        W35704  17.388  11.655  11.310  0.1107 -0.0788 -0.1513
19571W        W35705  14.080   6.274  10.563  0.1566 -0.2258 -0.2231
19572W        W35706  10.799   8.994   4.183 -0.2901 -0.2256 -0.0007
19573W        W35707  12.509   1.637   3.153  0.1964 -0.4113  0.3352
19574W        W35708  11.230   4.065  10.808  0.2531  0.0151  0.1267
19575W        W35709   5.923   2.492   5.356 -0.2086  0.1445  0.0566
19576W        W35710  13.413   6.576  13.384  0.0656  0.0073 -0.1109
19577W        W35711   7.773   8.654  15.026  0.0548 -0.0736  0.2150
19578W        W35712  17.277   2.707  11.294 -0.0610 -0.0593  0.0299
19579W        W35713  17.025  10.098   2.100 -0.1848  0.1651 -0.0139
19580W        W35714  11.286   4.659  10.447  0.3144 -0.0380 -0.1024
19581W        W35715   8.956   3.219  11.062 -0.1150 -0.1629  0.0291
19582W        W35716  10.432  10.235  13.581  0.0603 -0.1307  0.1615
19583W        W35717   7.089   6.226   2.034 -0.0326  0.0128  0.0142
19584W        W35718   3.648  16.018   2.531 -0.0823 -0.0717 -0.1066
19585W        W35719  11.350  12.992  12.621 -0.0149  0.2432  0.0688
19586W        W35720   5.826   1.953   1.647 -0.1679  0.1330  0.0956
19587W        W35721   8.690   6.943  11.168  0.2783  0.2824  0.0081
19588W        W35722   4.476  17.606   1.003  0.4698  0.1937  0.0335
19589W        W35723   6.851   9.222   2.192 -0.0659 -0.1917 -0.1249
19590W        W35724   3.359   3.628   0.102  0.0806  0.1426  0.0072
19591W        W35725   0.728  14.033   1.105  0.0104  0.2014  0.4058
19592W        W35726  12.078  14.858   2.388  0.0509  0.0155  0.3640
19593W        W35727  10.229   6.017  12.588  0.0521  0.2033 -0.0321
19594W        W35728   7.237   9.863   0.932  0.0949  0.3041 -0.0689
19595W        W35729   7.134  14.964   0.939 -0.1931 -0.0056 -0.0249
19596W        W35730  10.504   4.640  14.332 -0.3850 -0.0251 -0.0274
19597W        W35731  17.676   9.764  15.221  0.0277 -0.2153 -0.1179
19598W        W35732  16.966  16.550   1.247 -0.1758  0.0871  0.0149
19599W        W35733  17.696  12.014   0.112 -0.1338 -0.1377 -0.2478
19600W        W35734  13.000   6.269  10.535  0.0391  0.1395 -0.1860
19601W        W35735  15.385   4.468   4.379  0.0222  0.4157  0.3620
19602W        W35736   2.749   6.734  13.705 -0.1664 -0.0757  0.3537
19603W        W35737  12.920  16.510   0.630 -0.2991  0.1724 -0.0629
19604W        W35738  18.018  17.427  12.129  0.1401 -0.0055 -0.1113
19605W        W35739   6.538  13.877   4.835  0.0429 -0.1451  0.0302
19606W        W35740   3.179   8.382  11.958 -0.1226  0.1201 -0.1054
19607W        W35741   0.071   4.859  12.309 -0.4550 -0.0232 -0.0721
19608W        W35742   5.414   5.953   0.824 -0.2743 -0.1764 -0.0704
19609W        W35743   8.690   0.123   0.350 -0.1737  0.1176  0.1414
19610W        W35744  14.505  12.378  14.358 -0.3105 -0.0555  0.3474
19611W        W35745   1.284  15.626  12.749  0.0320  0.2372 -0.1916
19612W        W35746   6.868  16.897  15.245 -0.1063  0.0618 -0.2648
19613W        W35747   4.586   2.954   0.800  0.0092  0.0610 -0.0293
19614W        W35748   5.540  15.439   2.249  0.1129  0.0133 -0.3716
19615W        W35749  17.447  16.038   4.613 -0.0721  0.3165  0.2665
19616W        W35750   9.502   5.902   4.553  0.1429 -0.1594 -0.3494
19617W        W35751   7.961  12.249  10.881  0.0065 -0.0612  0.1077
19618W        W35752   9.460  12.107  10.879  0.3917  0.0459  0.1652
19619W        W35753   2.094   1.670   1.238 -0.0269 -0.0035 -0.1994
19620W        W35754   9.601   0.789  11.445 -0.2414  0.1376 -0.1309
19621W        W35755  10.561  11.442  11.350  0.5473  0.1608  0.1782
19622W        W35756   1.579   0.599   3.604 -0.1037  0.2791 -0.2384
19623W        W35757  13.641   3.667   1.640 -0.0355  0.2579 -0.0382
19624W        W35758   9.796  13.220   0.256 -0.3594 -0.3765  0.1067
19625W        W35759   7.196   4.297  14.607  0.0981  0.1406  0.3564
19626W        W35760  10.239  16.936  15.202  0.0052  0.2300 -0.1700
19627W        W35761  16.095   2.067   4.693  0.3023  0.0959 -0.0285
19628W        W35762  12.461  12.631   0.958 -0.1831 -0.0251 -0.2577
19629W        W35763  13.245   3.932   3.402 -0.3504 -0.1524 -0.3521
19630W        W35764   2.541  16.571   0.015 -0.2353  0.1957 -0.2047
19631W        W35765  11.310  11.791  11.159  0.1875  0.2409 -0.0384
19632W        W35766   7.593   4.335   0.222  0.4777 -0.2382 -0.1475
19633W        W35767   3.435  18.751   1.527 -0.1704 -0.0444 -0.1414
19634W        W35768  12.689  13.421   5.099  0.0082  0.0391  0.0158
19635W        W35769   2.677   8.225   3.137  0.0835 -0.2563  0.0570
19636W        W35770   7.004  11.206   1.021  0.1949  0.3157 -0.1883
19637W        W35771  10.466  12.200  13.059 -0.3235  0.0633 -0.1177
19638W        W35772  13.778   4.032   1.916 -0.4026 -0.1386 -0.0874
19639W        W35773  15.515   5.671  14.889  0.3502  0.1988 -0.2272
19640W        W35774  17.777   7.567  14.943 -0.0287 -0.2241 -0.0563
19641W        W35775  10.448  11.258   3.262 -0.0614  0.1341  0.0556
19642W        W35776   6.489  16.581   0.238 -0.0719 -0.1912  0.1639
19643W        W35777   9.580  18.922   1.796  0.1067 -0.0840  0.1662
19644W        W35778  11.884   3.093  14.927 -0.3000  0.0572 -0.2993
19645W        W35779   5.389  14.955  11.653 -0.0799 -0.3684  0.4433
19646W        W35780  18.582   5.220  12.987  0.1891  0.1050  0.1164
19647W        W35781  11.318  18.447  15.105  0.0187 -0.2535  0.3044
19648W        W35782  15.054   7.064  15.255  0.1701  0.0226  0.2135
19649W        W35783   4.139   6.552  10.437 -0.0134  0.3667 -0.2398
19650W        W35784  11.343   4.324   0.176  0.1166  0.2432  0.0369
19651W        W35785   4.717   5.312  11.805  0.1894  0.2674  0.0851
19652W        W35786   5.329  12.756   0.207 -0.0768  0.1550 -0.0822
19653W        W35787   7.575   5.888   3.549 -0.0275 -0.4100  0.1904
19654W        W35788  16.748   7.315  11.263  0.2509 -0.3133 -0.0986
19655W        W35789  10.820  17.517  14.040 -0.2867  0.0441  0.2903
19656W        W35790   5.098   3.839   2.884  0.1125 -0.1110  0.0579
19657W        W35791  10.860  18.210   5.573 -0.2545  0.0519  0.1487
19658W        W35792  12.177   9.632  13.507 -0.0713 -0.3651  0.4123
19659W        W35793   3.650   1.711  15.045  0.2227 -0.0398  0.0125
19660W        W35794   4.465   0.138  13.147 -0.1844  0.1223  0.1249
19661W        W35795   5.700  18.577   1.035 -0.2454 -0.0296  0.2602
19662W        W35796   4.061   1.167   3.109 -0.0083 -0.0922  0.0184
19663W        W35797  17.874   9.517   3.945  0.0155  0.2148 -0.1186
19664W        W35798  10.952   7.820   3.479  0.0852 -0.5216  0.0469
19665W        W35799   3.829  14.970   1.970 -0.0854 -0.0144 -0.1979
19666W        W35800  10.099   7.314   1.512 -0.0044 -0.0122  0.2182
19667W        W35801  18.821   0.399  11.641  0.2171  0.0481  0.3080
19668W        W35802   9.493  12.359  15.093  0.2215 -0.2454 -0.2815
19669W        W35803   2.261  18.265   0.916  0.1784 -0.0482 -0.4077
19670W        W35804   2.525   4.102   2.356 -0.2334 -0.0119  0.1379
19671W        W35805  15.626   1.978   5.253  0.0333 -0.0410  0.4325
19672W        W35806   1.703  10.223   0.422 -0.2741 -0.1527  0.2318
19673W        W35807  11.314   4.069   3.026 -0.0319  0.0243  0.0176
19674W        W35808  18.988   3.447   3.720 -0.0591 -0.0306 -0.2606
19675W        W35809  13.157  11.485  14.586  0.2821  0.0601  0.0850
19676W        W35810  12.504  16.982  14.883  0.1194  0.0422  0.3315
19677W        W35811  14.601   8.956  11.956 -0.2525  0.1733  0.2364
19678W        W35812   6.823   1.615   4.101  0.0380 -0.0455 -0.0514
19679W        W35813   7.275   5.153   4.531  0.0823 -0.0628  0.0327
19680W        W35814  16.636  13.095   5.232 -0.0484  0.0696  0.1219
19681W        W35815  16.659   2.549  11.111 -0.0641  0.0646  0.2578
19682W        W35816   2.979   1.900   1.501 -0.0861  0.0768 -0.0167
19683W        W35817   3.161   5.136  14.326  0.0910  0.1017  0.3349
19684W        W35818  10.398  15.403   3.387 -0.2153 -0.3263 -0.1106
19685W        W35819  14.012  12.792  13.958  0.0872 -0.3883  0.1863
19686W        W35820  13.106   5.335  10.835  0.0304  0.4634  0.1205
19687W        W35821   5.045   5.190   0.317 -0.1842  0.0971 -0.0560
19688W        W35822  12.360  10.534  13.180  0.2429 -0.2021  0.1973
19689W        W35823  13.658  10.209   1.743  0.1325  0.0001  0.0820
19690W        W35824  11.673   3.639  11.772 -0.2367  0.0312 -0.2287
19691W        W35825   3.115  10.338  14.709  0.3262  0.0008 -0.2931
19692W        W35826   3.842  11.472   5.601 -0.0680 -0.0787  0.2153
19693W        W35827   2.184  11.137   4.128 -0.1123 -0.1005 -0.1714
19694W        W35828  11.718  13.685   1.185  0.1030 -0.0578  0.0303
19695W        W35829   1.855  15.072  15.249 -0.0038  0.0544 -0.2142
19696W        W35830   2.540  10.454  13.709  0.0411 -0.1132  0.2391
19697W        W35831   4.187  10.966  13.777 -0.2660 -0.1691  0.0482
19698W        W35832   3.884  18.653  14.746  0.1153  0.0472 -0.1138
19699W        W35833  10.958  13.781   1.326  0.2283  0.1269  0.0929
19700W        W35834   6.518   1.988   4.207  0.3173 -0.0197  0.0094
19701W        W35835  13.646   9.656   0.243  0.0177 -0.1225 -0.2368
19702W        W35836  11.230  18.457   1.482 -0.3660 -0.4333  0.2749
19703W        W35837   8.668  11.401   4.062 -0.0290  0.0674 -0.1338
19704W        W35838   0.353   8.253   4.581 -0.2004  0.1312  0.1516
19705W        W35839   8.499   2.552  14.370 -0.0071  0.0387 -0.0128
19706W        W35840   6.403  11.384   0.316 -0.0324 -0.2791  0.0270
19707W        W35841  18.128   3.646   3.948 -0.1390 -0.0287  0.1588
19708W        W35842   1.704   0.722  14.709 -0.1288  0.1628  0.0027
19709W        W35843   1.304   0.195   0.609 -0.3426 -0.1189 -0.3514
19710W        W35844   3.376   2.033  14.718  0.3402 -0.0574 -0.0238
19711W        W35845   0.467   4.340  13.544 -0.0803 -0.0576  0.1173
19712W        W35846  11.296  11.658  14.059 -0.0694  0.0657  0.1105
19713W        W35847  17.059  15.728  13.920 -0.1574 -0.0374  0.0780
19714W        W35848  11.759  14.137   2.745  0.4465  0.0234  0.3059
19715W        W35849   3.280   6.893  14.721 -0.1269 -0.4330  0.0265
19716W        W35850  18.514   0.314   0.344 -0.2469 -0.0161 -0.2117
19717W        W35851  18.059  10.814   4.222 -0.0194  0.0898  0.0451
19718W        W35852  14.821  18.738   2.220  0.2240  0.0319  0.0236
19719W        W35853  17.896   0.169  14.550  0.2409  0.2368  0.0169
19720W        W35854  14.545   0.118  14.222 -0.0463  0.0768  0.1559
19721W        W35855   8.989   5.639   4.092  0.0811 -0.2864  0.4611
19722W        W35856   0.497  14.828   5.235 -0.0131 -0.1645 -0.1019
19723W        W35857  12.322   0.883   1.369  0.0342 -0.2439  0.0788
19724W        W35858   9.137   6.188   4.428  0.0407  0.0170 -0.2405
19725W        W35859   6.451  14.557  11.631 -0.2051 -0.1843 -0.2747
19726W        W35860  10.229   2.662   3.398  0.0720 -0.0361 -0.0788
19727W        W35861  14.963  16.311   3.816  0.0839  0.3004 -0.0817
19728W        W35862  14.639   7.359  12.312  0.0775  0.0451  0.2091
19729W        W35863   0.709  16.426   3.102 -0.5043  0.0099 -0.0760
19730W        W35864   7.998  16.619   0.025 -0.1414  0.3057  0.1444
19731W        W35865   6.288  16.695  13.583 -0.4848 -0.1002 -0.1829
19732W        W35866   2.739   1.173  13.752  0.0847  0.0678 -0.0228
19733W        W35867  16.204  15.610   2.180  0.1219 -0.0772  0.1828
19734W        W35868   7.587  15.748   2.871 -0.0020  0.0152  0.1096
19735W        W35869   4.891  18.156  12.967  0.0019 -0.0679  0.0767
19736W        W35870  14.038   0.507   5.072 -0.2674  0.0072  0.0462
19737W        W35871   5.705   3.052   4.462  0.1645 -0.1568  0.0067
19738W        W35872  12.656   9.527   2.342 -0.5037  0.1280 -0.0193
19739W        W35873  15.730   1.374  13.632  0.0870  0.1155  0.2716
19740W        W35874   2.686   1.090  11.599  0.1524  0.0653 -0.3281
19741W        W35875   5.884  18.630  12.854  0.0840  0.1644  0.1973
19742W        W35876  17.988  13.783   0.838 -0.2489  0.0291  0.0870
19743W        W35877  10.889   6.642   1.805  0.0589 -0.0274 -0.0391
19744W        W35878  14.830   0.127  11.903  0.1202 -0.1112 -0.2183
19745W        W35879  17.589   7.751   5.511 -0.1720  0.2090 -0.1677
19746W        W35880   5.558  13.527  12.101  0.0183  0.2676  0.2014
19747W        W35881   3.782  16.729  10.401 -0.1944  0.2118 -0.3214
19748W        W35882  12.397  18.706   1.432 -0.0137  0.0180  0.1329
19749W        W35883   3.402  12.839  11.802  0.0768  0.4401 -0.2059
19750W        W35884  11.219   4.131   3.712 -0.0349  0.2406 -0.1863
19751W        W35885  14.658  18.580  12.021  0.2668 -0.0601  0.1725
19752W        W35886  14.380  15.411  14.464 -0.1755 -0.1244  0.0287
19753W        W35887  12.208   6.242   4.083 -0.0285 -0.0710  0.0383
19754W        W35888   6.873   7.800   3.408  0.1995  0.1907  0.0712
19755W        W35889  10.738   8.087  14.197 -0.0543  0.1909  0.2513
19756W        W35890   2.984   6.848   1.868 -0.0124 -0.2163  0.4940
19757W        W35891   1.417   6.509   2.169  0.0806  0.2797  0.2124
19758W        W35892   8.974  14.459   4.962  0.2661 -0.3227  0.2947
19759W        W35893  18.473   3.687   3.600 -0.0132  0.2118 -0.0055
19760W        W35894  15.813  18.882  11.640  0.0763 -0.0913  0.1231
19761W        W35895  16.926  12.423  12.851  0.2353  0.1633 -0.2571
19762W        W35896   9.190  10.574  10.290 -0.1237 -0.0687 -0.1657
19763W        W35897  14.126  17.800   1.358 -0.3624  0.0048 -0.1500
19764W        W35898  17.680   7.891   0.862 -0.2888 -0.1000  0.5350
19765W        W35899   7.366   9.732  13.080 -0.2080 -0.1856 -0.3353
19766W        W35900  10.992   6.804  11.722  0.1830  0.1048 -0.2278
19767W        W35901  16.113  14.657   3.786 -0.0398  0.0109 -0.1409
19768W        W35902   8.349   7.564   1.149  0.0262 -0.0766 -0.1059
19769W        W35903   5.283  18.927   0.180  0.1991 -0.3688  0.0802
19770W        W35904   6.694  18.976  13.259 -0.2253 -0.2067 -0.1136
19771W        W35905  15.341   8.087  12.445  0.1118 -0.1283  0.0877
19772W        W35906   9.489   6.674  13.636 -0.1320 -0.1664 -0.1053
19773W        W35907  16.970   7.948  12.463 -0.0341 -0.1460 -0.1661
19774W        W35908   1.229   6.311  13.592 -0.2964 -0.0165 -0.0772
19775W        W35909   8.349   7.269  10.343 -0.2574  0.1170  0.0696
19776W        W35910   6.924   0.928  12.286  0.0470 -0.0614 -0.3147
19777W        W35911   7.851   4.957  10.838  0.3206 -0.0068 -0.1483
19778W        W35912  13.878  12.954  10.714  0.2492 -0.2840  0.1072
19779W        W35913  12.057   8.002   4.987 -0.1365 -0.1756 -0.1786
19780W        W35914  12.674   8.542  13.018  0.0235  0.2079 -0.1118
19781W        W35915  12.071   3.520   3.944  0.1412 -0.0204  0.2779
19782W        W35916  11.342  14.119  13.989  0.1450  0.3719 -0.3410
19783W        W35917   3.873   5.157   4.781  0.0363 -0.0237  0.2840
19784W        W35918   7.825  15.245   0.471 -0.0763 -0.1994 -0.0493
19785W        W35919  16.048  16.921   0.736 -0.0234  0.2073 -0.1352
19786W        W35920   0.746  18.793   4.512  0.1362  0.1466  0.3440
19787W        W35921  13.649  14.417   0.856 -0.2508 -0.1845 -0.0210
19788W        W35922   4.031   7.384   3.890 -0.1722  0.0486  0.1715
19789W        W35923  17.885  18.242   4.632 -0.0750 -0.4116  0.1931
19790W        W35924   1.683  10.299   4.500 -0.1412  0.1645 -0.1690
19791W        W35925  18.066   7.243  12.447 -0.0651  0.0052 -0.0535
19792W        W35926   5.662   2.306   3.956  0.0295  0.3200  0.0532
19793W        W35927  13.371   8.207  12.129  0.0022  0.2274 -0.1233
19794W        W35928   0.282  16.046   4.709  0.3515 -0.3091 -0.2504
19795W        W35929  14.795  16.109   2.248 -0.0569  0.0758  0.0047
19796W        W35930   7.762   1.914  10.521 -0.2062  0.1622  0.0637
19797W        W35931  10.915  16.970  11.999 -0.0907  0.0955 -0.0374
19798W        W35932   8.460   0.516   0.128 -0.0027  0.1902 -0.2040
19799W        W35933  11.553   3.172   1.513 -0.0887  0.3963 -0.0629
19800W        W35934  18.469  18.147  12.625 -0.1993  0.0363  0.3797
19801W        W35935   1.458   1.889   3.971  0.1561  0.0402 -0.1253
19802W        W35936   4.000  17.940   1.051 -0.0491 -0.0831  0.1165
19803W        W35937   4.710  18.797   4.122 -0.1238  0.0021  0.2940
19804W        W35938   1.019   3.833   2.194 -0.3283 -0.0315 -0.1331
19805W        W35939  11.495  12.532  12.823 -0.1114 -0.1691  0.0371
19806W        W35940  12.098  17.110  15.151  0.0809  0.3082 -0.2348
19807W        W35941   9.601   7.340   4.029  0.0151 -0.0320 -0.0701
19808W        W35942   8.023   4.643  13.602  0.1208 -0.1686  0.3376
19809W        W35943  12.047  17.364   1.745 -0.3685  0.0273 -0.1757
19810W        W35944  18.641   0.344   5.714  0.1499 -0.2150 -0.0299
19811W        W35945   2.812   5.573   3.694 -0.1442 -0.2912 -0.0640
19812W        W35946  15.912   3.906   0.176 -0.2634 -0.1425  0.2365
19813W        W35947   3.086  16.405   3.207  0.0560 -0.1689 -0.0712
19814W        W35948  11.132  15.340  14.311 -0.0156 -0.1341  0.0076
19815W        W35949  15.867   5.657   4.411 -0.0342  0.1048  0.3002
19816W        W35950   3.919  17.349  12.262  0.0363  0.0764 -0.2292
19817W        W35951  10.663  11.490   0.728  0.0356  0.1293 -0.1982
19818W        W35952  12.520   6.339  10.625  0.1404  0.1930  0.1853
19819W        W35953  16.847   6.529  12.399 -0.0726  0.1129 -0.1238
19820W        W35954  17.986   9.410  13.340 -0.2405  0.1940  0.1631
19821W        W35955  13.943   5.033   3.999 -0.0272 -0.4035  0.0591
19822W        W35956  12.718  11.198   3.250  0.0086 -0.1454  0.2444
19823W        W35957   4.626   5.063   0.177  0.1405 -0.1769 -0.1025
19824W        W35958   5.531   6.131  11.026  0.1310 -0.0524  0.1048
19825W        W35959  10.648   6.177   3.538 -0.0730  0.0269  0.2325
19826W        W35960   7.964   8.299  12.807  0.1900  0.0534  0.2585
19827W        W35961  16.042   3.442  11.574  0.3773 -0.0785 -0.0358
19828W        W35962   1.304  18.528  13.782 -0.0446 -0.0119  0.1888
19829W        W35963   4.952  14.183  13.682 -0.0737 -0.2329  0.0670
19830W        W35964  13.161  13.861  12.288  0.3007 -0.2488  0.3584
19831W        W35965   8.541  10.243  14.249  0.2582 -0.0139  0.1281
19832W        W35966  10.587   4.794   4.190 -0.1792 -0.0224 -0.0499
19833W        W35967   3.055   4.185  11.734  0.0555 -0.0015 -0.1466
19834W        W35968  15.857   6.957   1.172  0.2830 -0.0566  0.4318
19835W        W35969   8.877   0.218   3.456  0.1070 -0.2671 -0.1413
19836W        W35970   8.499   1.101  12.738 -0.1330 -0.0107 -0.2143
19837W        W35971   5.465   5.539  10.397  0.1210 -0.2443 -0.3060
19838W        W35972  11.517  11.762   3.129 -0.3185  0.2528  0.0467
19839W        W35973  10.567  12.171   0.326 -0.1811  0.1022  0.1692
19840W        W35974  14.173  16.567   4.151  0.2185 -0.0614 -0.1415
19841W        W35975  16.564  10.744  12.316 -0.0148 -0.0507  0.0240
19842W        W35976   7.695  10.168  13.031  0.0620  0.1158  0.0874
19843W        W35977  16.375   3.187   5.606 -0.0527 -0.1936 -0.1028
19844W        W35978  18.294  17.302  12.711  0.0387 -0.2590  0.0818
19845W        W35979  15.555   1.359   2.929  0.0527 -0.0230 -0.1722
19846W        W35980   8.412   3.165  13.774  0.2850  0.1719 -0.2598
19847W        W35981   4.854   8.696  10.867 -0.2181 -0.1818  0.3720
19848W        W35982  13.210   0.803  13.253  0.2161  0.0691  0.2086
19849W        W35983   9.771  17.413  11.154  0.1401  0.1908 -0.2870
19850W        W35984  17.030   2.020   2.384  0.1079  0.2420  0.2161
19851W        W35985  13.316   7.443   1.464 -0.1394 -0.1239  0.2245
19852W        W35986   2.162  17.132   2.299 -0.0501  0.2453 -0.0718
19853W        W35987   7.885  13.697  12.248  0.1208 -0.0727 -0.1334
19854W        W35988  11.257   5.573   4.377 -0.0645  0.0479  0.1141
19855W        W35989  13.556  18.499  15.230 -0.1711  0.2407 -0.1140
19856W        W35990  10.734   1.745   0.865  0.0576 -0.1553  0.2618
19857W        W35991  10.570   0.454  11.468 -0.2038 -0.2560  0.1753
19858W        W35992  11.404   7.440   0.357 -0.1576  0.2974  0.1850
19859W        W35993   4.969   6.258  13.883  0.1427 -0.0847 -0.0056
19860W        W35994   6.265  12.894  10.647  0.3169 -0.2089  0.1932
19861W        W35995   9.932   9.812   3.117 -0.0804  0.2700  0.0380
19862W        W35996   2.189   6.742  15.253 -0.2096 -0.0341 -0.1446
19863W        W35997  11.027  10.684   4.961 -0.2453 -0.1814 -0.3729
19864W        W35998  11.460   8.045   4.141  0.4314 -0.0550 -0.5893
19865W        W35999   0.800   3.744  11.692  0.0278  0.1952  0.2001
19866W        W36000  12.447  11.617   3.389 -0.1983  0.1703  0.1214
19867W        W36001  13.066   0.454  12.908  0.1483 -0.0108  0.0090
19868W        W36002   1.440   0.135   3.972  0.0895 -0.1702 -0.1149
19869W        W36003  13.629  18.234  12.262  0.0523 -0.4383 -0.1348
19870W        W36004  10.893   7.029   0.975  0.0372  0.2897  0.0393
19871W        W36005   5.939  13.362   4.333 -0.1017  0.1475 -0.3505
19872W        W36006  15.071  10.346   2.562  0.0398 -0.0946  0.2765
19873W        W36007   4.377   9.267   4.445  0.0695  0.0766 -0.0721
19874W        W36008  12.672  14.670   1.916  0.0878 -0.0189 -0.0989
19875W        W36009  16.587  12.920  10.087 -0.4789 -0.0435  0.0791
19876W        W36010  14.510   6.366  12.515 -0.2301 -0.0986  0.3466
19877W        W36011  18.001   3.285   4.399 -0.4402 -0.1684  0.0351
19878W        W36012  12.822  14.355   1.524  0.3961 -0.1322  0.1226
19879W        W36013   1.305   0.299   2.249  0.2720  0.1584 -0.1102
19880W        W36014   3.053  10.151   0.885  0.0897 -0.0960  0.0091
19881W        W36015   5.695  11.284  12.647 -0.0994 -0.4105 -0.0468
19882W        W36016  18.537  13.896  12.737  0.3325  0.3288 -0.0397
19883W        W36017  10.329   7.060   9.313 -0.0038  0.2837  0.0532
19884W        W36018   7.651   0.932   3.576  0.0766  0.0567  0.1518
19885W        W36019   4.336  18.839   3.107 -0.1766 -0.1715  0.1869
19886W        W36020  14.516  16.755   0.504  0.2335 -0.3327 -0.1531
19887W        W36021   5.262  12.208  11.132  0.0716  0.1443  0.0569
19888W        W36022  12.420   2.386   0.174  0.2127  0.1823  0.1163
19889W        W36023   7.664   0.615  14.389 -0.2784 -0.1061  0.2948
19890W        W36024  11.318   6.416   2.829  0.1714  0.1736  0.2674
19891W        W36025  10.014  16.516  11.391 -0.3203 -0.1654  0.0187
19892W        W36026   2.239  13.226   2.451  0.2689 -0.1801  0.3380
19893W        W36027   5.684   3.580   9.934  0.3690 -0.2106  0.2114
19894W        W36028   9.851  17.126   0.623 -0.4047 -0.1369 -0.1371
19895W        W36029  12.073  14.250  15.080 -0.0212 -0.3789  0.1252
19896W        W36030   4.210  15.337   2.369  0.1173 -0.0261  0.1547
19897W        W36031   3.108   6.048  12.595 -0.2015 -0.1924  0.0035
19898W        W36032   1.553   8.362   4.939 -0.2115  0.0819 -0.0559
19899W        W36033  11.230   6.444   0.162  0.1141 -0.0947  0.0123
19900W        W36034   3.253   4.145   1.567 -0.2209  0.0826  0.1137
19901W        W36035  12.977  12.280  10.594 -0.2342 -0.2299  0.1055
19902W        W36036  15.576   2.068  13.588  0.0167  0.1714 -0.1862
19903W        W36037  11.565   7.905  11.272  0.0288 -0.2208 -0.2133
19904W        W36038   7.906   5.780  12.502  0.0224 -0.0943 -0.1343
19905W        W36039   8.922  16.492  13.155 -0.1923 -0.0020  0.2020
19906W        W36040   1.989  11.371   3.446  0.1660  0.0983  0.1797
19907W        W36041  15.130  10.268   0.914  0.2472 -0.4517 -0.0826
19908W        W36042  14.348  12.217  13.579 -0.0983 -0.2233  0.2972
19909W        W36043   0.228  16.841  13.478 -0.1618 -0.2417 -0.2467
19910W        W36044   0.954  10.539  11.125 -0.2944  0.1907  0.1099
19911W        W36045   9.877  16.279   2.309 -0.1000 -0.2514 -0.0793
19912W        W36046   2.457  18.987  13.004  0.0824 -0.1806  0.2281
19913W        W36047   5.751   8.109   4.162 -0.5032 -0.0753 -0.3585
19914W        W36048  15.681   5.731  12.159 -0.3500 -0.2482 -0.3394
19915W        W36049   8.739   8.135  10.900 -0.1763 -0.0901  0.0252
19916W        W36050   6.116   1.000   0.460 -0.0533 -0.3001 -0.0664
19917W        W36051  10.349   3.797   0.968 -0.1033 -0.0017  0.0616
19918W        W36052   3.001   7.351  14.466 -0.0431  0.2103  0.1897
19919W        W36053   4.548  18.021  14.719  0.1370  0.1477 -0.2998
19920W        W36054   0.474   2.633  14.798  0.0049 -0.1031  0.3861
19921W        W36055  11.250  18.982   3.557  0.1009  0.0149  0.3036
19922W        W36056   4.512  10.898  14.950  0.2410 -0.1193  0.0198
19923W        W36057  10.720  12.937   4.821  0.0310 -0.3309 -0.0772
19924W        W36058  11.472   9.587   0.267 -0.2017  0.0901  0.3201
19925W        W36059  16.824   4.715  13.351 -0.3581 -0.1119  0.1617
19926W        W36060   7.381   6.051   3.004 -0.0222 -0.1448  0.0221
19927W        W36061   4.635   4.891  11.393  0.0382  0.1200 -0.1479
19928W        W36062  12.717  12.113   5.246  0.1463  0.0198 -0.0239
19929W        W36063   6.925   9.501  12.917  0.0637  0.1914 -0.0909
19930W        W36064   1.370   4.601   0.042 -0.0344  0.3573  0.0942
19931W        W36065   4.191  14.979   4.076  0.3874  0.0555  0.5549
19932W        W36066  14.047   5.189   3.357 -0.5360 -0.0601  0.0024
19933W        W36067  16.986   3.361   4.117 -0.1496 -0.0811  0.3920
19934W        W36068   9.290  15.305  13.239 -0.2245 -0.0889 -0.4405
19935W        W36069   4.572  12.127   5.367  0.2717 -0.1833  0.2546
19936W        W36070   5.235   5.846  10.723  0.1959 -0.0781 -0.0307
19937W        W36071   6.777  13.665  11.314  0.0533  0.1386  0.1119
19938W        W36072   2.681  12.946   5.766  0.0418  0.1688 -0.0114
19939W        W36073  15.425   3.063   1.386 -0.0541 -0.3471 -0.0420
19940W        W36074   2.099  15.280   3.522  0.0241 -0.1455 -0.0653
19941W        W36075  14.600   8.968   3.625 -0.0191 -0.0880  0.2728
19942W        W36076  15.367  12.816   5.593  0.2026  0.1296 -0.0881
19943W        W36077   6.689  13.830   2.384  0.2140 -0.2461 -0.0338
19944W        W36078  10.105  12.161   1.149 -0.2577 -0.0440  0.1521
19945W        W36079   2.806  12.034   0.924 -0.0182  0.2344  0.2368
19946W        W36080   1.108  14.244   4.690 -0.0328  0.2324  0.1222
19947W        W36081   6.336  18.543  13.134 -0.0468 -0.0509  0.3993
19948W        W36082   3.888   5.873   0.777  0.2443 -0.0059 -0.0440
19949W        W36083  14.525  16.106   4.767  0.2379 -0.1982 -0.0941
19950W        W36084  14.343  15.407   2.179 -0.1466 -0.0576  0.1090
19951W        W36085  15.207  18.859   1.568  0.1763  0.0939 -0.1965
19952W        W36086   9.116  16.289   3.032 -0.1279  0.1665 -0.1661
19953W        W36087  12.297  19.006   1.054  0.0747 -0.1472 -0.1582
19954W        W36088   9.221   8.005  14.622  0.0576  0.1928  0.1793
19955W        W36089   0.908  14.034   2.408 -0.2223 -0.0005  0.1101
19956W        W36090   8.676  14.083  12.128  0.2483  0.3556 -0.0077
19957W        W36091   7.281  10.850   1.735  0.0510 -0.1723 -0.2414
19958W        W36092  11.514  14.174  14.995 -0.0240  0.0883  0.0530
19959W        W36093   4.836   9.655   4.215 -0.1056  0.0592  0.1243
19960W        W36094   0.326   9.837  10.615 -0.0159 -0.0516 -0.1715
19961W        W36095  12.799  10.270   1.471  0.1680 -0.0186 -0.0951
19962W        W36096   8.661   6.886   2.434  0.1295 -0.2722  0.0429
19963W        W36097   9.145  10.044   1.694 -0.2509  0.0632  0.2878
19964W        W36098  10.924   9.946  15.036  0.0565  0.1209  0.1158
19965W        W36099  12.502   7.374   1.419  0.0008  0.0917 -0.2527
19966W        W36100  17.405   7.447  10.757  0.3103  0.2116 -0.1770
19967W        W36101  15.008   8.479   3.032  0.0220 -0.5408  0.1038
19968W        W36102   0.549  14.565   5.735 -0.1722 -0.1626  0.0048
19969W        W36103   5.707   8.734   2.812  0.0018  0.1927 -0.0660
19970W        W36104   5.141  14.596   1.744  0.1352  0.0147 -0.1856
19971W        W36105   3.365   7.878  13.051 -0.0762 -0.1270  0.0582
19972W        W36106   9.007   6.980  12.708 -0.2070 -0.1994  0.1453
19973W        W36107  11.408  14.374   0.563  0.2212  0.1242 -0.0208
19974W        W36108   0.209  12.365   4.807  0.4396  0.1031  0.4526
19975W        W36109  18.692   0.357  14.766  0.0085 -0.0802  0.0712
19976W        W36110   9.885   3.132   9.773  0.0093  0.0150 -0.0234
19977W        W36111   6.359  14.848  14.569 -0.1039  0.3020 -0.0781
19978W        W36112  15.421  11.830  10.532  0.1179  0.1563  0.0038
19979W        W36113  12.830  15.363  12.891 -0.0273 -0.2829  0.0759
19980W        W36114  15.979   6.806  14.884  0.0300  0.0623 -0.2229
19981W        W36115  14.925  15.143   0.487 -0.0362 -0.0025 -0.0770
19982W        W36116  15.388   1.110   1.422  0.0550 -0.4710  0.1259
19983W        W36117  10.040   9.635  12.791 -0.1396  0.0098 -0.1791
19984W        W36118  14.166  17.703  15.186  0.0519 -0.1459 -0.0733
19985W        W36119  13.896  10.560   2.043  0.0940  0.2702 -0.1921
19986W        W36120  12.309   0.821   0.379 -0.4916 -0.0182  0.2302
19987W        W36121  10.381  17.571  13.788  0.0420 -0.0417 -0.0969
19988W        W36122  15.965   1.601   0.971  0.1053  0.5509  0.0491
19989W        W36123  12.153   6.155   5.043 -0.3131  0.2126  0.0848
19990W        W36124  18.404  13.877   4.131  0.0825 -0.2278  0.0995
19991W        W36125  12.793   4.537   0.145 -0.1069 -0.1395  0.0236
19992W        W36126   3.153  15.170   4.026  0.0224  0.1292 -0.0643
19993W        W36127  11.889  11.657   4.577  0.0086  0.0230 -0.1814
19994W        W36128  16.307  18.185  14.740 -0.3669  0.1304 -0.1622
19995W        W36129  16.843   1.779   0.299  0.0022 -0.1035  0.3755
19996W        W36130   9.457   5.202  10.913 -0.0105 -0.0346  0.0400
19997W        W36131  13.400  14.170  11.218  0.0057  0.3140 -0.1669
19998W        W36132   4.547  11.995  11.843  0.2382  0.0938 -0.0577
19999W        W36133   1.313   3.751  10.348  0.2542 -0.0293  0.0095
20000W        W36134   6.104  16.420  11.384 -0.2939  0.1317  0.1128
20001W        W36135  18.154  11.800  13.442  0.1320  0.0558  0.4197
20002W        W36136   8.274   0.957  10.767 -0.3041 -0.2483  0.2057
20003W        W36137   3.287  16.398  11.546 -0.0863 -0.0796 -0.1345
20004W        W36138  10.461   5.065  11.750 -0.0664 -0.2613  0.0513
20005W        W36139  13.511  11.388   4.675 -0.0344 -0.2034 -0.1605
20006W        W36140  10.866  16.844   0.910 -0.1632  0.0296 -0.2448
20007W        W36141  10.375   7.695  12.057  0.2419 -0.1615 -0.2192
20008W        W36142   8.093   4.112  12.054 -0.0045  0.0934 -0.1684
20009W        W36143   4.451  16.671   9.356  0.0589  0.2038 -0.1677
20010W        W36144   5.403  18.389   0.229 -0.0127 -0.2193 -0.3356
20011W        W36145  10.789  17.462  14.591 -0.3332 -0.1660  0.2724
20012W        W36146  18.028   4.257  12.851  0.1373  0.0016 -0.2222
20013W        W36147  11.956   5.176  10.105  0.1087 -0.1385  0.1087
20014W        W36148   8.763  10.952   2.284 -0.1492 -0.2132 -0.0200
20015W        W36149   8.185  13.856  13.507  0.0332 -0.3090  0.1092
20016W        W36150   1.579  12.103  13.609  0.2279 -0.1043 -0.1576
20017W        W36151   0.297  15.331   0.096  0.1361  0.1021 -0.1212
20018W        W36152   1.003  10.688  13.732  0.1104 -0.1726 -0.0834
20019W        W36153   6.691   4.995   0.797  0.0402  0.0898  0.1615
20020W        W36154  16.386  11.991   1.547  0.2362  0.0955  0.2980
20021W        W36155  10.799   8.799  11.058 -0.3688 -0.1694 -0.3756
20022W        W36156   0.027  10.324   2.412  0.1392 -0.0557 -0.0712
20023W        W36157   0.286  14.676   0.097  0.0264  0.1482  0.0013
20024W        W36158   2.130  13.260   1.632 -0.0549  0.1802 -0.0423
20025W        W36159   7.918   0.375  14.734 -0.2709  0.0860 -0.0161
20026W        W36160  12.125   4.463   2.706  0.3066 -0.3086  0.2614
20027W        W36161   3.229   6.356  11.998  0.1721 -0.1808  0.0778
20028W        W36162  10.966  12.935   3.872 -0.2648 -0.0665 -0.1853
20029W        W36163   2.383   5.876  10.820  0.0519  0.0249  0.0302
20030W        W36164   9.350  10.838  13.542  0.2751  0.2051 -0.2404
20031W        W36165   7.685  14.597  14.810  0.0043 -0.1600  0.0694
20032W        W36166   9.907  18.639   4.016 -0.0919 -0.0353 -0.1944
20033W        W36167  12.216  15.611  11.096 -0.2680 -0.0196  0.0412
20034W        W36168  12.495   0.308   3.676 -0.2867 -0.0629  0.0301
20035W        W36169   7.952   3.814   0.168 -0.0595  0.0173  0.3371
20036W        W36170   2.589  12.260  11.776 -0.1860 -0.0056 -0.1279
20037W        W36171   9.826   8.157  10.641  0.5455  0.0024  0.0408
20038W        W36172  18.571  16.947  15.242 -0.0352 -0.0574 -0.1195
20039W        W36173   6.054   8.885  12.717 -0.1247  0.0048  0.0960
20040W        W36174  15.692  13.186   4.884  0.2593  0.0961 -0.0612
20041W        W36175   1.345   3.763  15.197  0.1910 -0.1813 -0.0817
20042W        W36176   1.797  14.784  12.341  0.0698 -0.0188  0.0351
20043W        W36177   8.932  14.277  13.191 -0.3042  0.0762 -0.2245
20044W        W36178   2.675  14.737   2.145  0.2820 -0.1339 -0.1799
20045W        W36179  17.674   8.395   0.775 -0.3063  0.1352 -0.1132
20046W        W36180  12.626   6.618  13.788  0.1201 -0.2438  0.1124
20047W        W36181  18.889   4.119   4.397 -0.0068  0.0202  0.1720
20048W        W36182  16.126  16.779   3.763  0.1820  0.0405  0.2847
20049W        W36183   6.286   1.022   5.274 -0.0600 -0.1445 -0.1059
20050W        W36184  17.313   2.703   0.022 -0.4226 -0.1276 -0.2596
20051W        W36185   3.821  10.432  13.600 -0.0471 -0.2148  0.1620
20052W        W36186   7.700  17.253   3.799 -0.1741 -0.2288 -0.1037
20053W        W36187  10.893  14.201  12.065 -0.1599  0.0985  0.4108
20054W        W36188  16.865  14.376   1.584  0.1074 -0.4242  0.3239
20055W        W36189  16.589  15.162  12.245  0.0839  0.0984 -0.1992
20056W        W36190   0.165  13.631  11.860  0.1970  0.0695 -0.1000
20057W        W36191   1.359   2.803  15.134 -0.0508 -0.1759 -0.2701
20058W        W36192  14.469  16.081  15.070  0.2363  0.0775 -0.3860
20059W        W36193  17.942   6.021   3.687 -0.2961 -0.2864  0.1987
20060W        W36194   3.250  10.418  10.444  0.1652  0.0245 -0.1129
20061W        W36195   7.485  18.182   5.392 -0.0660  0.1127 -0.1586
20062W        W36196   0.792   4.444   5.254 -0.0063 -0.0876 -0.0193
20063W        W36197   7.783  15.265   5.217  0.1173 -0.0507 -0.0915
20064W        W36198   7.696   9.162  10.270 -0.1372  0.0869 -0.0106
20065W        W36199   0.131   3.462  14.995 -0.0562 -0.2823  0.0310
20066W        W36200  17.003   0.027   2.086  0.0382 -0.0889  0.0910
20067W        W36201   8.394  13.511  14.761  0.2081  0.1169  0.0474
20068W        W36202  18.701   7.249  14.172 -0.2026 -0.0793  0.1825
20069W        W36203   5.095   4.772   1.751  0.1543 -0.0548 -0.2222
20070W        W36204  10.636  17.743   4.749 -0.0373 -0.0368 -0.2091
20071W        W36205  14.851   1.227  14.046  0.1502  0.0652  0.2003
20072W        W36206  13.130  18.355  14.967  0.1372 -0.2367  0.3316
20073W        W36207   5.986   0.072   4.293 -0.1700 -0.0940 -0.0249
20074W        W36208   6.066  16.277   0.965 -0.3059 -0.5344  0.2049
20075W        W36209   7.002  11.505  10.170 -0.2517 -0.0002  0.0558
20076W        W36210   3.775  15.477   1.166 -0.1699 -0.2157 -0.1161
20077W        W36211   1.702   1.350   0.384 -0.0753  0.1593  0.0215
20078W        W36212   7.704   2.058  13.540 -0.1138 -0.0670 -0.2126
20079W        W36213  10.177   5.793  11.996 -0.0844 -0.0592 -0.3436
20080W        W36214   5.397  16.906   4.032 -0.1506 -0.0505  0.0151
20081W        W36215  17.176  17.706  12.501 -0.1638  0.0796 -0.0855
20082W        W36216   1.448  13.453   1.979  0.2673 -0.1319  0.2980
20083W        W36217  10.003  16.835  14.274 -0.1502  0.2435  0.1148
20084W        W36218   9.978   7.131   2.502 -0.1692 -0.2080  0.2888
20085W        W36219   1.894  17.539   6.267 -0.0088  0.2609  0.0115
20086W        W36220   2.565   9.824  11.581  0.0400 -0.3478  0.0079
20087W        W36221  13.384   8.862   0.268 -0.2484  0.0876  0.0149
20088W        W36222  10.217  10.527   0.371 -0.2115 -0.1555 -0.0508
20089W        W36223   8.011   6.751   1.127  0.2237  0.1560 -0.0238
20090W        W36224   8.521   2.609  11.161 -0.1136  0.0249  0.2935
20091W        W36225  15.799  17.189   3.718 -0.0645 -0.0244 -0.1861
20092W        W36226   2.217  14.241  14.718 -0.1479  0.1737  0.3225
20093W        W36227   5.499  11.167  14.554 -0.1930 -0.1378  0.2036
20094W        W36228   6.768   5.068   4.139  0.0162  0.0713  0.0873
20095W        W36229  10.997  18.446   0.319  0.2150 -0.0690  0.0359
20096W        W36230   1.439   5.197  13.981 -0.3114 -0.2107 -0.0491
20097W        W36231  16.805  12.150  14.219 -0.3222 -0.2028  0.1763
20098W        W36232  14.304  12.188  10.360  0.0245  0.5118  0.1114
20099W        W36233   3.783  16.940   2.905 -0.0153 -0.2686  0.0939
20100W        W36234  15.823  11.190  11.037  0.3421 -0.0258  0.3368
20101W        W36235  11.098   6.310   3.335  0.0681 -0.0864  0.1852
20102W        W36236   8.665  14.229  12.695 -0.0570  0.1639  0.1945
20103W        W36237   7.699  10.616   1.364  0.0401 -0.0073 -0.0217
20104W        W36238  16.594  12.128   1.095  0.4005 -0.1936 -0.1052
20105W        W36239  18.120   1.255   1.299 -0.2527 -0.3512 -0.0036
20106W        W36240   8.580  13.591  13.750  0.1847  0.0666 -0.3412
20107W        W36241  15.265   4.915  11.820 -0.3116 -0.0695  0.0443
20108W        W36242  11.417   0.749   0.006  0.0012  0.0808  0.0147
20109W        W36243   5.349  12.721   2.016  0.4365  0.3478 -0.0521
20110W        W36244   2.127   3.940  10.619  0.2515 -0.0505  0.1230
20111W        W36245  18.702   1.855   1.810 -0.2510 -0.2168 -0.1081
20112W        W36246  14.747   0.040   3.125 -0.0380  0.0469  0.1421
20113W        W36247  16.443   3.974   0.761 -0.3017 -0.1431 -0.0328
20114W        W36248  13.446   8.938  14.633 -0.1431  0.0297  0.3561
20115W        W36249   2.053   8.271  14.003 -0.3771 -0.0428 -0.0750
20116W        W36250  18.816   9.437  13.827 -0.4168 -0.1455  0.3486
20117W        W36251  17.203  10.563  14.271  0.1246 -0.1370 -0.2302
20118W        W36252  17.511   8.388  13.181  0.2655  0.2124 -0.2738
20119W        W36253   0.794   2.663   3.586 -0.1358 -0.1209 -0.3235
20120W        W36254   7.198   3.923   2.911  0.4496  0.1411 -0.1396
20121W        W36255   4.727   8.992   0.715  0.0382  0.1049 -0.0957
20122W        W36256  17.449   4.631   4.669  0.0749 -0.3863  0.3390
20123W        W36257   4.590  16.120   2.029 -0.1321  0.2300 -0.0515
20124W        W36258  17.287  14.953  13.207  0.2523 -0.0707  0.0027
20125W        W36259  12.334  16.894   2.589 -0.0710  0.1693 -0.2438
20126W        W36260   1.971  14.049   2.892 -0.0397  0.0534 -0.1113
20127W        W36261  16.232  12.993   1.649 -0.0753 -0.1716 -0.2303
20128W        W36262   4.676  14.619  11.042  0.1435 -0.0433 -0.2536
20129W        W36263   0.692   8.092  14.889  0.1258 -0.0054  0.0997
20130W        W36264   0.221  11.934   9.822 -0.3804 -0.1982 -0.0006
20131W        W36265   9.215  15.652  14.401  0.1559  0.0944  0.0889
20132W        W36266  16.523  10.135   1.355 -0.1719 -0.1761 -0.1063
20133W        W36267   7.065   1.154  14.020 -0.0472 -0.0786 -0.0348
20134W        W36268  12.007   7.818   1.896  0.0239  0.0466  0.0484
20135W        W36269   2.732   2.666   2.289  0.1257  0.0565 -0.2449
20136W        W36270   5.512  17.871  11.501  0.1207 -0.1948  0.0605
20137W        W36271  17.069   1.527   5.502  0.0305  0.0221 -0.1914
20138W        W36272   7.020   9.471  10.987 -0.3949 -0.0074  0.1094
20139W        W36273  13.779   1.107   3.488  0.1256 -0.2355  0.0980
20140W        W36274  18.684  10.256   0.420  0.2393 -0.3897 -0.0511
20141W        W36275   0.859   1.802  11.555  0.0271  0.0002  0.2888
20142W        W36276  11.642   5.072   3.214 -0.0699  0.0580 -0.0422
20143W        W36277   7.249   7.992  11.491 -0.1198 -0.1681 -0.0790
20144W        W36278   7.410   7.517  14.731  0.4642  0.2213  0.3115
20145W        W36279   5.921  10.531   2.676  0.1455 -0.0189  0.3195
20146W        W36280   0.229  15.320   0.847 -0.2384 -0.2027 -0.0876
20147W        W36281  15.703   2.551   3.443 -0.1315 -0.1717  0.2873
20148W        W36282   7.762   2.050  14.014 -0.2122 -0.0919  0.1331
20149W        W36283   3.159  17.230   1.407  0.1885  0.0319 -0.0199
20150W        W36284  13.664   2.458  13.470 -0.1451 -0.0641  0.1241
20151W        W36285   5.387   5.465  12.274 -0.3118 -0.0814  0.0089
20152W        W36286   9.048  13.629   0.733  0.1660 -0.0931  0.1324
20153W        W36287   0.474  13.310  10.953 -0.1424  0.0671  0.3132
20154W        W36288   2.291   0.516  13.073  0.1167  0.4570 -0.0877
20155W        W36289   7.380  11.242   2.964  0.0918 -0.1987  0.0026
20156W        W36290   2.217   4.680   9.715  0.2509  0.4074  0.0007
20157W        W36291   0.714   9.867   2.953 -0.2508 -0.0494  0.2088
20158W        W36292   2.254   8.367  13.446  0.1712 -0.1659 -0.2191
20159W        W36293   6.395  10.920  13.212  0.0062 -0.2841  0.2370
20160W        W36294  18.604   9.124  11.963 -0.0390 -0.3771  0.1461
20161W        W36295  17.628   8.998   3.994  0.0271 -0.0078  0.0193
20162W        W36296   9.250   1.581  11.522 -0.0291  0.0055  0.1007
20163W        W36297   6.251   4.748   1.023 -0.2879  0.3281 -0.2113
20164W        W36298   9.696   2.223  12.785  0.0310  0.1228  0.1593
20165W        W36299   9.889  13.556   3.297 -0.2372  0.5080 -0.1924
20166W        W36300   0.786   3.292   6.135  0.0802 -0.0833  0.2413
20167W        W36301  17.276  17.043   5.888 -0.0433  0.0622 -0.0141
20168W        W36302   9.977   2.751  15.245  0.0635  0.1363  0.3408
20169W        W36303  13.312  16.441  11.317  0.0735 -0.1957 -0.1660
20170W        W36304  18.866  15.696  11.194 -0.1220  0.2572 -0.0915
20171W        W36305   9.237  17.959  11.873 -0.0651  0.1516  0.0666
20172W        W36306  18.522   0.113  12.469  0.1382  0.0669  0.0722
20173W        W36307   0.467  13.446  12.399  0.1085 -0.0009 -0.0401
20174W        W36308   8.802   1.496  12.760  0.0121 -0.2335 -0.2171
20175W        W36309   3.656   8.783   3.410  0.5876  0.1323  0.2499
20176W        W36310  14.134   0.445  14.324 -0.1073 -0.2185 -0.3009
20177W        W36311   1.952   9.757   0.159 -0.0502 -0.1697  0.0917
20178W        W36312   0.568  13.606   3.628  0.1298  0.0254  0.0110
20179W        W36313   0.959   1.066  13.356 -0.1115  0.1574  0.0589
20180W        W36314   4.241   6.321  13.093  0.1700 -0.0775  0.0912
20181W        W36315   1.752  14.513   1.290  0.1060 -0.1155  0.0351
20182W        W36316   1.448   6.424  11.278 -0.0379 -0.2041  0.0845
20183W        W36317   5.068  18.690  12.846 -0.2284 -0.1050  0.1425
20184W        W36318   9.112   6.492   2.722  0.2038  0.1407 -0.0342
20185W        W36319  10.540   2.276  11.114  0.2215 -0.4280 -0.1192
20186W        W36320  18.528   5.429  12.465 -0.0818 -0.0720  0.0175
20187W        W36321  11.094  17.081   4.490  0.1185  0.3574  0.1187
20188W        W36322  10.409  15.057   2.183 -0.0466 -0.0287  0.3304
20189W        W36323   4.961  10.214  10.408 -0.2220  0.4458  0.1715
20190W        W36324   7.973   2.152   1.223  0.4216  0.2751 -0.0415
20191W        W36325   2.731  16.650  14.788 -0.1970  0.3134 -0.2305
20192W        W36326  15.093   5.317   5.819 -0.1228 -0.1920 -0.1084
20193W        W36327   9.096   4.281  11.068 -0.1037  0.3202  0.0794
20194W        W36328  15.165   9.191   2.465  0.1533 -0.0954 -0.1673
20195W        W36329   6.106   4.380  11.844 -0.0072 -0.0429 -0.0489
20196W        W36330  16.984   5.537  12.173  0.0286  0.3203  0.4169
20197W        W36331  16.545  15.202   5.528 -0.0117 -0.0732 -0.3035
20198W        W36332  12.064   9.988  11.221 -0.1863  0.0518  0.2024
20199W        W36333  17.526  15.714   4.966  0.2665  0.0689  0.0331
20200W        W36334   2.842  10.720   2.797  0.2384  0.1029 -0.4197
20201W        W36335   7.209   9.093   0.414 -0.1930  0.0437  0.2457
20202W        W36336  11.783  12.115  11.453 -0.2463  0.2099 -0.0862
20203W        W36337  12.427  14.434  12.532 -0.0999 -0.0977  0.0538
20204W        W36338  15.350   8.099  12.975  0.1738  0.3281 -0.0048
20205W        W36339  14.151   1.083  10.221 -0.3325  0.1951 -0.1363
20206W        W36340   9.253   1.478  12.509 -0.0778 -0.1671 -0.1811
20207W        W36341   4.035  11.340   2.852 -0.4565 -0.2140  0.0428
20208W        W36342   0.185   3.924   0.644 -0.0545  0.0060  0.1585
20209W        W36343  18.253   2.906  11.693 -0.0174  0.1357 -0.2189
20210W        W36344   5.595  11.260  13.253  0.3145 -0.0945  0.0539
20211W        W36345  13.922  15.409   4.957 -0.2676 -0.0288  0.0897
20212W        W36346   3.760   0.776  12.486  0.1699 -0.1124  0.0755
20213W        W36347  14.083   7.383   0.837 -0.1310  0.2901  0.3877
20214W        W36348  11.875   0.838  10.671 -0.2937  0.2123  0.1216
20215W        W36349   4.798   8.193  12.907 -0.0421 -0.0821  0.2172
20216W        W36350   3.148  15.435  12.686  0.0191 -0.1939  0.1253
20217W        W36351   9.985  14.477   2.280  0.1412  0.1674  0.1152
20218W        W36352   0.848   9.252  12.397  0.0419 -0.2879 -0.2616
20219W        W36353   7.853   4.886  14.473 -0.2265  0.2844 -0.1689
20220W        W36354   3.167   8.408   0.296  0.4410 -0.2700  0.0127
20221W        W36355   3.523   5.810  15.232  0.0298 -0.1512  0.0576
20222W        W36356   5.078   9.546  10.964  0.2087 -0.1460 -0.1492
20223W        W36357   7.207   7.419  15.228 -0.0824 -0.1290  0.1356
20224W        W36358  16.997  11.592  14.312  0.0514  0.2345 -0.0757
20225W        W36359   0.262  15.668   2.576 -0.0049  0.0327  0.0702
20226W        W36360   7.692  13.570   4.635 -0.2444  0.0618 -0.2460
20227W        W36361   3.352   7.466   0.570  0.0390 -0.0324 -0.1000
20228W        W36362  12.051   8.326  13.255 -0.1432 -0.2210 -0.0365
20229W        W36363  11.015  11.101   4.665  0.2845 -0.1907 -0.0974
20230W        W36364   5.900   4.753  12.104  0.3436  0.2937  0.1189
20231W        W36365  12.636  10.098  12.365  0.0215 -0.0004  0.1584
20232W        W36366   6.738   6.848   0.624 -0.1884 -0.1811  0.0295
20233W        W36367   4.835  14.687   0.864  0.0309  0.0115  0.2700
20234W        W36368   8.234  12.744  11.627  0.2098  0.0960 -0.1279
20235W        W36369  16.885   3.422   2.290  0.1387 -0.1642  0.0919
20236W        W36370   6.942  13.025  14.258  0.1654 -0.2510 -0.3838
20237W        W36371  15.779   1.596   3.828 -0.1117  0.3826 -0.2867
20238W        W36372   7.145   6.648   5.377  0.2529 -0.0001 -0.0214
20239W        W36373   0.434   6.394  15.028  0.2165 -0.1780 -0.0672
20240W        W36374  17.475  15.233   4.769 -0.1202 -0.2157 -0.0765
20241W        W36375   8.291   2.534  12.952  0.0330  0.2021 -0.1300
20242W        W36376  14.224   9.185   4.882 -0.0003 -0.1924 -0.2535
20243W        W36377  14.386   5.436  13.861  0.1356  0.1408 -0.1571
20244W        W36378   2.840  15.191  13.873 -0.0531 -0.1986 -0.1997
20245W        W36379   0.480   4.178   0.140 -0.1615  0.0080 -0.2328
20246W        W36380  14.118  12.283   0.521  0.1763 -0.4444  0.1883
20247W        W36381   7.090   8.373  11.201  0.0091  0.3144  0.2279
20248W        W36382   5.760  10.149  10.655 -0.0268 -0.0972 -0.0784
20249W        W36383  11.553   5.107   4.400  0.5484  0.2943  0.2083
20250W        W36384   3.086   5.337   2.109  0.1409 -0.0959  0.1050
20251W        W36385  11.846   1.755  10.423 -0.0613  0.1552  0.0791
20252W        W36386   1.166   5.681   9.585  0.0081  0.0486  0.1263
20253W        W36387  17.572   4.425  14.055 -0.2005 -0.1080  0.0464
20254W        W36388   7.158   1.895   0.388 -0.0290  0.0293  0.3538
20255W        W36389  18.443   9.323   9.987 -0.1427  0.0408  0.0597
20256W        W36390  12.157  13.473  14.715  0.0239  0.4389 -0.5173
20257W        W36391  16.973  14.562  13.117  0.1267 -0.3680 -0.1718
20258W        W36392  15.574  17.157   0.723 -0.4958 -0.2477 -0.2587
20259W        W36393  16.300   4.819   4.356  0.0283 -0.1560 -0.1594
20260W        W36394  11.481   3.604  13.748  0.1215 -0.0499  0.0684
20261W        W36395  13.247  17.564   0.091 -0.1738  0.0934 -0.0405
20262W        W36396  12.764  13.716   0.287  0.1410  0.1898  0.3220
20263W        W36397  13.403  17.147   2.822 -0.1165 -0.0580 -0.0036
20264W        W36398   1.107  18.742   4.090  0.2448 -0.0153  0.0653
20265W        W36399   8.794   8.814  14.282 -0.0028  0.1202 -0.0813
20266W        W36400  13.891  17.601  12.922 -0.1618  0.0142  0.1663
20267W        W36401  11.431  12.201  13.362  0.0252  0.1692 -0.1698
20268W        W36402   2.620   0.362  15.283  0.1636  0.1377 -0.0306
20269W        W36403   3.415   2.236  10.681 -0.0734  0.1682  0.0625
20270W        W36404  12.469   7.455  11.092  0.0746  0.2140  0.5037
20271W        W36405  16.795   0.992   0.877 -0.1211 -0.1323 -0.0343
20272W        W36406  10.632   6.136   1.708  0.0984  0.0007 -0.0486
20273W        W36407  17.578  12.920  12.846  0.0159  0.0417 -0.0805
20274W        W36408   9.144   3.464   3.306 -0.3251 -0.2088 -0.2370
20275W        W36409  14.388   8.996   5.465  0.1255 -0.4172 -0.2033
20276W        W36410  14.881  17.338   2.025  0.0839  0.2860 -0.1298
20277W        W36411  16.076   7.633   5.621 -0.3291  0.0543 -0.1335
20278W        W36412  12.419  12.169   0.865 -0.0314 -0.0431  0.0166
20279W        W36413   6.251   8.931   0.944  0.1150  0.2030  0.1658
20280W        W36414   3.793   3.909  13.223 -0.0130 -0.0183  0.0776
20281W        W36415   9.996  15.000   1.845 -0.0880  0.0275 -0.2589
20282W        W36416   1.557  11.091   3.426 -0.2203  0.0003 -0.2336
20283W        W36417   8.399   4.622   3.224  0.2510 -0.1268 -0.2335
20284W        W36418  17.909  15.304  12.296 -0.1369 -0.1136 -0.1350
20285W        W36419  11.058   1.530   2.368 -0.3139 -0.3733  0.2859
20286W        W36420  14.917   0.266   5.364 -0.1439 -0.2604 -0.1963
20287W        W36421   2.805  12.041   0.291  0.2455  0.0810 -0.0088
20288W        W36422  11.884   9.261   2.997 -0.0905 -0.0151  0.0374
20289W        W36423   4.905  10.720   2.888  0.0489 -0.0443  0.0080
20290W        W36424   3.663   5.505   0.390  0.1183 -0.3056  0.3604
20291W        W36425   9.672  14.019   3.173  0.2749  0.3470 -0.1648
20292W        W36426   1.583  11.481   1.083 -0.1152 -0.0894  0.2237
20293W        W36427   3.052  15.391   5.203 -0.0174 -0.1942 -0.3370
20294W        W36428  17.934  16.226   3.206  0.1416 -0.1043  0.1363
20295W        W36429   7.674  13.791  12.678  0.0795  0.1484 -0.2899
20296W        W36430   4.133   4.693   0.280 -0.1132 -0.0616 -0.0624
20297W        W36431  17.248   5.303   2.420 -0.3076  0.3558  0.1537
20298W        W36432   4.149   5.091   3.986  0.0011  0.3177  0.3929
20299W        W36433  15.914   4.391   4.347  0.0916 -0.2750 -0.2707
20300W        W36434   8.124   8.203  10.257  0.0169  0.0486 -0.1097
20301W        W36435  18.363  16.802  11.998  0.1192 -0.2790 -0.0667
20302W        W36436   7.852   6.956   2.834 -0.3235  0.0378  0.0544
20303W        W36437  17.936  13.664   0.360  0.0750  0.4207  0.2098
20304W        W36438  12.171  15.982  15.246  0.0124  0.0214 -0.0046
20305W        W36439   4.305   4.241   1.439 -0.1282  0.0671 -0.0551
20306W        W36440   3.343  13.773   2.921  0.1141  0.0074 -0.3758
20307W        W36441   8.244   9.434   2.259  0.1801 -0.1617 -0.1765
20308W        W36442   6.628  18.691  10.462  0.1643  0.2146  0.1449
20309W        W36443  12.119   2.721  14.465  0.0159  0.0922  0.1209
20310W        W36444  16.651   6.067  11.549  0.1985  0.1576 -0.1348
20311W        W36445   3.497   6.915   1.723 -0.0135  0.0193 -0.2375
20312W        W36446  11.723  16.201   1.592  0.0494  0.0821 -0.2070
20313W        W36447  17.010   2.463   3.081  0.0929  0.0723 -0.0465
20314W        W36448   6.999   5.854   3.245 -0.0733  0.0996 -0.0353
20315W        W36449   2.489  12.173  13.471  0.0710 -0.2535 -0.1717
20316W        W36450   3.632  12.905  11.364  0.1677  0.3550 -0.4727
20317W        W36451  14.204   4.025   1.515  0.4250 -0.0423  0.5526
20318W        W36452  17.209  11.814   0.385 -0.1108  0.2694  0.0526
20319W        W36453  11.356  14.693   3.032 -0.0027  0.2107 -0.0294
20320W        W36454   6.024   6.758  14.236  0.3120 -0.3275  0.0070
20321W        W36455   1.774   6.110   3.774  0.1642  0.0264 -0.1804
20322W        W36456  15.263  16.333  12.211 -0.2494  0.1169 -0.3676
20323W        W36457   0.142   6.722  12.101 -0.1804  0.0634 -0.0224
20324W        W36458  17.330  17.326  14.412 -0.0228 -0.0994  0.1054
20325W        W36459   4.227  13.796   9.944 -0.0212  0.0624 -0.2286
20326W        W36460   0.712  15.006  13.705  0.1288 -0.0898  0.3315
20327W        W36461  12.036  13.880  13.126  0.2382  0.0185  0.1628
20328W        W36462  15.626   8.739  10.920 -0.1394 -0.1703 -0.1388
20329W        W36463   3.448  14.800  11.704 -0.1695 -0.1797  0.1721
20330W        W36464  11.873  18.642  11.290  0.1716 -0.0430 -0.1704
20331W        W36465   6.185  11.397   3.893  0.3522 -0.0592 -0.1475
20332W        W36466   0.892  18.458   0.065  0.0734 -0.0405  0.2724
20333W        W36467  18.813   5.856  14.323  0.2095  0.0513  0.5233
20334W        W36468   8.743   3.083  13.327  0.1491 -0.0762 -0.1592
20335W        W36469   9.609   1.370   0.516  0.3918 -0.2059  0.0799
20336W        W36470  12.974   6.118   2.954 -0.1857 -0.2685  0.1607
20337W        W36471   5.822   7.235   4.758  0.1205 -0.1689 -0.4238
20338W        W36472  16.195   5.466   3.164  0.1683  0.4618 -0.3274
20339W        W36473   5.224   7.678  11.581 -0.0693 -0.1997  0.0834
20340W        W36474   1.555   5.748   1.577 -0.4167  0.0191 -0.3879
20341W        W36475   8.103   2.334  13.787  0.0165 -0.0513  0.2532
20342W        W36476  15.226   1.828  14.625 -0.1397 -0.0203  0.2603
20343W        W36477   4.602   8.164   1.644  0.0516  0.0856  0.1309
20344W        W36478   2.833   9.865  11.143  0.0980  0.0180 -0.3126
20345W        W36479   0.158   3.779  13.696  0.0101 -0.0172 -0.0847
20346W        W36480  10.984  16.210   0.665 -0.1680 -0.1584  0.0115
20347W        W36481  14.060   6.487  12.109  0.1025  0.0692 -0.1173
20348W        W36482   9.358  18.369   0.891  0.0102 -0.1089 -0.0459
20349W        W36483  14.793   7.020  13.059  0.0010 -0.1635  0.2863
20350W        W36484   3.845   5.959  12.995 -0.1813 -0.1559 -0.0437
20351W        W36485  11.565   9.428  10.506  0.0259 -0.1657 -0.2262
20352W        W36486   2.809   5.064   3.573 -0.1097 -0.4535 -0.3522
20353W        W36487  11.815  11.059  12.999  0.1401 -0.2006  0.1146
20354W        W36488   2.628   0.187  12.577 -0.0325 -0.0610  0.0635
20355W        W36489  11.388   6.650  11.092  0.1747  0.0953 -0.1514
20356W        W36490   5.336   3.649   3.299  0.3963 -0.1965  0.1909
20357W        W36491   5.495  13.639   2.100  0.1259 -0.2671  0.2266
20358W        W36492  12.188  16.046   2.195 -0.0614 -0.1790  0.2498
20359W        W36493   3.574  14.401   4.650  0.0006 -0.1303  0.2278
20360W        W36494  15.456  10.011   4.449 -0.1590  0.0741 -0.0865
20361W        W36495  13.509   7.380   2.923 -0.4298 -0.0510 -0.1284
20362W        W36496  15.054   0.155   1.876  0.2859 -0.1378  0.1338
20363W        W36497  18.133  18.822  11.962  0.0504 -0.2777 -0.1374
20364W        W36498   0.250  16.384   1.943 -0.1298 -0.2738  0.1000
20365W        W36499   1.087   7.994  12.785  0.4157  0.3672 -0.0713
20366W        W36500  14.718   3.865   4.415  0.1642  0.0366 -0.1429
20367W        W36501  11.895   4.747  13.565 -0.3304  0.0582  0.0096
20368W        W36502  16.039  18.113   3.158  0.0016 -0.2236 -0.0239
20369W        W36503   3.398   8.540  13.067 -0.3910  0.2959 -0.0713
20370W        W36504  13.597  10.614   5.806  0.1188  0.2534  0.1675
20371W        W36505  12.380  13.137  13.883  0.2239  0.3347 -0.2140
20372W        W36506   5.399   9.449   5.574 -0.1149 -0.1869  0.2138
20373W        W36507  14.386   6.415  10.884 -0.1265 -0.2376 -0.0762
20374W        W36508  14.493   0.582  11.927  0.0683  0.0172  0.1479
20375W        W36509   0.298  16.048   2.910  0.1903 -0.1166 -0.2153
20376W        W36510   0.410  10.637  11.951  0.3521  0.0468 -0.2280
20377W        W36511  14.989  15.514   4.026 -0.0290 -0.0551 -0.2755
20378W        W36512  17.426  12.240   1.407  0.0508 -0.0138  0.0886
20379W        W36513  15.093  14.849  13.029 -0.0197 -0.3721 -0.1197
20380W        W36514   9.401  11.449   2.021  0.2812  0.0677 -0.0121
20381W        W36515  14.566  12.168   3.072  0.2860 -0.1529 -0.0642
20382W        W36516   1.790   1.460   1.936  0.4867 -0.0008 -0.1803
20383W        W36517   4.083  12.945   1.359  0.4196 -0.1481  0.3937
20384W        W36518   1.392   6.294   5.947 -0.1958  0.3231  0.0058
20385W        W36519  17.745  17.395  15.216  0.0369  0.1643  0.2353
20386W        W36520  17.570  13.920   5.724 -0.2381 -0.0378  0.2235
20387W        W36521   6.831  18.483  13.132 -0.0886 -0.0890  0.3930
20388W        W36522  15.115   7.128   3.025 -0.2081 -0.0619 -0.3002
20389W        W36523   5.647  16.607   1.845  0.1553  0.0269  0.0359
20390W        W36524   4.809  10.150   4.400 -0.0188  0.0867 -0.2656
20391W        W36525  12.976   7.935  12.950  0.3255  0.2626  0.0504
20392W        W36526   0.878   3.772   2.686  0.1098 -0.0035  0.1011
20393W        W36527  12.987   9.596  11.083  0.3012 -0.1144  0.1941
20394W        W36528   1.809   4.670   2.858 -0.0405  0.0876 -0.2647
20395W        W36529  18.048  15.273  10.305 -0.1891 -0.0558 -0.1887
20396W        W36530  17.496  14.194  14.420 -0.2477 -0.0410 -0.0262
20397W        W36531   7.008  15.551   1.158 -0.5834  0.1494 -0.0946
20398W        W36532  17.969  12.157   1.499 -0.0641  0.1351  0.0802
20399W        W36533  17.353  11.846   5.351 -0.2223  0.1307  0.1244
20400W        W36534  14.343  11.845   3.424 -0.1827 -0.4212  0.1066
20401W        W36535   0.301   6.565  13.583  0.1613  0.0863 -0.0158
20402W        W36536   6.939  11.136   2.026 -0.2714 -0.1780 -0.3029
20403W        W36537   3.745   7.329  11.184 -0.0002 -0.1416 -0.0488
20404W        W36538  10.447  10.133   1.014  0.0547 -0.1229 -0.1868
20405W        W36539   6.521   2.798   1.419 -0.0830 -0.0605 -0.2458
20406W        W36540   7.433   1.812   1.946  0.1376  0.1633  0.0722
20407W        W36541  10.104  17.138   2.399  0.1502 -0.0073 -0.0329
20408W        W36542  14.147   1.582   2.197  0.0556 -0.0721  0.1069
20409W        W36543   5.652  18.424  13.993  0.0555 -0.1298 -0.1756
20410W        W36544   3.029  14.672  15.264  0.0186  0.1000  0.0787
20411W        W36545  15.687  11.038   2.169 -0.0723  0.1152  0.0635
20412W        W36546  13.015   7.593  14.868  0.1534 -0.3181 -0.1282
20413W        W36547  16.088  10.148   0.769 -0.0687 -0.1288  0.0360
20414W        W36548   0.346  15.568  14.281 -0.3577 -0.1041  0.0209
20415W        W36549  14.250   1.358   3.115 -0.1191 -0.1043  0.2359
20416W        W36550  10.965  18.712   1.066  0.0536  0.1304 -0.0172
20417W        W36551   3.304  16.148   4.683  0.0455 -0.1211  0.3243
20418W        W36552   7.074   6.964   0.926  0.2400  0.0358 -0.3674
20419W        W36553  11.975   2.985  10.103 -0.0623 -0.1134  0.1014
20420W        W36554   0.737   0.226  14.249 -0.0011 -0.2299 -0.0989
20421W        W36555  14.161   8.657   0.357  0.2496 -0.0498  0.2391
20422W        W36556   7.925  10.056   3.578 -0.0785  0.1205  0.0566
20423W        W36557  15.745   4.425  13.719  0.0569 -0.0023  0.1088
20424W        W36558  14.794  12.820   2.048  0.0571  0.3015 -0.2311
20425W        W36559   6.537  16.308  12.748  0.1774  0.0168 -0.3282
20426W        W36560   9.535  17.879   1.108  0.0577 -0.0447 -0.2725
20427W        W36561  10.912  14.825   2.264  0.0789 -0.2240 -0.3509
20428W        W36562   2.143   6.230  15.239  0.1756 -0.2261 -0.0988
20429W        W36563  12.760   6.993   0.694 -0.0750 -0.1552  0.0245
20430W        W36564  13.746  11.713  11.490 -0.1710 -0.0188  0.1352
20431W        W36565   4.914   9.168  10.638 -0.2371 -0.4338  0.0040
20432W        W36566   9.208  18.886  10.646  0.1519  0.0538 -0.0295
20433W        W36567  10.524  10.891  13.128 -0.2995  0.0861 -0.1057
20434W        W36568   2.571   9.697   2.924 -0.0509  0.1312 -0.3037
20435W        W36569  13.785   7.915  13.130  0.1701  0.4436 -0.1315
20436W        W36570  15.403  14.233  11.048  0.3127 -0.0928 -0.1792
20437W        W36571  12.249   4.162  14.018  0.0466  0.1852  0.0391
20438W        W36572   0.008   0.496  13.201  0.1112 -0.1032 -0.0090
20439W        W36573  16.624   1.132  13.366 -0.3932 -0.0088  0.0918
20440W        W36574  10.093   1.327   1.338  0.2483 -0.3602  0.1432
20441W        W36575   2.417   3.037  10.917 -0.1160 -0.1999  0.1643
20442W        W36576  15.468   3.966   1.807 -0.1879 -0.0366 -0.1033
20443W        W36577   1.284   4.401   2.136 -0.0545  0.2374  0.0508
20444W        W36578  18.002  17.948   0.393 -0.0826  0.0067  0.0040
20445W        W36579  18.104  12.986  10.303 -0.2078  0.0915 -0.0148
20446W        W36580   0.157  10.970  13.535  0.1081 -0.0494  0.2283
20447W        W36581   9.863  10.218   3.418  0.0344 -0.1740  0.0494
20448W        W36582  17.020   3.838   4.204  0.0000  0.0062 -0.2172
20449W        W36583  14.684   2.543   0.895  0.4315 -0.2188 -0.3812
20450W        W36584  14.880   3.591   4.002 -0.3077  0.0824  0.1840
20451W        W36585  17.671   3.040  12.871  0.0709 -0.0598  0.2024
20452W        W36586   4.089   6.038  12.587 -0.3165 -0.3119 -0.3839
20453W        W36587   9.347  17.602  10.464  0.0110  0.1734 -0.0252
20454W        W36588  11.958   3.229  11.591  0.0627  0.0171  0.0298
20455W        W36589   0.344   0.186  13.359  0.0058  0.0424  0.1652
20456W        W36590   9.662  17.310  12.485  0.3197 -0.3622 -0.2204
20457W        W36591  16.724  17.869  13.519 -0.3732  0.3920  0.0174
20458W        W36592   9.319   9.381   0.613 -0.3716  0.4286  0.0482
20459W        W36593   9.447  14.512   4.032 -0.0186  0.2532  0.2024
20460W        W36594  18.438  10.980   4.977 -0.1833  0.0363 -0.0302
20461W        W36595   9.198  10.438  11.965  0.0495 -0.0770 -0.1388
20462W        W36596   5.632   4.574   2.709 -0.2041  0.1643 -0.0516
20463W        W36597   0.130  18.306   4.601  0.2656  0.2432  0.0792
20464W        W36598  17.652  11.531   0.296  0.0079 -0.2695 -0.0030
20465W        W36599   9.032   7.738  10.799 -0.0268 -0.1259  0.1319
20466W        W36600  10.281   3.647   3.572 -0.8080 -0.3648 -0.0401
20467W        W36601   7.206   8.315  10.668 -0.3096 -0.1977  0.0008
20468W        W36602  10.769  11.277   0.127  0.1688 -0.3670 -0.2061
20469W        W36603  12.830   2.983   5.131  0.2427 -0.3607 -0.0296
20470W        W36604   8.472   8.479  14.562 -0.1589 -0.0181  0.4085
20471W        W36605   8.510  10.951  10.978  0.2420 -0.3006 -0.0370
20472W        W36606  15.884   5.995   3.729  0.0667  0.0901  0.1694
20473W        W36607   7.722   8.477   2.025 -0.0406 -0.1027 -0.3244
20474W        W36608   4.228  11.453  12.824  0.2171 -0.0616 -0.1208
20475W        W36609   8.292   7.551  13.762  0.1848  0.0819  0.3640
20476W        W36610  15.462   1.574   3.488  0.1026  0.0393 -0.2200
20477W        W36611  10.723  14.683  12.096  0.0637  0.2180  0.1937
20478W        W36612  16.520   6.166   4.325 -0.2770 -0.2766 -0.4251
20479W        W36613   9.078   7.068   2.763  0.0999  0.1384 -0.0017
20480W        W36614   0.065   2.752  11.418 -0.3033  0.0397  0.1445
20481W        W36615  14.019   9.548   0.629  0.1755 -0.1256 -0.4252
20482W        W36616  10.742   7.568  12.358 -0.2252  0.1349  0.0378
20483W        W36617   9.076  11.527  14.770  0.0531  0.0592 -0.0535
20484W        W36618   1.508   7.849  13.722 -0.3117  0.1696 -0.3196
20485W        W36619  13.736  16.431  11.600  0.0707  0.0158 -0.1737
20486W        W36620  10.325   4.368  12.138  0.0279  0.2099 -0.0214
20487W        W36621  18.922   8.391   1.345  0.2944  0.1669  0.2438
20488W        W36622  16.345   9.399  12.675 -0.1760 -0.1442  0.0904
20489W        W36623   6.704  11.346  12.618 -0.0686  0.3822  0.1755
20490W        W36624   2.782   1.987   4.909  0.2746 -0.2691 -0.3229
20491W        W36625  16.551  16.501   1.840 -0.0443  0.3861 -0.0530
20492W        W36626  11.430   3.339   4.453  0.2452 -0.0398 -0.3959
20493W        W36627   0.037   3.899   5.155  0.2257 -0.0332  0.0498
20494W        W36628  10.506   5.556   4.214  0.1704  0.0349 -0.3948
20495W        W36629   6.684   3.618  10.675  0.1612 -0.0453 -0.0431
20496W        W36630  16.173  13.940  14.134 -0.1319  0.0955  0.0825
20497W        W36631   5.046   6.940   1.506 -0.1241 -0.0700  0.0395
20498W        W36632  14.846  17.767  12.459  0.1996  0.0391 -0.2691
20499W        W36633  15.588   5.288   0.984  0.0273  0.0942  0.0660
20500W        W36634  14.982   5.715  13.199 -0.0835 -0.2237  0.0476
20501W        W36635  14.608  17.941   4.117  0.1932 -0.0343  0.3217
20502W        W36636  10.645  13.113   2.766  0.0168  0.0859  0.1861
20503W        W36637  13.346  11.420  11.596  0.5789  0.0517  0.1547
20504W        W36638  11.972  10.680   2.794 -0.2568 -0.3379 -0.0284
20505W        W36639   5.202   0.796  11.790 -0.1438 -0.1017 -0.3034
20506W        W36640  16.164   7.198   3.819  0.3079  0.0911 -0.1493
20507W        W36641  10.108   3.354   2.575  0.1986 -0.2630  0.0790
20508W        W36642   8.101  17.250   3.002 -0.0458 -0.1770  0.1417
20509W        W36643   7.093   1.974  13.151  0.2655 -0.0959 -0.0766
20510W        W36644  13.651   6.974  14.174 -0.3133  0.0813  0.0523
20511W        W36645   2.793   3.129  12.548 -0.1652  0.0064  0.0318
20512W        W36646  15.965   9.966  13.839  0.1032 -0.1557  0.1342
20513W        W36647  17.671   3.468  13.564  0.2421 -0.1477 -0.1994
20514W        W36648  16.166  15.583  13.787 -0.0315  0.0126  0.0250
20515W        W36649  17.555   8.970  11.458  0.2039  0.0057 -0.0361
20516W        W36650  13.560  15.127  12.073  0.2250  0.0739 -0.1974
20517W        W36651   8.502  13.157   1.969  0.2476  0.0692  0.2285
20518W        W36652   7.104  14.362   1.981  0.2142  0.1389 -0.0172
20519W        W36653   3.771  12.944  13.926 -0.0640 -0.1643 -0.0079
20520W        W36654   6.361   1.927   0.912  0.0328  0.0507  0.1368
20521W        W36655   6.062   8.101   0.640  0.1513 -0.1094  0.0366
20522W        W36656   1.639  12.882  14.150 -0.0119 -0.1165 -0.1454
20523W        W36657   3.978   7.838   3.466 -0.0666  0.1954 -0.1889
20524W        W36658   3.891   7.685  10.895 -0.2073  0.1099 -0.1765
20525W        W36659   3.409   9.849   0.626 -0.0945 -0.0346 -0.1065
20526W        W36660   2.271  11.552  11.984 -0.1538 -0.1304 -0.0777
20527W        W36661  17.725  15.678  10.488 -0.1635 -0.2757 -0.2694
20528W        W36662   8.695   3.032  11.458 -0.0971  0.1210  0.1320
20529W        W36663   6.692  14.950   5.786  0.0766  0.0282 -0.2847
20530W        W36664   2.578  18.681  12.552  0.0298  0.1151 -0.0466
20531W        W36665  11.152  16.364  10.713 -0.1768  0.0840  0.0298
20532W        W36666   2.875   5.343   5.828  0.0753  0.0741 -0.1054
20533W        W36667  18.914   4.001   3.509  0.1848  0.0799 -0.2076
20534W        W36668  13.959   1.406   0.425  0.2590 -0.2125  0.0065
20535W        W36669  11.471  14.465  11.417  0.0020 -0.2355 -0.0045
20536W        W36670   2.856   6.056  13.030  0.2888 -0.1359  0.3379
20537W        W36671   9.857   4.192  15.050  0.1375 -0.1123  0.0710
20538W        W36672  17.891   3.499   2.111  0.1658 -0.0349 -0.2392
20539W        W36673  10.366   8.982  12.015 -0.0607 -0.0815 -0.0392
20540W        W36674   8.244   6.151   3.895 -0.0557  0.0394 -0.2466
20541W        W36675  13.591   5.049   5.031  0.1270 -0.3118  0.2670
20542W        W36676  14.229   3.976  13.582  0.5141 -0.0120 -0.0004
20543W        W36677   4.653   4.872  12.971 -0.0453  0.1921 -0.0994
20544W        W36678   0.228   1.485  13.081  0.2443  0.2274  0.2209
20545W        W36679  11.511   3.863   1.168 -0.0386 -0.3567  0.1798
20546W        W36680  13.895  10.598  11.961  0.2020  0.2249  0.1080
20547W        W36681  16.782  11.088   2.441 -0.0064  0.0313  0.0364
20548W        W36682  14.182   6.704  11.256  0.1866  0.3869  0.0791
20549W        W36683  15.981   9.467   3.905  0.3769 -0.0820 -0.1879
20550W        W36684   6.956   1.715  14.151 -0.1478 -0.2865 -0.1722
20551W        W36685   6.754   5.030  11.166  0.0363  0.1113 -0.2024
20552W        W36686   1.756  15.434   2.758 -0.2661 -0.2270  0.3655
20553W        W36687   7.759   0.302   0.450  0.2560  0.2390 -0.0167
20554W        W36688  12.896   2.055  12.336  0.0956  0.1574  0.1341
20555W        W36689   6.797   7.116  11.719  0.1629 -0.0593  0.0069
20556W        W36690  17.020  15.799  13.101  0.0526  0.1267  0.2712
20557W        W36691   6.297  15.170  11.994 -0.0597 -0.0154 -0.0095
20558W        W36692  13.257  18.127  13.659  0.1039 -0.3682 -0.1022
20559W        W36693  18.717   9.374   0.613 -0.1180 -0.0429  0.0245
20560W        W36694   6.118  11.995  12.160  0.0753 -0.2734  0.0488
20561W        W36695   4.658   1.078   5.475  0.0460  0.2302  0.3088
20562W        W36696   0.044   5.189  13.135  0.0588  0.0861  0.2240
20563W        W36697   2.382  16.685   2.514 -0.1202  0.0396 -0.0723
20564W        W36698  14.978  11.399   2.058  0.1080 -0.2788  0.0236
20565W        W36699   8.119   6.664   3.188  0.1288 -0.3179  0.0826
20566W        W36700   7.880  16.275   3.866  0.0513 -0.0034 -0.3417
20567W        W36701   7.375   4.784   0.152 -0.0641 -0.1053  0.2384
20568W        W36702   4.517   1.837   1.403 -0.2229 -0.1348  0.1088
20569W        W36703  10.287   5.257  12.988 -0.1630 -0.4520 -0.1124
20570W        W36704   3.574   8.528  11.466  0.0799  0.2382 -0.0932
20571W        W36705   3.772   3.798  11.980  0.0705 -0.1951  0.1399
20572W        W36706   0.648  16.887  10.179 -0.1080 -0.2583  0.1742
20573W        W36707   2.566  17.855  10.895 -0.1056 -0.2140 -0.0563
20574W        W36708  10.737  11.044   5.149  0.0020 -0.0463 -0.2238
20575W        W36709  17.566  13.484   4.418 -0.4754 -0.1732  0.0592
20576W        W36710   0.821   3.539  14.948 -0.0002 -0.1212  0.0747
20577W        W36711   5.388   8.604  14.815  0.0469 -0.0159  0.2350
20578W        W36712  10.826   5.550  12.567 -0.5405  0.2955 -0.1441
20579W        W36713   8.145   9.424  14.125  0.3096 -0.0552 -0.2018
20580W        W36714  16.666  13.037  12.016 -0.0531 -0.2730 -0.1909
20581W        W36715   8.793  12.498  10.519 -0.1406 -0.2995 -0.0155
20582W        W36716  15.402   5.082  10.929  0.4736 -0.2764 -0.0906
20583W        W36717  15.885  12.448  11.219 -0.0182  0.2646 -0.1220
20584W        W36718   0.840   9.692  12.111  0.1603 -0.1517 -0.0152
20585W        W36719   9.513   6.096   0.195  0.1983 -0.1352 -0.2078
20586W        W36720  17.889   3.064  13.450  0.0981  0.0410 -0.2140
20587W        W36721  17.254  10.379   4.787  0.0787  0.0945 -0.1032
20588W        W36722   7.711   6.817   3.584 -0.2451  0.1331  0.0794
20589W        W36723  15.226   1.475  14.269  0.1006  0.1073 -0.1265
20590W        W36724   7.641  17.004  12.582 -0.3966 -0.0295  0.0010
20591W        W36725   4.576   7.170  14.767 -0.0413  0.0208 -0.3809
20592W        W36726   3.764   6.565  14.746  0.2673  0.2066  0.1697
20593W        W36727   7.612  11.875  10.736  0.1650  0.3167  0.0357
20594W        W36728   0.895  14.995   1.253 -0.1475  0.2490 -0.0014
20595W        W36729   6.991  16.314   3.795 -0.2125 -0.1302 -0.0420
20596W        W36730  10.266  11.849  12.218 -0.1534 -0.0693  0.1175
20597W        W36731  14.257  16.709   3.357 -0.0858  0.0747  0.1337
20598W        W36732   6.428  18.111  13.717  0.1075 -0.0221  0.5165
20599W        W36733   8.373   4.993   4.212 -0.0490  0.3405 -0.3126
20600W        W36734  13.479  12.652  10.753  0.0756 -0.1802  0.2496
20601W        W36735   4.821   9.150  12.507 -0.0435  0.0811 -0.1496
20602W        W36736   4.316   1.760   0.459 -0.2531  0.4166  0.1687
20603W        W36737  17.090  10.029   3.476  0.3607 -0.1582 -0.1827
20604W        W36738  14.183   3.034  12.158 -0.1468  0.2661  0.1179
20605W        W36739   4.211   7.636  13.958  0.0502  0.1384 -0.1899
20606W        W36740  17.807   0.527  14.865 -0.2706  0.0240  0.0166
20607W        W36741   7.362   5.051   3.451  0.1706 -0.0625 -0.0184
20608W        W36742   3.677   3.243   3.017  0.2171 -0.1314  0.0372
20609W        W36743   4.434  17.346  12.271 -0.0018  0.4128  0.2360
20610W        W36744   3.685   3.307   2.031 -0.2626 -0.1605  0.0177
20611W        W36745  17.761  10.540   2.588 -0.1077  0.2092  0.1762
20612W        W36746  12.259   8.649   1.368 -0.1455 -0.0921  0.0012
20613W        W36747  10.026  14.119  14.033 -0.2197  0.1160  0.1687
20614W        W36748   7.502  14.112   0.255  0.1538 -0.2349 -0.3143
20615W        W36749   7.579   5.840   1.505 -0.2341  0.0144  0.0781
20616W        W36750  14.895   0.124   4.376 -0.0828  0.3659  0.3185
20617W        W36751   8.896   3.509  12.986 -0.0544 -0.1031 -0.1475
20618W        W36752  18.270  14.251   3.371 -0.2002  0.1025  0.2040
20619W        W36753  16.197  11.722   1.102  0.0590  0.0904  0.0549
20620W        W36754   4.315  16.958   5.339  0.0714 -0.0094 -0.3951
20621W        W36755  13.970   6.183   3.334  0.2395 -0.0691 -0.1691
20622W        W36756   2.942   2.438  13.667  0.2602 -0.3168  0.1409
20623W        W36757  16.115   3.974   2.529 -0.4730  0.0700 -0.0128
20624W        W36758   3.370   2.338  11.553  0.1447 -0.0438  0.2787
20625W        W36759   3.136   3.571   4.970  0.1632  0.1478 -0.1829
20626W        W36760  12.190  18.384   1.672 -0.0616 -0.2891 -0.1061
20627W        W36761   8.300   5.159  13.454  0.3359  0.1204  0.1339
20628W        W36762  14.804  16.530   2.598 -0.1620  0.0427  0.0703
20629W        W36763   6.831  15.550   0.053 -0.3852 -0.0239  0.0949
20630W        W36764   8.580   0.607   5.420  0.2138 -0.3917 -0.0537
20631W        W36765   3.827   2.897  14.868  0.2146  0.1470 -0.0376
20632W        W36766   5.708  11.768   2.220  0.0312  0.2590  0.3301
20633W        W36767   4.243  12.664   0.177 -0.0122  0.0595  0.0543
20634W        W36768   2.920  15.430   0.533 -0.0907 -0.1080  0.0687
20635W        W36769   8.044  17.967   0.921  0.0667 -0.0741  0.2212
20636W        W36770   0.651  11.696  15.152  0.3302  0.1676  0.1459
20637W        W36771  12.159   2.361  14.014 -0.0243  0.0137  0.0936
20638W        W36772   4.963  13.862  14.667  0.0826  0.2343  0.2185
20639W        W36773   9.468   4.469  10.823  0.0960  0.0362  0.1630
20640W        W36774   2.622  14.484   3.510  0.0398  0.0931 -0.1956
20641W        W36775  18.319  18.411  11.923 -0.0872  0.0511  0.2185
20642W        W36776   1.015  10.274   4.289  0.0407 -0.2363  0.0796
20643W        W36777   7.863   3.391  15.119 -0.1097  0.2793  0.0815
20644W        W36778   9.246  10.932  12.186 -0.1585 -0.4026 -0.2458
20645W        W36779   3.406   4.600   0.890 -0.1278 -0.2235  0.1217
20646W        W36780   8.623   3.131   4.338  0.0726  0.3189 -0.1961
20647W        W36781  15.734   4.798  12.994  0.1655 -0.1159  0.0529
20648W        W36782  17.561   3.354  14.425 -0.0313  0.4861 -0.3550
20649W        W36783  16.763  14.864  14.916  0.1571 -0.0437  0.1101
20650W        W36784  14.655   9.525  14.662 -0.2751  0.1080 -0.0900
20651W        W36785   0.414  10.981  14.995 -0.2036 -0.1046  0.2385
20652W        W36786   4.520   4.073   0.074 -0.1482 -0.0725 -0.0628
20653W        W36787   5.215  16.828   3.123  0.0748 -0.0056  0.0870
20654W        W36788  15.992  14.962  10.372 -0.1048  0.0486  0.2625
20655W        W36789  17.715   3.474   0.451  0.0822 -0.0858  0.0566
20656W        W36790   9.297  17.805   3.219 -0.0164 -0.0007  0.0595
20657W        W36791   4.478   4.975   3.469 -0.0786 -0.0228  0.0081
20658W        W36792   9.910   6.435   0.351 -0.1244 -0.0226  0.1514
20659W        W36793   2.188   7.188   5.450  0.4233 -0.1681 -0.3671
20660W        W36794   8.205  10.771   2.589 -0.1312 -0.1345 -0.1061
20661W        W36795  13.050   4.779   2.926  0.1726 -0.3151  0.2102
20662W        W36796   9.135  10.859  11.728  0.2693 -0.1319  0.0662
20663W        W36797   9.717   2.324   4.519  0.0642 -0.2445  0.1448
20664W        W36798   6.999  10.301   1.010  0.1292 -0.2407 -0.0226
20665W        W36799   3.323  18.356   1.941  0.0540 -0.0667  0.2301
20666W        W36800   3.048   1.002   3.899 -0.2296 -0.0412 -0.1002
20667W        W36801   4.509   2.156  12.768 -0.3569  0.1529  0.1745
20668W        W36802  12.057  18.779  11.836 -0.0607 -0.0214 -0.1842
20669W        W36803  13.173  18.832  11.039  0.2623 -0.0235 -0.2923
20670W        W36804  13.087   6.830   2.168  0.2576 -0.0859  0.3707
20671W        W36805   9.074  13.565  11.672 -0.2105  0.2189  0.2833
20672W        W36806   9.452  17.357   1.187 -0.0012 -0.0874  0.3763
20673W        W36807   0.010   0.931   2.307 -0.1433 -0.0465 -0.1078
20674W        W36808   3.566   9.257  14.660 -0.0486  0.0133  0.0931
20675W        W36809  18.881  15.665  14.541  0.0728  0.3335  0.1044
20676W        W36810   1.680   8.375  13.632  0.3060 -0.2993 -0.0749
20677W        W36811   0.901   8.245   4.461  0.1017 -0.2442 -0.0695
20678W        W36812  13.781   4.505   2.107  0.2459  0.1754 -0.2803
20679W        W36813   1.427   2.161  10.601 -0.0874 -0.1199 -0.2475
20680W        W36814   9.767   1.271   2.275  0.1158  0.1415  0.0879
20681W        W36815  18.188  15.686  11.857  0.3288  0.0784 -0.0689
20682W        W36816  18.463  13.480   5.316 -0.3182  0.1570  0.1966
20683W        W36817  12.908   8.288   4.168 -0.2159  0.0964  0.0923
20684W        W36818  13.702  18.178  13.868  0.0746  0.2108 -0.1869
20685W        W36819  18.109  13.921  12.420  0.0498  0.0360  0.0059
20686W        W36820  13.065  12.017   0.748 -0.0393 -0.2032 -0.0315
20687W        W36821   1.611  13.051  11.993 -0.2417 -0.3030 -0.0413
20688W        W36822  10.272  14.393   3.877  0.0764 -0.2234  0.1004
20689W        W36823  13.740  14.346  12.929 -0.1284  0.0868 -0.1518
20690W        W36824  16.977  14.085  14.470  0.0441  0.0406  0.0328
20691W        W36825   4.684   4.407  11.601  0.1418 -0.1956 -0.2085
20692W        W36826   9.053  14.174  14.849 -0.2681 -0.3341  0.3143
20693W        W36827  14.664  13.732  14.497  0.5447 -0.1090  0.0919
20694W        W36828  15.944  11.448   2.053 -0.0133  0.0261 -0.0039
20695W        W36829   2.144   9.179  10.963 -0.2783  0.1223  0.0025
20696W        W36830  13.548   3.051   4.581 -0.1142  0.0801 -0.1367
20697W        W36831  12.545  10.209   4.774  0.1121 -0.0192  0.0204
20698W        W36832  18.529  14.902   1.262 -0.0259  0.1441 -0.0008
20699W        W36833   6.282  10.351  10.689  0.1978  0.1612  0.2224
20700W        W36834  14.326  15.417   3.783  0.1170  0.0475 -0.0030
20701W        W36835  18.541   0.891   1.022  0.1395 -0.4718  0.0564
20702W        W36836  17.056   6.881  11.632  0.0912 -0.1054 -0.2333
20703W        W36837   6.587  18.878   0.531 -0.0740  0.0230  0.0546
20704W        W36838  18.406   3.359   2.190  0.0123  0.0315 -0.0578
20705W        W36839  12.256   1.241   2.986 -0.2034  0.0589 -0.2523
20706W        W36840   8.447   5.619  11.129  0.1365  0.0977  0.0242
20707W        W36841  13.652   5.096  14.953 -0.1830  0.0074 -0.4438
20708W        W36842   5.710  16.241   5.009 -0.3641 -0.3478  0.1434
20709W        W36843  11.653  17.633  13.742 -0.0885  0.1347 -0.2294
20710W        W36844   8.417   8.239   0.655  0.0789  0.0708 -0.0021
20711W        W36845  14.847   2.904   2.834 -0.1061  0.1019 -0.0023
20712W        W36846   3.144  18.930  13.720 -0.6095 -0.0707 -0.1194
20713W        W36847  17.497  17.284  13.411 -0.1283  0.0437 -0.1137
20714W        W36848  14.733   0.331  13.457 -0.1495  0.2324  0.1103
20715W        W36849  14.442  18.738  12.509  0.1423 -0.2186 -0.3077
20716W        W36850  12.193  14.744   0.033 -0.1123  0.0538  0.1363
20717W        W36851  11.181  15.597   4.251  0.4918  0.0069 -0.0765
20718W        W36852  12.005  12.530  12.165 -0.1373  0.3613  0.0476
20719W        W36853  14.554  10.577  13.266 -0.2901  0.1940 -0.1187
20720W        W36854  17.779   5.211  11.734  0.1960  0.0478  0.0655
20721W        W36855   9.723   7.661   1.625  0.1826  0.1485 -0.2242
20722W        W36856   7.035   2.941   0.058 -0.1569  0.0442  0.6154
20723W        W36857  18.955   0.870   1.780 -0.2426  0.4406 -0.1848
20724W        W36858  17.464   6.530  11.532 -0.0960  0.0071 -0.0671
20725W        W36859   7.977  17.526   0.567  0.0436 -0.0658  0.1449
20726W        W36860   1.638  18.242  11.329  0.0915 -0.2771 -0.0017
20727W        W36861  16.695   2.490   2.096  0.2397  0.1008  0.0823
20728W        W36862   7.491   5.305  13.820  0.0448  0.0681 -0.1438
20729W        W36863  12.661  15.301   1.868  0.0257 -0.2963 -0.1517
20730W        W36864  18.876   4.281  13.818 -0.1560 -0.1364  0.1179
20731W        W36865   0.824  12.601   1.859 -0.0434 -0.1256 -0.0303
20732W        W36866  10.650   9.518   0.497  0.0067  0.0936 -0.0677
20733W        W36867   5.360  12.596   5.620  0.2286 -0.0745  0.0910
20734W        W36868  17.979  15.334  14.782  0.2075 -0.0446  0.3003
20735W        W36869   2.299  10.706   1.293  0.0370 -0.0067 -0.1112
20736W        W36870   1.581  14.793   0.875 -0.0619  0.2140 -0.1943
20737W        W36871  12.647   7.114  14.558  0.2522  0.3655  0.0605
20738W        W36872  18.134  15.993   1.999 -0.0699  0.1363  0.1341
20739W        W36873  12.383   3.569   2.981 -0.0415 -0.0446  0.0199
20740W        W36874   9.421  12.984   4.832  0.4456 -0.1434 -0.2771
20741W        W36875  13.367   1.220   1.911  0.1312 -0.2065 -0.0885
20742W        W36876  17.865   2.031   5.130  0.5316 -0.2090  0.0770
20743W        W36877   0.409   7.347  10.711  0.1348 -0.1826  0.2043
20744W        W36878   2.492   4.938  12.761  0.0257  0.0178  0.2955
20745W        W36879   6.141  13.206  13.002 -0.1625  0.2995  0.0746
20746W        W36880  18.444   8.765  13.695 -0.1353  0.0287 -0.0778
20747W        W36881   5.458   9.997   0.100  0.0802 -0.2706 -0.1123
20748W        W36882   2.865  11.470  10.704 -0.1304 -0.1097  0.0101
20749W        W36883  14.694  15.723   0.978 -0.2104  0.0617  0.0240
20750W        W36884   5.161   9.975  14.498 -0.2076  0.1818 -0.1768
20751W        W36885   8.180  10.593   0.142  0.3119  0.1720  0.0200
20752W        W36886  13.129  12.113   4.744 -0.0058 -0.0774 -0.0948
20753W        W36887   5.622   9.356  14.549  0.2374 -0.1066 -0.0392
20754W        W36888  11.784   6.525   0.031 -0.1643 -0.2417 -0.1167
20755W        W36889  15.661   4.630  10.806 -0.2157  0.1049  0.0369
20756W        W36890   2.717   0.173  11.526 -0.2609 -0.7392 -0.1740
20757W        W36891  14.473  11.491  14.956 -0.1133  0.1450  0.0285
20758W        W36892  16.345  15.809   4.701  0.0634 -0.0261 -0.4072
20759W        W36893  16.551   9.784  10.853 -0.3135  0.1472  0.0734
20760W        W36894  11.715  10.671   0.233  0.0979 -0.2441 -0.2666
20761W        W36895   7.903   8.969   3.565  0.0571  0.1183  0.2426
20762W        W36896   2.925  15.500  13.492  0.0768  0.0404  0.3399
20763W        W36897  16.833  13.633  13.681  0.1692  0.0324 -0.0160
20764W        W36898   7.523   2.863  10.879 -0.0899 -0.0585 -0.0964
20765W        W36899   4.920   8.246   1.072 -0.0061  0.4670  0.0519
20766W        W36900  10.377   5.614   3.630  0.0959 -0.0351 -0.2334
20767W        W36901  14.540   5.192   1.271 -0.3089 -0.3570 -0.2255
20768W        W36902  18.518   4.489   5.174 -0.1407 -0.3219  0.0951
20769W        W36903  12.750   9.791   1.883  0.2045  0.0595  0.1088
20770W        W36904  18.127  13.581   2.743 -0.0045 -0.0654  0.1723
20771W        W36905  17.035  16.807   5.535  0.0331 -0.0929 -0.1381
20772W        W36906   8.480   2.058   0.369  0.0158  0.0760 -0.0824
20773W        W36907  12.065   2.537  14.889 -0.1195 -0.0154  0.0304
20774W        W36908   5.369   9.945   2.845  0.3563 -0.1271 -0.2375
20775W        W36909   5.051  17.906   2.136  0.1105 -0.3232  0.1502
20776W        W36910   5.165  17.426  13.573 -0.0662 -0.1767 -0.2090
20777W        W36911  13.894  16.226  14.921  0.3013  0.0220  0.0177
20778W        W36912  17.135   9.788  12.445 -0.0092 -0.2763  0.6619
20779W        W36913   5.550   3.273   3.524 -0.0711 -0.3049  0.1462
20780W        W36914   5.691  13.500   1.224  0.1416 -0.0410  0.1210
20781W        W36915  14.232   5.145   2.453 -0.3167  0.3099 -0.1112
20782W        W36916  11.291   4.221  11.304  0.4897  0.1046 -0.1035
20783W        W36917   1.398   6.278  14.118 -0.0054  0.1705 -0.0946
20784W        W36918   0.513  11.006  11.556 -0.1194 -0.0400  0.3105
20785W        W36919  16.582   9.042   5.494 -0.0038 -0.2126  0.2037
20786W        W36920  13.031   7.220  10.679 -0.2302 -0.1421  0.0244
20787W        W36921  11.391   3.804   4.712  0.1160 -0.0860  0.1629
20788W        W36922   1.080   1.554   5.575 -0.2659  0.0875  0.1408
20789W        W36923  16.237   7.085  12.819 -0.5534 -0.2642  0.2811
20790W        W36924   5.164  14.821  10.841  0.5333 -0.0659  0.3822
20791W        W36925   9.266   4.661   4.498  0.0722 -0.0640  0.0325
20792W        W36926   9.709   9.818  13.091  0.1264 -0.4228  0.1110
20793W        W36927   2.096  13.516   1.151  0.0012  0.1407  0.3291
20794W        W36928  10.816   3.336  11.110 -0.0624  0.0832  0.5049
20795W        W36929   9.545   9.994  10.937 -0.2265  0.5349 -0.0102
20796W        W36930  17.992   6.759  13.931  0.1337 -0.1535  0.1704
20797W        W36931   7.077  18.353  12.190  0.3817  0.3741  0.3461
20798W        W36932  14.413   7.121  11.333  0.0729  0.0514 -0.0722
20799W        W36933   6.335   9.593   2.537 -0.1125  0.0270  0.0800
20800W        W36934   9.863  14.067  11.420  0.1675  0.2960 -0.1524
20801W        W36935   9.452  13.753  13.515  0.0058  0.0072 -0.0208
20802W        W36936  13.856  11.274  14.334  0.3764 -0.0114  0.0699
20803W        W36937   5.135  16.701   4.436 -0.3113 -0.0858 -0.0537
20804W        W36938   6.500   1.884  12.049 -0.4625 -0.0526  0.3028
20805W        W36939   2.106   4.550  10.598  0.0638  0.1672 -0.0924
20806W        W36940  16.264   5.271  11.225  0.3475  0.0727 -0.0418
20807W        W36941   3.175  10.121   4.756 -0.0686  0.0865  0.2711
20808W        W36942  14.185  10.594  10.717 -0.2176 -0.0092 -0.2886
20809W        W36943   3.289  16.952  13.944  0.0095  0.1819 -0.1334
20810W        W36944   5.117   6.551   0.033 -0.0633  0.2252  0.2302
20811W        W36945  11.030   4.530  11.021  0.2607 -0.2053 -0.0616
20812W        W36946  10.669  14.378   1.131 -0.0682  0.2442 -0.1828
20813W        W36947  18.536  14.414   1.730  0.1858  0.0782  0.1062
20814W        W36948  15.276   5.565   2.709  0.2265  0.0138 -0.1654
20815W        W36949   0.466   8.818   2.033 -0.1535  0.1720  0.1107
20816W        W36950   9.389  16.326  11.803  0.2370  0.1651 -0.3708
20817W        W36951   1.277   1.458  14.796  0.0227  0.1717 -0.0398
20818W        W36952  13.568   2.872  10.650 -0.0616  0.0745  0.2093
20819W        W36953   3.474   3.737   2.812 -0.0501  0.0159 -0.1543
20820W        W36954   4.948   6.002   1.036  0.1444  0.0839  0.1767
20821W        W36955   0.706  15.806   2.145 -0.1430  0.2062  0.2681
20822W        W36956  14.913   9.664   4.958 -0.1350 -0.1712  0.2584
20823W        W36957   3.281   0.314  11.173  0.2721  0.1469 -0.1534
20824W        W36958   6.202  11.152   5.288 -0.1263 -0.1170 -0.0577
20825W        W36959   7.996   0.149  13.554 -0.1283 -0.2977  0.1163
20826W        W36960  10.326   4.208   5.628  0.0497  0.2094  0.0475
20827W        W36961   1.838  13.830  14.145  0.0834  0.0903  0.2493
20828W        W36962   2.603  11.002   0.380  0.0998  0.2403  0.4156
20829W        W36963   9.316   0.557  14.908  0.0890 -0.3746 -0.0703
20830W        W36964   8.933   4.395   3.247  0.1339  0.1065  0.0112
20831W        W36965  10.034  10.899  12.369  0.0154 -0.4694  0.2760
20832W        W36966   8.776   8.876  10.505 -0.1651 -0.1191  0.0896
20833W        W36967   7.466  12.481  10.076  0.1563  0.1064 -0.0204
20834W        W36968  11.897  16.521   0.299  0.0633 -0.0078 -0.2685
20835W        W36969  11.774  13.446  13.323 -0.1351 -0.2057 -0.2757
20836W        W36970   7.561  14.186  12.365 -0.2344  0.0995 -0.0769
20837W        W36971   3.675   6.192  12.336 -0.1390  0.0643 -0.0275
20838W        W36972  10.013   2.150   1.965 -0.1648 -0.0793 -0.0817
20839W        W36973  18.741  12.214   2.693  0.1891 -0.0815 -0.1688
20840W        W36974   9.376  14.292  15.217 -0.1356  0.1718  0.3332
20841W        W36975   1.532  13.611   3.407 -0.2405  0.0972  0.2332
20842W        W36976  18.427  13.846  10.644 -0.0335  0.0168 -0.2025
20843W        W36977   9.523   6.657  13.103  0.0920 -0.1272 -0.1757
20844W        W36978   0.784  11.739   1.618 -0.3654  0.3960 -0.2098
20845W        W36979  18.116   6.539   3.663 -0.0563 -0.1207 -0.1300
20846W        W36980   0.041  17.682   0.102  0.2803  0.0288  0.0163
20847W        W36981   5.998  13.709   3.077  0.2495  0.2232  0.4231
20848W        W36982   9.644  12.244  14.452 -0.1006 -0.1459  0.1172
20849W        W36983   3.128  15.692   3.087  0.0382 -0.1080 -0.0516
20850W        W36984  16.778  15.635   0.301 -0.0286  0.1597  0.2065
20851W        W36985  18.853   5.338   3.565  0.1400 -0.4317 -0.0076
20852W        W36986  13.149   6.378   3.896 -0.0153 -0.0254  0.3620
20853W        W36987   0.965  13.128   4.448 -0.3115 -0.1760  0.2003
20854W        W36988   2.940   8.087   1.160  0.0180 -0.0408  0.0011
20855W        W36989  18.622  18.313   3.427 -0.1576  0.2370 -0.2041
20856W        W36990  17.893  10.833   5.028  0.1652 -0.5246  0.1236
20857W        W36991   0.924   2.549  11.043 -0.0647  0.2668  0.1825
20858W        W36992  17.544   3.779  14.840 -0.0522  0.0689 -0.0031
20859W        W36993  13.600   7.175  13.062 -0.1945 -0.1606 -0.1266
20860W        W36994  13.920   5.907   2.934 -0.2619  0.1843 -0.0215
20861W        W36995   8.377  10.853  11.458 -0.1982 -0.0330 -0.1632
20862W        W36996  13.978  18.163  11.117 -0.0484  0.0136  0.2594
20863W        W36997  11.551   8.809   2.551  0.3758 -0.1555 -0.0227
20864W        W36998   0.678   7.599  14.145  0.0355  0.0170 -0.4087
20865W        W36999   3.085  13.153   5.039  0.0637  0.0681  0.1837
20866W        W37000   3.357   2.131  13.595  0.0446  0.1676 -0.1111
20867W        W37001   2.669  15.092   6.089 -0.0102  0.2151  0.0005
20868W        W37002   4.650  13.313   1.936 -0.3521  0.0869  0.1110
20869W        W37003  11.230  15.181   0.889  0.2920 -0.1814 -0.1700
20870W        W37004   4.464   8.160   2.847 -0.1173 -0.0993 -0.3396
20871W        W37005   1.750   0.381  14.293 -0.0327  0.4037 -0.1090
20872W        W37006   4.140  17.462   1.411 -0.0212 -0.0683 -0.3564
20873W        W37007   7.513   4.291   2.765 -0.0228 -0.0796 -0.1919
20874W        W37008  10.386   1.322  15.007  0.3215  0.3256 -0.2575
20875W        W37009   6.366   5.662  11.671 -0.0615  0.3755  0.1213
20876W        W37010   4.633  13.808   3.054 -0.0742  0.2128 -0.1174
20877W        W37011   4.218   7.528  11.752  0.0498 -0.1156  0.0300
20878W        W37012  18.247  12.142  14.597 -0.0287  0.0832  0.2118
20879W        W37013  12.287   5.601   1.047 -0.0875  0.2523 -0.3057
20880W        W37014   8.636  10.496  12.154 -0.0355  0.1820  0.0337
20881W        W37015   9.056  11.809   4.994 -0.0986  0.1573  0.0485
20882W        W37016   1.522  13.647  12.038  0.0775 -0.1861 -0.0593
20883W        W37017   7.509  11.817  12.033  0.3330  0.0150  0.0203
20884W        W37018   0.019  18.942   1.177 -0.1455 -0.2061 -0.1601
20885W        W37019  12.145  14.520  12.980 -0.0190  0.2933 -0.2527
20886W        W37020   9.175   8.859   0.582  0.1299 -0.0596 -0.0067
20887W        W37021   7.122  18.998  11.851  0.0204  0.1353  0.2549
20888W        W37022  16.746  12.408  14.702 -0.0568  0.2278  0.1262
20889W        W37023  16.410   0.795  10.723 -0.3395 -0.3330 -0.0847
20890W        W37024  10.152  16.568  10.788 -0.0465  0.2414  0.0916
20891W        W37025  12.442   4.440  13.305  0.4589 -0.1550  0.1133
20892W        W37026   1.123   9.753   2.603 -0.1394 -0.1005  0.0192
20893W        W37027   5.444   6.950   3.739 -0.1830 -0.0962  0.0205
20894W        W37028  13.280   7.131  12.546  0.1104  0.0134 -0.0920
20895W        W37029   8.242   9.063  10.317  0.2069 -0.1183  0.1299
20896W        W37030  11.558   6.064  15.253 -0.0709 -0.0232 -0.0278
20897W        W37031  15.307  12.801  13.941 -0.0885 -0.1414  0.1028
20898W        W37032   3.604   1.285   2.893  0.1443 -0.1981  0.0177
20899W        W37033   9.866  13.400   4.783  0.3371 -0.1199 -0.1055
20900W        W37034  15.098   7.864  12.096  0.1987 -0.2322  0.0685
20901W        W37035  12.778  10.351   5.626 -0.0250 -0.0574 -0.0704
20902W        W37036   7.970  11.100   3.519 -0.0288  0.0357  0.0172
20903W        W37037   4.502   7.848  12.193 -0.1981 -0.0974 -0.0656
20904W        W37038   9.302   3.475   3.798 -0.2580 -0.0548  0.1017
20905W        W37039   4.924  11.234   1.296  0.0302 -0.2146 -0.0199
20906W        W37040   1.751  13.657   1.579  0.1494  0.3046  0.1110
20907W        W37041  15.185   4.915  14.403  0.1410 -0.0868  0.0782
20908W        W37042  12.643   6.548   1.713  0.3106  0.0165 -0.1155
20909W        W37043   5.256   1.310   0.564  0.0787 -0.1735 -0.0873
20910W        W37044   7.710  18.258   3.992  0.2547  0.1405 -0.3817
20911W        W37045  12.743   5.066  14.019  0.0647 -0.0218 -0.0351
20912W        W37046  12.715  11.917   1.129  0.0649  0.0809 -0.1046
20913W        W37047  15.589  10.447   1.514  0.0299 -0.1298  0.1649
20914W        W37048  11.114   0.560  12.493  0.2361  0.3379 -0.3378
20915W        W37049   7.505  18.783  12.241  0.0920  0.0072 -0.1901
20916W        W37050  12.634   4.622   2.695  0.1483 -0.0019  0.0161
20917W        W37051   7.747  12.243  11.697 -0.1184 -0.1807  0.1101
20918W        W37052   8.365   8.253   4.072  0.0424  0.1034 -0.0695
20919W        W37053  11.966  15.853   1.278 -0.0506  0.0123  0.1448
20920W        W37054   1.002   9.080   0.706  0.1771 -0.0307  0.1740
20921W        W37055  11.124   8.334  12.218 -0.1547  0.0137 -0.0879
20922W        W37056  12.231   1.864   0.330  0.1287  0.0404  0.0373
20923W        W37057  14.125  18.518  11.546  0.2540 -0.1686  0.0952
20924W        W37058   4.748   7.644  13.096 -0.0628 -0.0162  0.1697
20925W        W37059  15.170  15.629  12.754  0.1224  0.0546 -0.2193
20926W        W37060  14.347  18.670   2.429 -0.2043  0.0608 -0.0821
20927W        W37061   5.130   3.533  11.367 -0.1430  0.1951  0.0025
20928W        W37062   8.624   8.291   4.488  0.2761  0.1540 -0.0490
20929W        W37063  18.491   0.432  12.025  0.0325 -0.3391 -0.1960
20930W        W37064  10.093   9.783   2.107 -0.3044  0.0252  0.5480
20931W        W37065   4.171  15.968  14.772 -0.0838  0.6088 -0.0513
20932W        W37066   1.900   5.711   2.057  0.1425 -0.1283 -0.1050
20933W        W37067   7.229   6.862   2.558 -0.3160 -0.3089  0.3090
20934W        W37068  18.092   4.931   1.009  0.0086 -0.0370 -0.0323
20935W        W37069   8.211   6.928  13.878 -0.3769  0.2117  0.0301
20936W        W37070   5.261  18.021  13.330 -0.2211 -0.1479  0.1731
20937W        W37071   5.653   1.500  14.074  0.1119  0.0136  0.0131
20938W        W37072   9.207   6.194  11.306  0.0631  0.1387 -0.2616
20939W        W37073   4.394   5.645   2.891 -0.4304  0.0526  0.0968
20940W        W37074   1.000   2.020  13.017  0.2405  0.0084  0.0641
20941W        W37075   1.638   9.708  11.391 -0.1029  0.0130  0.2022
20942W        W37076   2.325   4.741   0.652 -0.1914 -0.0732  0.0589
20943W        W37077   3.138  17.741  12.404 -0.1022 -0.0743 -0.0671
20944W        W37078  15.539  13.628   1.254 -0.1027  0.1721  0.0118
20945W        W37079  15.723   9.043   3.666 -0.1347 -0.2528 -0.3237
20946W        W37080  15.839  11.299   1.198 -0.0604 -0.0750 -0.1023
20947W        W37081   1.372   3.636  13.671 -0.1507 -0.1511 -0.0461
20948W        W37082   1.944  15.051  12.800 -0.0145 -0.1162 -0.4072
20949W        W37083   4.887   0.747   9.602 -0.0931  0.0141  0.2128
20950W        W37084  17.217  11.983  11.006  0.0269  0.0695  0.0991
20951W        W37085  13.953  17.099   3.505 -0.1134  0.2146  0.2501
20952W        W37086   0.422   6.943  10.272  0.0201 -0.2529 -0.0171
20953W        W37087   2.826  14.867  11.050  0.1765 -0.2122  0.2101
20954W        W37088   0.061  10.222  13.060 -0.1387 -0.0902  0.1462
20955W        W37089   8.402  13.082  14.546 -0.0636  0.2962  0.1966
20956W        W37090  18.534  15.285  14.255  0.1401 -0.0847  0.3672
20957W        W37091  18.453  13.315   2.486 -0.1659  0.0263  0.1421
20958W        W37092   3.547   2.471   2.468  0.0054 -0.1550 -0.0179
20959W        W37093   9.463   4.299   0.604 -0.2736  0.0017 -0.1540
20960W        W37094   5.101  18.699  12.339  0.0320  0.0272  0.0322
20961W        W37095   7.584   1.225   2.015  0.3006  0.1046  0.4474
20962W        W37096   9.075   9.159   2.637 -0.2248  0.2747  0.0841
20963W        W37097   5.198  15.312  14.413  0.2342  0.2546  0.0080
20964W        W37098  18.739   2.022   5.702 -0.0970 -0.1635  0.3232
20965W        W37099  13.641  18.556   5.500  0.1430 -0.0023 -0.1789
20966W        W37100   5.741   3.627   4.610  0.2762 -0.2172 -0.0151
20967W        W37101   2.960  13.052  10.852  0.1113 -0.0813  0.2307
20968W        W37102  11.536   3.651   2.680  0.2679 -0.1762 -0.0200
20969W        W37103   8.752  17.300  15.078  0.0971  0.0223  0.1336
20970W        W37104   0.941  11.284  12.319 -0.1212  0.0525  0.0407
20971W        W37105   8.310   0.830   2.822 -0.3285  0.0385  0.1572
20972W        W37106  12.392  10.056   1.626  0.1123  0.0294 -0.4166
20973W        W37107  13.729   4.988   2.566 -0.3824  0.1041  0.3748
20974W        W37108   4.887  18.259   9.554 -0.0298 -0.1131  0.1153
20975W        W37109  17.243  15.679   0.058  0.2578  0.0528  0.0851
20976W        W37110   8.616  15.280   9.812  0.0400  0.2924  0.2041
20977W        W37111   5.003   8.706   5.274  0.1660 -0.2824  0.1303
20978W        W37112   9.568  11.817  13.584  0.2697 -0.0942 -0.2946
20979W        W37113   1.568   2.070  13.567  0.2569  0.0675 -0.0617
20980W        W37114   4.588  16.663  15.252 -0.0444  0.2410 -0.3039
20981W        W37115   1.115   5.789   3.319 -0.0142 -0.0211  0.2131
20982W        W37116   8.075  10.268  14.442  0.3103  0.3011 -0.2489
20983W        W37117  12.857   6.755   3.061  0.1676  0.0021 -0.3407
20984W        W37118   1.978  13.349  14.205 -0.1553  0.1748 -0.2138
20985W        W37119  16.206  14.925   0.168  0.0475  0.2802 -0.1550
20986W        W37120  16.334  13.352  10.875  0.0329  0.8186 -0.2325
20987W        W37121   1.041  13.906   3.657 -0.0129  0.2398  0.3100
20988W        W37122  12.018  10.038  14.407  0.0456 -0.1460 -0.2060
20989W        W37123  18.875   4.567   1.937 -0.0705 -0.2460  0.0201
20990W        W37124  14.020  16.589  12.088  0.1518  0.0832  0.0116
20991W        W37125  11.999   0.910   4.930  0.0475  0.1529  0.0628
20992W        W37126  18.814  12.694   1.926  0.0287 -0.0896  0.2411
20993W        W37127   9.741  15.100  12.465  0.0006  0.0572 -0.1774
20994W        W37128   8.715   3.909  10.877 -0.1731 -0.0726  0.1194
20995W        W37129   4.655   2.363  15.275  0.3065  0.0140  0.2232
20996W        W37130   2.482   9.166  12.335 -0.2758 -0.1602  0.1848
20997W        W37131  11.015  11.095   2.586  0.0083 -0.0749  0.1126
20998W        W37132   5.269  15.604   2.686 -0.0703  0.0619  0.0072
20999W        W37133   2.426  15.224  13.608 -0.1513 -0.2842  0.0346
21000W        W37134   3.824   9.847  11.143  0.0710 -0.0742  0.0292
21001W        W37135   2.710   9.793   4.520 -0.3201 -0.0294  0.0608
21002W        W37136  10.396   2.245  13.340  0.0681 -0.2175 -0.1754
21003W        W37137  11.090   1.117  14.758  0.0526  0.2507  0.1912
21004W        W37138   8.888   0.183  14.667 -0.0171  0.1758  0.0984
21005W        W37139   3.212  18.550   4.140 -0.1581 -0.4215 -0.1326
21006W        W37140   0.219   8.921   3.969  0.1920  0.2130  0.1948
21007W        W37141   4.505  17.877  11.602  0.0062 -0.1868  0.3426
21008W        W37142  12.315   5.296  12.771 -0.0820  0.2952 -0.2381
21009W        W37143  16.779  18.567  11.316 -0.1694  0.0903  0.0391
21010W        W37144   0.198   3.984  14.507 -0.0424  0.3455 -0.0281
21011W        W37145   4.280  18.260  13.931  0.1246 -0.1659  0.3764
21012W        W37146   3.993  13.734  14.727  0.0357  0.0577  0.2361
21013W        W37147   7.559  14.423   2.088 -0.2147 -0.0694 -0.0033
21014W        W37148   5.947   8.470  13.570 -0.0532  0.3031 -0.1657
21015W        W37149  15.632  12.931   2.196 -0.1699  0.2046 -0.0628
21016W        W37150  11.279  16.530   0.828 -0.0110 -0.1449 -0.0371
21017W        W37151  18.718  15.874  10.746 -0.1975  0.0077  0.3042
21018W        W37152   7.286   6.085  11.350  0.0013  0.0216  0.2068
21019W        W37153   6.542  16.131   5.086  0.2029 -0.0096 -0.1079
21020W        W37154  10.514  18.652   0.315  0.1506 -0.2036 -0.0958
21021W        W37155   9.050   6.749   2.145 -0.0384 -0.1286 -0.1824
21022W        W37156   4.545  13.318   2.832 -0.3602  0.2462  0.0670
21023W        W37157  18.531   5.100   0.355  0.1100 -0.0858 -0.2819
21024W        W37158   8.264  12.416  12.742  0.0831 -0.1773 -0.1220
21025W        W37159   7.686  10.745   0.866  0.0004  0.0722  0.0509
21026W        W37160   4.032  18.934   4.237  0.0344 -0.3985  0.0810
21027W        W37161   1.618   7.806   3.844  0.0442 -0.1418  0.0250
21028W        W37162  18.387   7.691   2.744 -0.1037  0.0621 -0.1028
21029W        W37163   5.904   2.943   3.749 -0.2798  0.1829  0.0534
21030W        W37164   8.667  13.634   9.956 -0.0984 -0.1702 -0.1054
21031W        W37165  15.319  10.278  14.931  0.2839  0.0991 -0.0700
21032W        W37166  18.951   8.847   2.063 -0.2264 -0.3352 -0.1530
21033W        W37167   7.554  18.164   9.428 -0.1056  0.1753  0.1733
21034W        W37168   9.023  11.723  11.329  0.1375 -0.0762  0.1445
21035W        W37169  18.627   0.368   3.914  0.1265  0.1833  0.3412
21036W        W37170   3.299   3.769  13.496  0.1683 -0.3888 -0.1132
21037W        W37171  18.268  11.242  15.121 -0.0813 -0.4474 -0.0904
21038W        W37172   7.794  11.355  10.751 -0.0828  0.4676  0.1188
21039W        W37173  14.371   6.583   4.418 -0.2968  0.0822  0.5091
21040W        W37174   5.713   6.010  13.084 -0.0025  0.1198  0.2555
21041W        W37175   3.872   5.708   4.759 -0.0717 -0.1764  0.2668
21042W        W37176   7.693   2.996  14.820  0.1609 -0.2122 -0.2016
21043W        W37177  11.831  13.235   1.106 -0.0109 -0.0930 -0.0548
21044W        W37178   1.784   3.693  13.385  0.1745 -0.1576  0.0634
21045W        W37179   8.855   5.375  14.418  0.5071 -0.1798 -0.1856
21046W        W37180  10.034  17.523  15.164  0.1113 -0.2733 -0.2362
21047W        W37181   4.012   2.015   0.718  0.1492 -0.1736  0.2735
21048W        W37182   6.051   0.147   1.855 -0.4396  0.1215 -0.2280
21049W        W37183  11.551   2.153  10.517 -0.1294  0.1558  0.0000
21050W        W37184  14.798   5.744   2.938 -0.1161 -0.0413 -0.0347
21051W        W37185   2.758  13.099  12.500  0.0727  0.0263  0.0617
21052W        W37186   2.998  12.662   3.571 -0.1351  0.1223 -0.2642
21053W        W37187  12.426   9.597  13.056  0.2209  0.1768  0.0108
21054W        W37188  18.526   2.828   5.783  0.1076 -0.0656  0.0719
21055W        W37189   4.374   3.592   4.954 -0.2279  0.4714 -0.1529
21056W        W37190   3.350   3.327  11.217  0.0134  0.0539  0.0481
21057W        W37191   9.538  17.500  14.091  0.0715 -0.0535 -0.2163
21058W        W37192   6.263  16.657   1.253  0.2075  0.0356  0.0211
21059W        W37193   8.045  12.806   3.594  0.0711  0.0351  0.1549
21060W        W37194   6.753   2.826  12.553 -0.0194  0.0498 -0.0462
21061W        W37195  11.727   7.071  11.988 -0.2649  0.0451  0.1560
21062W        W37196  16.856   2.955  11.324 -0.1132 -0.1000 -0.0968
21063W        W37197   0.225  13.226   0.387  0.2892  0.3118 -0.1661
21064W        W37198   4.876  11.597   0.194  0.2401  0.2664 -0.3086
21065W        W37199  14.863  14.039  12.391 -0.1316  0.1069 -0.4632
21066W        W37200   7.740   0.555   4.109  0.0747 -0.2989  0.0112
21067W        W37201   8.569   3.006  12.820 -0.0155 -0.0067 -0.2535
21068W        W37202   1.948  14.210   0.835 -0.2143  0.0537 -0.0996
21069W        W37203  10.167  10.519   4.448  0.0660  0.1672 -0.2267
21070W        W37204  12.571   3.489  13.340 -0.0587 -0.1577 -0.0370
21071W        W37205  11.150   2.416   4.557  0.2278 -0.0512  0.0299
21072W        W37206   0.291  13.560   4.123  0.2192  0.1089  0.1309
21073W        W37207   5.087  11.755  13.046  0.1968 -0.1451  0.2260
21074W        W37208  18.355   4.807   3.316 -0.4495 -0.2176 -0.2024
21075W        W37209  16.263  15.499  15.196 -0.1006 -0.2647 -0.2536
21076W        W37210   8.938   7.312  12.310 -0.1170  0.2765 -0.0992
21077W        W37211  13.852   9.257  10.751 -0.2270  0.0054  0.0394
21078W        W37212   0.133  11.278  12.463  0.1632 -0.0273  0.2850
21079W        W37213   9.279   9.646   4.828  0.1706 -0.1237  0.4449
21080W        W37214  16.036  13.605  15.242  0.1330  0.0832 -0.2108
21081W        W37215   7.523   3.730   5.777  0.0149  0.0482  0.1496
21082W        W37216   8.068   3.054   1.808  0.2726  0.0430 -0.0249
21083W        W37217   2.481   2.741  13.848  0.1476 -0.3248 -0.0543
21084W        W37218   8.058   3.176  13.263 -0.2312  0.0054 -0.0555
21085W        W37219   6.152  18.670   1.332 -0.2352  0.0618  0.0866
21086W        W37220   9.342  11.526   3.376  0.2717  0.1512  0.0480
21087W        W37221   9.099   1.291   0.356 -0.1550 -0.0117  0.3292
21088W        W37222   0.269  11.802   1.943  0.0773 -0.0115  0.1365
21089W        W37223   8.211   2.786  13.999 -0.1546  0.1019 -0.2388
21090W        W37224  12.503   9.878  14.391  0.1127 -0.2494  0.1736
21091W        W37225   7.357  18.134  13.657  0.0206  0.1799 -0.0948
21092W        W37226  11.766   0.087   4.937  0.0196  0.0800 -0.1769
21093W        W37227  12.975   0.901   1.982 -0.0531  0.1348  0.2628
21094W        W37228   2.826  13.992   3.350  0.1114 -0.0828  0.2093
21095W        W37229  13.710   3.941   5.743 -0.0256  0.1940 -0.1568
21096W        W37230   4.034   7.128   2.001  0.0396  0.2036 -0.5084
21097W        W37231  16.952  18.771   1.235 -0.1634 -0.1264  0.0198
21098W        W37232  15.166  17.049   5.470  0.2668 -0.0871  0.0280
21099W        W37233   3.734   9.879  12.513  0.0449  0.1107 -0.1316
21100W        W37234   6.906  16.897  10.723 -0.0472  0.0904 -0.1608
21101W        W37235  15.014   5.978  13.703  0.0676 -0.1964 -0.0342
21102W        W37236  14.166  12.874  12.432  0.0242  0.1760 -0.1522
21103W        W37237   4.449  11.725  12.292 -0.1016 -0.0933 -0.2019
21104W        W37238  11.754   5.456  12.970  0.3175 -0.4262 -0.0577
21105W        W37239   7.770   4.055  13.014 -0.2583 -0.0093  0.0459
21106W        W37240   3.527   4.966   3.242 -0.0897  0.0739 -0.1812
21107W        W37241  11.131  11.500  12.428 -0.0417  0.1633 -0.2589
21108W        W37242   1.494   9.729   1.885 -0.1663 -0.3388 -0.0189
21109W        W37243  16.727  17.556  14.384  0.4171 -0.0404  0.1005
21110W        W37244   6.996   2.765  10.616  0.2361  0.1448 -0.1119
21111W        W37245   8.657   5.364   4.353  0.1397  0.0929  0.2334
21112W        W37246  12.891  12.874   4.078  0.0017 -0.2747  0.1039
21113W        W37247  14.945   2.621   3.265  0.1827  0.1637 -0.1230
21114W        W37248  14.705   5.041   0.333 -0.3460 -0.0021  0.3227
21115W        W37249  15.887  11.807  13.116  0.1697  0.1528 -0.1262
21116W        W37250  12.062  15.909  12.401 -0.2686 -0.2249 -0.1473
21117W        W37251   8.240   8.218   1.966 -0.1991 -0.1238  0.1158
21118W        W37252   0.968   5.076  13.067 -0.0566  0.0370  0.1630
21119W        W37253  13.258  18.357   0.873 -0.4638 -0.2267 -0.1707
21120W        W37254  15.048   0.514   4.921 -0.0279  0.0584 -0.0654
21121W        W37255  15.995   0.957  13.471  0.1565 -0.1968  0.0862
21122W        W37256   7.728   2.926   2.157  0.0696 -0.2562  0.3933
21123W        W37257  14.452  13.850  15.016 -0.1189  0.2268  0.3533
21124W        W37258  17.315   1.945   1.656  0.2427 -0.1289  0.1739
21125W        W37259  12.051   3.703  12.820  0.3209 -0.2291  0.1354
21126W        W37260  16.346   6.586  12.612 -0.0587 -0.2339 -0.1759
21127W        W37261  11.353   4.935  11.762  0.1315  0.1907 -0.1994
21128W        W37262  11.126   1.449   0.631 -0.0048 -0.1558 -0.3843
21129W        W37263   5.895   6.483  10.185 -0.3382 -0.0459 -0.1795
21130W        W37264  14.893   6.272   3.106 -0.2619 -0.4347 -0.1036
21131W        W37265  16.410   1.591   0.168  0.2876  0.5460  0.0078
21132W        W37266  11.861   5.768   4.266  0.0630 -0.3754  0.3124
21133W        W37267  18.376   3.674   3.126  0.0454  0.0661  0.1764
21134W        W37268   1.244   1.475   3.771 -0.1107  0.1236  0.1158
21135W        W37269   1.216   0.268  15.123 -0.0354  0.0460  0.1493
21136W        W37270   7.329   6.489   0.100  0.0560  0.1342 -0.4076
21137W        W37271   0.122  14.830   3.277 -0.2338  0.1214  0.0259
21138W        W37272   8.794   1.720   0.596  0.0115  0.2127 -0.2454
21139W        W37273  10.990   2.444  12.438 -0.0712 -0.2668 -0.2174
21140W        W37274  10.794  15.862  12.262  0.0556  0.2437  0.1652
21141W        W37275  14.431   0.249  12.473  0.3633  0.0658  0.3407
21142W        W37276  16.230  14.744  10.828  0.2250  0.0953 -0.0561
21143W        W37277  16.896  18.477  11.742  0.1934  0.2747 -0.2530
21144W        W37278  13.700  14.454  15.173 -0.1933  0.0143  0.1801
21145W        W37279  15.302   0.096   0.369  0.3319 -0.0448  0.1312
21146W        W37280  13.416   7.649  11.822  0.1206 -0.2857  0.2016
21147W        W37281  17.730   6.414  13.016 -0.1665 -0.0994  0.0442
21148W        W37282   1.264   1.061   5.625  0.0712 -0.2308 -0.0467
21149W        W37283  15.661  16.613   0.896 -0.2160 -0.0521  0.2563
21150W        W37284   9.768  16.960  13.450 -0.0902 -0.0381  0.2670
21151W        W37285  12.018  10.360   1.351  0.0934 -0.0391  0.1692
21152W        W37286   3.496   4.307  12.134  0.0290 -0.1938 -0.2916
21153W        W37287   9.001   9.201   4.766  0.3922  0.0694  0.3497
21154W        W37288  14.277  12.487   0.065 -0.0646  0.1822 -0.1500
21155W        W37289   2.853   6.094  14.407 -0.4020  0.1574  0.4685
21156W        W37290  15.876   8.860  11.370  0.0472  0.2415 -0.0852
21157W        W37291   9.526  11.283  13.322  0.0880 -0.0705  0.1003
21158W        W37292  14.500   8.412  14.076  0.2651 -0.2277  0.3514
21159W        W37293  17.737   2.698  11.654  0.1137 -0.0476 -0.3541
21160W        W37294   7.824  14.418   0.539 -0.1635 -0.3157  0.0799
21161W        W37295   3.614   5.645  14.740  0.1213 -0.3339 -0.0475
21162W        W37296   7.509   3.624   5.219  0.0653 -0.0199 -0.2311
21163W        W37297   6.813   5.599  14.129 -0.1193  0.2122  0.1817
21164W        W37298  14.059   0.632   2.004  0.1763 -0.1142  0.2575
21165W        W37299   1.433   3.715  12.528  0.0697  0.1409 -0.0158
21166W        W37300   7.035   3.669  13.398  0.0541  0.0148  0.0474
21167W        W37301  10.322  10.281  11.011  0.1779  0.2497 -0.0871
21168W        W37302   7.562   5.943   2.441  0.0191  0.1917 -0.1355
21169W        W37303  16.174  17.082  10.825  0.0608 -0.0128  0.0108
21170W        W37304  15.741   9.241  13.201 -0.0156  0.1528 -0.0711
21171W        W37305   3.192  18.864   2.922  0.1408  0.3693 -0.1255
21172W        W37306   0.548  17.388  14.609 -0.1205  0.0822 -0.3570
21173W        W37307  15.795  15.015  15.098 -0.0894  0.0648 -0.2161
21174W        W37308  15.232   5.949  11.677 -0.0369 -0.5294 -0.1035
21175W        W37309  18.008  17.188  11.706 -0.0862 -0.0968  0.1504
21176W        W37310   7.183   5.146   0.457 -0.1142 -0.4449 -0.0855
21177W        W37311   6.560   6.795   4.668  0.1708  0.2416 -0.3048
21178W        W37312   8.442   4.769  13.858 -0.1245  0.0663  0.0541
21179W        W37313  12.029   4.560   1.487  0.0193 -0.0865 -0.2015
21180W        W37314   7.399  13.442  12.456 -0.0627  0.3100 -0.0351
21181W        W37315  17.368  10.029   1.296  0.0267 -0.1222 -0.1453
21182W        W37316   4.755   6.946  10.990 -0.1299 -0.1685  0.2400
21183W        W37317  13.466  17.390   4.306 -0.0194 -0.2126 -0.0401
21184W        W37318   7.310  12.791  14.079 -0.5864  0.3136  0.2066
21185W        W37319  16.341  12.628  12.006  0.1041  0.0381  0.1015
21186W        W37320  14.652   5.229  13.140 -0.0595 -0.0227  0.1477
21187W        W37321   7.194   8.514   1.952 -0.1216  0.0837  0.2793
21188W        W37322  16.756   7.933  12.990 -0.2643  0.0670  0.1823
21189W        W37323  17.494  18.867  14.779  0.2084 -0.0599  0.0637
21190W        W37324   3.202   9.154  12.926  0.2311  0.0990 -0.0628
21191W        W37325  15.931   1.851   1.466 -0.1556 -0.0533 -0.0781
21192W        W37326   0.818   2.418   3.067 -0.0166  0.0276  0.0156
21193W        W37327   5.432   0.297  10.448  0.2221 -0.0433 -0.0971
21194W        W37328   6.814  10.409   2.979  0.2039 -0.4214  0.2134
21195W        W37329  18.990   2.201  12.086 -0.5004 -0.1159  0.1065
21196W        W37330   8.736  15.744  14.781 -0.1896  0.0010 -0.3201
21197W        W37331  12.328  17.521   1.337  0.2734 -0.1471 -0.2964
21198W        W37332   4.664  17.661  13.766  0.2193  0.1563 -0.2994
21199W        W37333   1.168  18.228   2.379 -0.0762  0.1039  0.0284
21200W        W37334  14.056   4.655   2.442 -0.1209 -0.1017 -0.0392
21201W        W37335   0.439  17.398   0.316 -0.0498 -0.5635 -0.1843
21202W        W37336   6.017   9.310  11.481 -0.0651 -0.2520 -0.0841
21203W        W37337  13.957  15.611   0.247 -0.2874  0.0810 -0.0677
21204W        W37338   9.914  11.360   4.677 -0.1167 -0.2507  0.0561
21205W        W37339  12.577  16.608   2.959  0.0501 -0.2399 -0.1514
21206W        W37340   7.304  10.304   1.517 -0.0797  0.1051 -0.3185
21207W        W37341   1.007   3.390   4.189 -0.2575  0.0801  0.3582
21208W        W37342  10.235  18.435   1.169 -0.1503  0.0176  0.0134
21209W        W37343   2.049   7.932  13.611 -0.1518  0.0461  0.2466
21210W        W37344  14.410   7.645  11.322 -0.2406 -0.5200  0.2999
21211W        W37345   7.867  13.444  10.250  0.0413  0.0406  0.3444
21212W        W37346  16.555  14.618   0.012 -0.3449  0.0450  0.3788
21213W        W37347   0.891  17.194  10.530 -0.1674 -0.2376  0.0688
21214W        W37348  14.906  11.375  15.172  0.0389  0.3195 -0.1245
21215W        W37349   3.761   8.212   2.212  0.0820  0.2275  0.1119
21216W        W37350   6.587   0.112   4.277  0.1951  0.0704  0.1016
21217W        W37351   1.579   0.179  12.031 -0.1612  0.0498 -0.0863
21218W        W37352   8.937   6.506  10.347 -0.2382 -0.2196  0.1066
21219W        W37353  16.124   2.903   0.026 -0.2534 -0.2675 -0.2500
21220W        W37354   2.628  12.752  14.333 -0.2325 -0.4445  0.0951
21221W        W37355  10.487  10.609   5.020 -0.1161  0.2490 -0.1428
21222W        W37356   8.740   9.797  15.073  0.0102  0.1289 -0.3135
21223W        W37357  18.718  16.065  14.796 -0.1770  0.0280 -0.0941
21224W        W37358   4.837   4.834  10.641 -0.0601  0.1040  0.3525
21225W        W37359   3.391  11.709   5.501 -0.2114  0.2206 -0.0018
21226W        W37360  16.453   7.545   4.970 -0.0810  0.0754  0.1704
21227W        W37361  13.201   7.262   4.375 -0.3408 -0.0316  0.4562
21228W        W37362  15.081  18.447   2.531 -0.2902 -0.0204  0.0919
21229W        W37363   8.228   5.391  12.562 -0.0280 -0.1280  0.1288
21230W        W37364   2.421  18.083   1.805 -0.0780 -0.2186  0.1017
21231W        W37365   2.959  11.013  14.036  0.0101 -0.1168 -0.3483
21232W        W37366  14.222  10.610  12.872 -0.3204 -0.0150  0.2843
21233W        W37367   3.134   5.675   4.629  0.1945 -0.2884  0.0778
21234W        W37368   7.966  12.737   3.011 -0.0589 -0.2861  0.1057
21235W        W37369   6.823  13.226   4.766  0.1717 -0.2359 -0.1892
21236W        W37370   8.677   7.473  11.166 -0.0940 -0.2536 -0.0987
21237W        W37371  16.755  16.760   5.172 -0.0233 -0.2976  0.4044
21238W        W37372   5.637   7.924   2.760 -0.3741 -0.0524 -0.2465
21239W        W37373   6.321   4.478  12.274 -0.2746  0.0561 -0.1078
21240W        W37374   0.261   5.609   3.924  0.0393  0.1809  0.1957
21241W        W37375   2.793  13.259  11.243 -0.0816 -0.0243  0.0685
21242W        W37376  11.484   7.979   5.620 -0.1946  0.1810 -0.0721
21243W        W37377   6.666  15.593  11.289  0.2107  0.0180  0.1523
21244W        W37378  16.170  11.065  14.207 -0.0679  0.2886 -0.0004
21245W        W37379  16.691  17.506   2.892 -0.2577  0.0934 -0.1123
21246W        W37380   7.712  15.053  12.016 -0.1626 -0.0057  0.0205
21247W        W37381  12.393  13.013  14.942 -0.1255  0.1150  0.3185
21248W        W37382   8.347   7.903   0.259 -0.0491 -0.3345  0.0862
21249W        W37383  18.898  13.502  12.680 -0.4250  0.0650  0.3553
21250W        W37384   7.426  15.587  14.480 -0.2722  0.2066 -0.0490
21251W        W37385  16.445   9.882  11.339 -0.1230  0.0700  0.1403
21252W        W37386   9.620   1.870  10.550  0.0217 -0.2919  0.1536
21253W        W37387  18.407  15.574  11.037  0.1522  0.2289  0.0761
21254W        W37388   3.367   0.701  12.046  0.1037 -0.1614 -0.0085
21255W        W37389  17.349  17.569   4.092 -0.0921 -0.0661  0.1802
21256W        W37390  11.415   0.091   0.809 -0.0551 -0.1689  0.0654
21257W        W37391  12.577  11.802   0.028  0.0675 -0.2446 -0.0523
21258W        W37392  14.793   8.717  12.901 -0.3620  0.1034 -0.2138
21259W        W37393  16.618   7.720  10.942 -0.0164 -0.0351 -0.1115
21260W        W37394  14.802   1.291   3.976 -0.0341  0.0826 -0.2735
21261W        W37395   9.883   6.846  15.079  0.0965 -0.5046  0.0658
21262W        W37396   5.065   1.201   4.812 -0.1296 -0.1916  0.1598
21263W        W37397   5.378   4.168   2.502  0.0428  0.1846  0.0019
21264W        W37398   0.199   6.364  14.458  0.1839 -0.2456  0.0221
21265W        W37399   7.832   6.755   0.106 -0.0559  0.3097  0.2249
21266W        W37400  18.252   5.591  14.096  0.1104  0.0071  0.0168
21267W        W37401   4.220  10.742   1.866 -0.2579  0.2610  0.3032
21268W        W37402  16.682  14.146  11.138  0.2945  0.2483  0.2276
21269W        W37403  16.712   0.689   2.344  0.3042  0.0430  0.1814
21270W        W37404   4.523  12.325  14.243 -0.0137  0.3486 -0.0315
21271W        W37405  11.546  10.194   4.089 -0.0992  0.1140 -0.0214
21272W        W37406  15.056  16.664   1.239  0.0267  0.0754  0.1445
21273W        W37407   8.313   5.820   0.834  0.1280 -0.0303  0.2759
21274W        W37408  12.827  10.248  13.510  0.2830 -0.1896 -0.3379
21275W        W37409   9.390   7.053  15.111  0.1416  0.4638 -0.0225
21276W        W37410  12.644   4.825  14.551  0.1414  0.0265  0.1038
21277W        W37411  16.306   4.320  14.946  0.0298 -0.2032  0.0631
21278W        W37412   7.894  14.626  11.778 -0.3602  0.0209  0.2419
21279W        W37413   3.560  16.276  14.386  0.2272  0.1407  0.1404
21280W        W37414   8.890   3.054   9.447 -0.0445 -0.1674 -0.1535
21281W        W37415   9.581   2.735  11.753  0.4161 -0.2050 -0.1106
21282W        W37416  16.345  14.975   4.109 -0.0903  0.0197 -0.1371
21283W        W37417   3.856  17.142   1.836 -0.1883 -0.1318 -0.1171
21284W        W37418   2.603  10.467   5.602 -0.2941 -0.1102  0.1031
21285W        W37419   0.449   0.700   1.405  0.2822  0.2562  0.0127
21286W        W37420  18.440  16.194  13.901  0.3132 -0.0243 -0.2048
21287W        W37421   4.423   9.396   0.524 -0.0424  0.1697 -0.0855
21288W        W37422   8.226   8.810   2.250  0.0728  0.0490  0.3089
21289W        W37423   0.742  15.458  15.080  0.2742 -0.0122  0.2456
21290W        W37424  16.314  16.168   2.296  0.1075  0.1460 -0.1320
21291W        W37425   9.117   0.918  14.623 -0.1457 -0.2672 -0.0149
21292W        W37426   4.202  13.453   3.847 -0.2149 -0.3226  0.1834
21293W        W37427   4.090   0.200  14.531 -0.0670  0.2138  0.0200
21294W        W37428   2.562   7.176   1.085 -0.2049 -0.0788  0.1760
21295W        W37429   4.504   9.715  12.320  0.0742 -0.0305  0.0046
21296W        W37430   9.428  17.355   0.647  0.1469  0.0203 -0.0684
21297W        W37431   5.821   5.307  15.270  0.2426  0.1443 -0.2186
21298W        W37432   9.211   4.658  13.505  0.0739  0.1748 -0.0301
21299W        W37433   9.384  14.271   1.877 -0.0597  0.0936  0.2896
21300W        W37434   2.289   8.023  13.012  0.3564 -0.1097  0.1028
21301W        W37435  17.804   3.451  15.146 -0.1157  0.3258  0.1500
21302W        W37436  13.317  11.341  12.125  0.2384  0.1962 -0.0822
21303W        W37437   5.296  11.457  14.964  0.0007 -0.1806 -0.3392
21304W        W37438   1.520   9.337   4.400  0.1233  0.0908 -0.3134
21305W        W37439  17.281  10.518   1.291  0.0156 -0.0790  0.1175
21306W        W37440   6.589   9.901  10.974 -0.0439  0.3870 -0.0308
21307W        W37441   9.676   3.256   1.019  0.1726 -0.2338 -0.3212
21308W        W37442  10.644   1.243   5.778  0.0613  0.0193  0.3584
21309W        W37443   0.841  16.876   2.623 -0.0413 -0.2162  0.0710
21310W        W37444  14.841   6.568   4.676 -0.2731  0.0322 -0.0342
21311W        W37445  14.612   4.872  14.550 -0.2561 -0.1281  0.2652
21312W        W37446  15.255  14.156  14.031  0.0314 -0.0399  0.0570
21313W        W37447  18.622   3.135   3.177  0.0126 -0.2403  0.2362
21314W        W37448  12.441  15.102  15.097  0.2802 -0.2759 -0.3003
21315W        W37449   6.438  11.602   4.557 -0.1654 -0.0798 -0.0712
21316W        W37450   6.983  16.775   5.564 -0.1458 -0.0541  0.0691
21317W        W37451  11.447  13.265   2.734  0.0159 -0.0874  0.0919
21318W        W37452   1.824   4.970  13.444 -0.0667  0.1560  0.0044
21319W        W37453  13.254  14.286   3.946  0.0891  0.0839  0.0015
21320W        W37454  16.272  12.814  12.467  0.1414  0.0601  0.0787
21321W        W37455  15.690   7.204   5.580 -0.0380 -0.0575 -0.1356
21322W        W37456   3.418   6.620  12.399  0.2009 -0.0486 -0.2731
21323W        W37457  11.029   1.413  13.834  0.1928  0.0616 -0.3424
21324W        W37458  18.248   8.825   2.611 -0.3987  0.0991  0.0899
21325W        W37459   6.322   4.247   2.183  0.3385  0.0548 -0.1026
21326W        W37460  11.681  17.750  10.250 -0.0296 -0.0607  0.0933
21327W        W37461  12.105   3.686  13.641  0.1239  0.0231 -0.0569
21328W        W37462   9.119   8.930   3.703 -0.2183 -0.1620  0.3613
21329W        W37463  17.188  18.308   1.431 -0.1008 -0.1584  0.1863
21330W        W37464   9.573   0.382  12.141 -0.0887  0.4171 -0.1079
21331W        W37465   2.675  15.838  10.781 -0.1036  0.1045 -0.0629
21332W        W37466   4.382   1.135   2.386 -0.1045  0.2681 -0.1979
21333W        W37467   4.406  13.522  12.116  0.0606  0.0336  0.2292
21334W        W37468  14.281   1.498  11.849 -0.4492  0.3098 -0.1487
21335W        W37469  13.604   0.252  12.362  0.3131 -0.0617 -0.0200
21336W        W37470   2.949  15.167   4.507 -0.1595 -0.1100  0.1654
21337W        W37471  17.273   5.444  13.275  0.2512  0.1101 -0.3207
21338W        W37472  13.953  13.326   1.803  0.2973 -0.1355 -0.1237
21339W        W37473  13.699  18.635   3.239 -0.3173  0.0228 -0.0310
21340W        W37474   0.676   8.403   1.843 -0.0622 -0.3163 -0.0776
21341W        W37475   2.539   2.030  13.008 -0.2903  0.1927 -0.2056
21342W        W37476  15.580   5.760  13.310 -0.0715 -0.0878  0.2621
21343W        W37477   7.849   3.883   2.957  0.4185  0.1410  0.0437
21344W        W37478  10.431   7.197  12.218 -0.1454  0.1008  0.4084
21345W        W37479   9.677   4.697  13.480 -0.4640 -0.2630 -0.0640
21346W        W37480  17.735  10.417   3.906  0.3296  0.0294  0.0068
21347W        W37481   4.591  18.479  12.651  0.2576 -0.1646  0.2057
21348W        W37482   4.840   9.317  14.291 -0.0591 -0.2179 -0.0637
21349W        W37483   7.837   7.869  12.514 -0.2226 -0.0517  0.0654
21350W        W37484   3.588   0.487   0.509  0.3071  0.3491 -0.0852
21351W        W37485  14.587   1.392  12.746  0.2210 -0.0732 -0.2963
21352W        W37486  12.071   6.002   0.195 -0.0948 -0.4064  0.1444
21353W        W37487   7.464   3.522   2.913  0.0755 -0.3527 -0.1590
21354W        W37488   1.824  17.284   4.564  0.0809  0.0711  0.2410
21355W        W37489  13.864  17.451  14.760  0.1697  0.1928 -0.0955
21356W        W37490   7.039   6.692   4.901 -0.0916  0.1789 -0.1645
21357W        W37491  10.142   2.225   2.547 -0.2972 -0.1862 -0.4468
21358W        W37492   2.863  17.293  14.114  0.0021  0.0049 -0.1913
21359W        W37493   4.007  18.967   1.219 -0.2955  0.4975 -0.0583
21360W        W37494   2.438  12.790  15.057 -0.2569 -0.2007 -0.0947
21361W        W37495  10.519  18.999   2.330  0.0276  0.0315 -0.1849
21362W        W37496  18.574   0.092   1.251  0.0516 -0.1985 -0.1571
21363W        W37497  11.002  16.167   2.525  0.0679  0.0868  0.0965
21364W        W37498   1.101   0.805   3.590 -0.6821 -0.0788  0.0054
21365W        W37499   6.420   3.416  11.745  0.0870  0.0300  0.0605
21366W        W37500   4.012   2.152  12.274 -0.1167  0.1284 -0.1498
21367W        W37501   4.074   2.570  15.217 -0.0395 -0.1218 -0.4034
21368W        W37502   7.571   6.618  10.408 -0.1708  0.0867 -0.3656
21369W        W37503   5.011  10.876   4.930 -0.0159 -0.0976 -0.1191
21370W        W37504  10.862  16.662  14.861  0.0090  0.0954  0.0795
21371W        W37505  10.000   1.029  13.542  0.0690  0.1005 -0.1652
21372W        W37506   5.233  16.656  14.694 -0.1551  0.1968 -0.1683
21373W        W37507  15.667  17.779  10.883  0.2260 -0.4035  0.1801
21374W        W37508   4.014  14.172   3.538  0.1518 -0.0976 -0.1260
21375W        W37509  18.084   1.810   0.534 -0.0994 -0.0746  0.0088
21376W        W37510   8.838   3.882  10.373  0.0165  0.0647  0.4085
21377W        W37511   0.984  17.321  14.364  0.3312  0.4169 -0.0328
21378W        W37512   6.590   2.286  10.637 -0.1127 -0.0786  0.0308
21379W        W37513   3.415   2.744  13.705  0.0856 -0.2314  0.0501
21380W        W37514   8.032   9.103  11.690  0.0215 -0.3385  0.2473
21381W        W37515   5.116  14.458  11.254  0.1357  0.1111 -0.0098
21382W        W37516  18.588   3.138  11.022  0.2329 -0.1697  0.6348
21383W        W37517   1.698  15.583  13.009 -0.1290  0.2572 -0.2452
21384W        W37518   0.304   8.493   3.145 -0.1162 -0.0783 -0.1001
21385W        W37519   0.412  12.723   3.685 -0.0388 -0.1105 -0.1875
21386W        W37520  13.956  13.773   2.201  0.0136 -0.0832  0.2096
21387W        W37521   3.159  13.364  14.792  0.1405 -0.0851  0.1824
21388W        W37522  15.792   3.906  14.832  0.0830  0.0727 -0.0875
21389W        W37523  17.383   7.745   3.081  0.0762  0.2890  0.1562
21390W        W37524   7.616   6.633   3.107  0.1783  0.3078  0.2189
21391W        W37525  13.339  18.280  13.174 -0.0259 -0.0846  0.0959
21392W        W37526   6.026  18.081   1.939  0.1004 -0.2745 -0.2257
21393W        W37527  13.801  17.058  11.799  0.0143 -0.3838  0.1336
21394W        W37528   7.877  12.174  10.381  0.0623  0.1286  0.0754
21395W        W37529  18.779   2.160   2.953  0.1821 -0.2757  0.2150
21396W        W37530   5.340  16.639  12.487 -0.0592  0.0648 -0.1971
21397W        W37531   1.199  18.165   0.965 -0.0133  0.3217  0.3381
21398W        W37532   8.604  12.348  11.001 -0.0783 -0.0601 -0.1285
21399W        W37533   9.514  11.127  11.761 -0.1402 -0.1330  0.1576
21400W        W37534  17.321  14.368   1.895  0.0087  0.0849  0.0265
21401W        W37535  14.813   0.879   1.197 -0.3357 -0.4717  0.0649
21402W        W37536   3.110   4.090   5.197  0.0029  0.1404  0.0075
21403W        W37537   1.787   4.631   2.172 -0.2255  0.1701  0.0013
21404W        W37538   4.341   3.525   3.594 -0.1884 -0.1688  0.0089
21405W        W37539   5.490   3.769   1.305 -0.0003  0.1045  0.0345
21406W        W37540   6.451   0.531  11.146  0.1604  0.0737 -0.2532
21407W        W37541  16.377   0.737   4.858 -0.0693 -0.2529  0.3295
21408W        W37542  15.016   0.092  13.060 -0.0028  0.1829  0.2743
21409W        W37543   7.713   0.369   3.401  0.3207  0.1529 -0.0756
21410W        W37544   5.259   4.642  14.904 -0.0495  0.4787 -0.2638
21411W        W37545   2.588  15.654   5.289 -0.0881  0.0344 -0.2418
21412W        W37546   3.115  14.606  13.356 -0.3114 -0.1388  0.0824
21413W        W37547  14.235  16.448  14.708 -0.0612 -0.2264 -0.1340
21414W        W37548  15.951  14.757   2.586 -0.1105 -0.1747 -0.3697
21415W        W37549  17.308   0.040  13.066  0.1915  0.2794 -0.3934
21416W        W37550   7.191   4.490   2.116 -0.3107  0.2449 -0.0940
21417W        W37551   4.192   8.014   1.484  0.2483 -0.1342 -0.1449
21418W        W37552  11.573  16.992   0.435  0.0833  0.1954  0.1087
21419W        W37553  11.622  17.300  14.966 -0.0573 -0.0424 -0.0971
21420W        W37554   0.930  18.599   4.951  0.3428  0.1229 -0.4357
21421W        W37555  17.808  11.867   4.179  0.1206  0.1953 -0.1620
21422W        W37556   2.566  12.453  12.298 -0.1628  0.0795  0.1266
21423W        W37557   2.422  16.668  12.141  0.1412 -0.2041 -0.1333
21424W        W37558  12.138   3.665  10.833 -0.1013  0.3835 -0.1231
21425W        W37559  13.321   1.739  14.995 -0.3682  0.1973 -0.1743
21426W        W37560   2.503  13.857  14.955 -0.0628  0.0578 -0.0947
21427W        W37561  10.435   0.907  11.704 -0.3420 -0.1371  0.0976
21428W        W37562   7.025   0.047   1.805 -0.0559  0.2022 -0.2188
21429W        W37563  15.236  11.460   4.894 -0.1772 -0.2006 -0.0279
21430W        W37564   7.437  15.881   1.037  0.0942 -0.1525  0.2909
21431W        W37565   8.068   1.345  11.591 -0.0784  0.1067  0.1128
21432W        W37566   2.597   5.789   3.225  0.0172  0.1443 -0.2916
21433W        W37567  13.600  17.927   1.762 -0.0890 -0.2808  0.1550
21434W        W37568   8.953  11.941   5.491  0.2773  0.2265  0.1341
21435W        W37569   7.142  11.963   1.571  0.0700 -0.0911  0.2798
21436W        W37570   7.251   6.387   1.587 -0.2760  0.1869  0.1375
21437W        W37571  18.115  14.236  13.406  0.0833  0.0517  0.1355
21438W        W37572   6.162  17.104   0.462  0.3450 -0.1578 -0.0929
21439W        W37573   0.704   9.892  13.474 -0.1136  0.0083  0.0624
21440W        W37574   9.735   4.421  12.195 -0.0312  0.0087 -0.0691
21441W        W37575   8.214   9.159  12.831 -0.0506  0.0472 -0.2188
21442W        W37576   0.715  10.072   2.343  0.2457 -0.2146 -0.1384
21443W        W37577   9.080  15.329  11.010 -0.0169  0.2029 -0.0832
21444W        W37578  14.703   3.140   2.439  0.1697 -0.0667  0.2654
21445W        W37579   5.049   8.365  10.568 -0.2858  0.0189 -0.0151
21446W        W37580  14.102   6.835  11.762  0.1926  0.0545  0.0344
21447W        W37581   0.408   5.275  12.420  0.1604 -0.2630 -0.0420
21448W        W37582   6.076   0.922  11.922 -0.2588  0.0455  0.0537
21449W        W37583   9.562   0.878  12.290  0.1803  0.2047  0.0593
21450W        W37584  18.965  10.581  14.549  0.2214  0.0001 -0.0076
21451W        W37585  17.041  12.547  14.329 -0.4294  0.1059  0.2004
21452W        W37586   2.529   2.504  12.125  0.1210 -0.0816  0.0198
21453W        W37587  16.476   7.979   3.534  0.0597  0.0224 -0.0939
21454W        W37588   6.234   6.563   0.524  0.0645 -0.0647  0.0220
21455W        W37589   3.473  15.679   1.725  0.1900 -0.1418 -0.0398
21456W        W37590   5.910  17.017   3.223 -0.0681 -0.3588  0.1726
21457W        W37591   9.964  14.314   1.473  0.2461 -0.0663  0.1400
21458W        W37592   6.662  12.103   1.358  0.0333 -0.1641 -0.0909
21459W        W37593  14.052  11.023   3.209 -0.0852  0.2027  0.1434
21460W        W37594   4.142  13.828  14.138 -0.0436 -0.1653  0.2427
21461W        W37595   0.146  13.581   0.013  0.2211 -0.1261 -0.0206
21462W        W37596  17.928  16.746   0.884 -0.0329 -0.0162  0.1649
21463W        W37597   1.928  16.836   0.642 -0.3346 -0.0311  0.3368
21464W        W37598  12.714   0.106  12.947 -0.1399  0.0719  0.1739
21465W        W37599   0.982  13.514  11.102 -0.2232  0.2655 -0.0046
21466W        W37600   7.728  11.543   2.840  0.0475 -0.2812  0.1223
21467W        W37601  13.488  11.819  14.631 -0.0730  0.0144 -0.2006
21468W        W37602  17.040   9.080   2.278 -0.0964  0.1848  0.0010
21469W        W37603  18.297   1.166  12.667 -0.0139 -0.1532  0.1627
21470W        W37604  10.180  12.238   5.847 -0.3245 -0.1759  0.1860
21471W        W37605   1.433   6.744   0.503 -0.0971 -0.1190 -0.2642
21472W        W37606  11.595  13.974  10.649 -0.1475 -0.0988 -0.0720
21473W        W37607   4.406   4.016   0.943  0.2055  0.2587 -0.2033
21474W        W37608   9.678   1.726  12.805 -0.2965 -0.0992 -0.0748
21475W        W37609  11.059   7.667   9.744 -0.0045  0.0197 -0.0107
21476W        W37610  15.397   1.217  12.034 -0.3646 -0.1416  0.1004
21477W        W37611  13.362   4.891  12.133  0.0157  0.0351  0.2589
21478W        W37612  11.453   2.651   3.855 -0.1033  0.0203  0.0466
21479W        W37613  16.865   3.450  13.997  0.1314  0.1248  0.1802
21480W        W37614   0.154   6.758   4.356  0.1117 -0.0289  0.0557
21481W        W37615  15.224   8.084  15.267 -0.2260 -0.1952  0.2549
21482W        W37616   7.149  13.326  10.653  0.2128  0.0613  0.4780
21483W        W37617   5.881  16.603  14.057  0.2357  0.4344 -0.1993
21484W        W37618  11.950   9.042   4.901 -0.0017 -0.0396 -0.2001
21485W        W37619   7.421  14.455   0.872  0.5334 -0.2510 -0.1094
21486W        W37620   5.820   2.416   0.303 -0.1008 -0.2842 -0.1704
21487W        W37621   0.875  16.323   2.659 -0.0606 -0.0479 -0.0292
21488W        W37622  14.418  13.924  13.804 -0.2179 -0.1170 -0.0824
21489W        W37623   1.333  18.471  10.933  0.0737 -0.0121  0.0294
21490W        W37624   8.425   2.903   2.914 -0.0099  0.1948 -0.3106
21491W        W37625  14.775  11.250  10.718  0.4247  0.1708  0.0858
21492W        W37626  14.256  18.612  11.044  0.4409 -0.1360 -0.2804
21493W        W37627   0.315   5.138  13.641 -0.1212 -0.2494  0.0059
21494W        W37628  10.474   6.091   4.496 -0.1624  0.3865  0.3774
21495W        W37629   3.255   6.150  14.002 -0.0176  0.0486  0.1238
21496W        W37630   0.461  17.344  14.072  0.2151  0.2150 -0.1174
21497W        W37631   7.731   8.345  13.243 -0.2321  0.0647 -0.2087
21498W        W37632  14.120   5.941   3.741  0.0281  0.0553  0.1081
21499W        W37633  15.399   9.653   2.626 -0.0646  0.0689  0.0387
21500W        W37634   3.560   1.632  11.585  0.1028  0.1840 -0.2430
21501W        W37635  18.378  18.173   1.990  0.2281  0.0589  0.1145
21502W        W37636  12.920  12.841  13.077 -0.2157 -0.0531  0.0053
21503W        W37637  13.365  15.534  10.796 -0.0075  0.0806  0.1828
21504W        W37638  13.983   7.462   3.707 -0.1482  0.3937 -0.0221
21505W        W37639   8.723  11.627   0.890  0.3879 -0.4505  0.0536
21506W        W37640  11.248  11.345  13.097  0.0499  0.1054 -0.4376
21507W        W37641  17.292  12.091  15.191  0.0712  0.0292 -0.0206
21508W        W37642  10.415   2.571   4.094  0.0426  0.1251 -0.4003
21509W        W37643  17.357   7.430  15.233 -0.0224 -0.0588 -0.2015
21510W        W37644   1.729  15.757  11.487 -0.0878  0.0814  0.1058
21511W        W37645   3.495   8.089  10.627 -0.1200  0.1217 -0.2578
21512W        W37646  13.743  15.742   4.515  0.3420 -0.1894 -0.0477
21513W        W37647  10.916   8.919  12.333  0.0119  0.0127  0.3044
21514W        W37648  18.913  10.144   1.259 -0.0332  0.1525 -0.0863
21515W        W37649   0.717  14.544   2.383  0.0799  0.2440  0.2347
21516W        W37650   0.615   6.881   5.571 -0.1487  0.0015 -0.0023
21517W        W37651   9.145   9.560  12.242  0.3075 -0.3582 -0.2703
21518W        W37652  10.126   2.059   0.654  0.5188 -0.2825 -0.1808
21519W        W37653   7.092  13.920   1.647 -0.3775  0.0334  0.2648
21520W        W37654  16.507  15.261   1.783 -0.1342 -0.0816  0.0450
21521W        W37655   5.622   8.614  13.222  0.4204 -0.0802  0.2775
21522W        W37656  18.967   1.316   1.598  0.3316 -0.0872 -0.2218
21523W        W37657   3.987   7.574  12.942  0.0631  0.3428  0.1262
21524W        W37658  14.066   3.217  11.270  0.0999  0.1282  0.0392
21525W        W37659   1.141  15.824   5.863  0.0904  0.0791 -0.1621
21526W        W37660   6.464   9.369  15.108  0.3375  0.0069 -0.0557
21527W        W37661   5.035   6.391  14.877  0.0054  0.3259  0.1746
21528W        W37662  17.611   9.662  12.602 -0.3041 -0.0867  0.0167
21529W        W37663   7.777   9.210   4.001 -0.1218  0.0536 -0.1175
21530W        W37664   4.342   4.309   4.470 -0.0282 -0.0678 -0.2430
21531W        W37665   3.944   5.515   5.233  0.1504  0.1878 -0.2518
21532W        W37666  17.075   8.092   1.734  0.0851 -0.3395 -0.0075
21533W        W37667  13.304   7.469   0.035 -0.3796 -0.1711  0.1539
21534W        W37668   5.074   8.972  11.236 -0.0348  0.2282 -0.0600
21535W        W37669   0.799  14.092   6.552  0.1219  0.1777  0.0122
21536W        W37670  12.348  13.013  11.434  0.2091 -0.1272  0.0127
21537W        W37671  17.618   0.793   2.965 -0.1181  0.0595  0.0558
21538W        W37672  11.615   1.754   4.930 -0.0593 -0.0775  0.0795
21539W        W37673   0.022  14.569  14.974 -0.0768 -0.0203 -0.2159
21540W        W37674   2.133   5.123  13.067  0.0838  0.0046  0.0041
21541W        W37675   4.440   1.447  13.854 -0.3209  0.0303  0.0386
21542W        W37676  17.330   3.639   1.992  0.1714 -0.1537  0.0741
21543W        W37677  17.643  12.938   2.036  0.3027  0.1980 -0.0932
21544W        W37678   9.793   9.507   1.224  0.1716 -0.2703 -0.0344
21545W        W37679   4.867   5.503   1.161  0.0092  0.1712  0.1437
21546W        W37680   5.446   1.101  12.451  0.0345  0.3527 -0.0386
21547W        W37681   8.603   1.363   3.132  0.3167 -0.2999 -0.0303
21548W        W37682  17.615   4.254  15.083 -0.2223  0.0003 -0.4942
21549W        W37683   3.804   7.345  14.084  0.0293 -0.1962  0.2421
21550W        W37684   7.446   5.991   4.568 -0.1606  0.0477  0.0264
21551W        W37685  18.746  18.201   1.594 -0.0401 -0.2659 -0.1126
21552W        W37686  12.597   3.632  14.747  0.0098 -0.0416  0.0012
21553W        W37687   2.151   4.863   2.551 -0.1042  0.1025  0.1261
21554W        W37688  12.813  13.794  13.753  0.1376  0.2766 -0.0300
21555W        W37689  12.945   5.909   3.441  0.1895 -0.0919 -0.2045
21556W        W37690  12.076   9.263  13.852 -0.3220  0.2231 -0.0576
21557W        W37691   8.165   2.016   1.677  0.4369 -0.0937 -0.1083
21558W        W37692   2.405  17.742   3.193 -0.1464  0.2188  0.1882
21559W        W37693  12.856  14.479  14.679 -0.3105 -0.1932  0.0961
21560W        W37694   9.730  17.535   4.980 -0.0824  0.0938  0.1721
21561W        W37695   4.823   2.466  14.802 -0.1266  0.3310  0.0111
21562W        W37696  10.418   8.517   2.370  0.0414 -0.0288  0.0815
21563W        W37697  12.891   2.209  15.250  0.2883  0.2368  0.0270
21564W        W37698  16.473  12.028  10.090 -0.0800  0.0481  0.0138
21565W        W37699  13.487  12.091   2.386  0.1752 -0.0005 -0.1873
21566W        W37700   0.821  15.939   3.103 -0.3094  0.0336 -0.1306
21567W        W37701   7.512  10.791  12.464 -0.1358  0.0358 -0.0337
21568W        W37702   9.791   9.363   5.418  0.0548 -0.0797  0.0808
21569W        W37703   1.874   3.433  13.841  0.0494  0.0598 -0.1019
21570W        W37704   5.631   3.076  11.334 -0.2631 -0.2246 -0.0623
21571W        W37705   8.082  10.410   1.018  0.0369  0.0775 -0.0709
21572W        W37706  15.238  10.425  10.919  0.2521 -0.2149 -0.2234
21573W        W37707  10.948  13.751   3.251 -0.4536 -0.2570  0.0584
21574W        W37708   0.785   6.414  13.709  0.3215  0.2901  0.0701
21575W        W37709   3.678   5.449  14.332 -0.1788 -0.0970  0.0693
21576W        W37710   6.615  10.750   3.512 -0.1348 -0.0427 -0.0407
21577W        W37711  11.481  14.743   0.921  0.2339  0.1376  0.1086
21578W        W37712  16.293  18.878  11.283 -0.2135  0.0694  0.0591
21579W        W37713  16.952  12.941   3.419  0.0185  0.0672 -0.0940
21580W        W37714  14.224   9.207   1.738  0.3951  0.0890  0.0803
21581W        W37715   2.332  13.550  13.887  0.1686  0.0682 -0.0182
21582W        W37716   4.822   6.011  15.139 -0.2888 -0.1121 -0.0690
21583W        W37717   3.165   9.951  10.268 -0.1667  0.0204 -0.2087
21584W        W37718  10.062  14.700  14.727 -0.1331  0.1468  0.0170
21585W        W37719   4.851  10.275   0.179  0.1318  0.2384  0.2369
21586W        W37720   0.096   0.870  14.450 -0.2143 -0.0674 -0.0187
21587W        W37721   6.998   7.048  11.121  0.2464  0.0792  0.0881
21588W        W37722   3.040  16.598   2.765 -0.0609  0.2773 -0.1861
21589W        W37723   0.814  13.259   1.984  0.1113  0.1488  0.2013
21590W        W37724  15.180  14.352   2.715  0.1346  0.2342 -0.1375
21591W        W37725  18.023   3.568   0.833  0.4801 -0.1525 -0.0570
21592W        W37726  18.525  10.339  15.187 -0.2739 -0.0458 -0.0120
21593W        W37727  15.869   5.047   5.182 -0.0653  0.2686  0.0645
21594W        W37728  17.249   6.930   3.336  0.0446 -0.1026  0.1251
21595W        W37729   8.648  11.486   2.583  0.1124  0.0661  0.1237
21596W        W37730  15.088   0.830   3.142  0.1495  0.0516 -0.0958
21597W        W37731   7.430   1.697  12.905 -0.0047  0.0725  0.0784
21598W        W37732   4.430   5.501  14.136 -0.0765  0.1375  0.0768
21599W        W37733  11.708  18.924  10.799 -0.5065  0.0067  0.4235
21600W        W37734  13.020  15.040  11.122 -0.0036  0.0368 -0.4531
21601W        W37735  17.275  16.432  11.766  0.4255  0.0730  0.4597
21602W        W37736   6.982   5.166   1.184 -0.0794 -0.3017  0.3585
21603W        W37737  17.087  11.466  12.939 -0.1184  0.3258  0.1500
21604W        W37738  13.933  10.007   4.859 -0.2047  0.0829  0.0362
21605W        W37739   7.847   8.009  11.378  0.0185 -0.2816  0.0816
21606W        W37740  10.571   9.243   2.866  0.3455 -0.2698 -0.0723
21607W        W37741  17.911   9.595   3.026  0.2936 -0.0551  0.2370
21608W        W37742  10.522  13.881   1.218 -0.0549 -0.1697  0.1068
21609W        W37743   7.638  18.584  10.454  0.0596 -0.0680 -0.0752
21610W        W37744  18.631  15.390   5.160 -0.4075  0.0966  0.0146
21611W        W37745  15.927  17.287   2.626 -0.1485  0.1434 -0.0807
21612W        W37746   7.065  11.578  11.389 -0.1590 -0.0359  0.1786
21613W        W37747  14.108   4.568  12.816  0.0673 -0.2043  0.0604
21614W        W37748  14.600   2.712   2.056  0.1721 -0.1931 -0.0313
21615W        W37749  12.281   5.003  10.506  0.1010  0.0902  0.1221
21616W        W37750  15.784  15.746  11.192  0.0748  0.2089 -0.0818
21617W        W37751   7.230  15.118  12.156  0.1457  0.0756 -0.2015
21618W        W37752  17.518  17.884  15.193 -0.1066  0.2805 -0.3162
21619W        W37753   2.141   5.069   4.269 -0.0403 -0.0246  0.1059
21620W        W37754  18.992  15.151  14.217 -0.1629 -0.2293 -0.0277
21621W        W37755   3.206   2.030  12.241 -0.2102 -0.3114 -0.3585
21622W        W37756  14.978  16.898   3.088 -0.2673 -0.1949 -0.0603
21623W        W37757  18.320   9.875   0.338 -0.2613  0.2942  0.1419
21624W        W37758   6.184  15.600   5.397 -0.1738 -0.1590 -0.1145
21625W        W37759  18.473  13.292  12.355 -0.1633 -0.3471 -0.2363
21626W        W37760   8.322  15.116   4.402  0.0374  0.1678 -0.1053
21627W        W37761   1.295   9.784   1.417 -0.2147  0.0186 -0.0950
21628W        W37762   4.667  14.554   1.879 -0.1489  0.0756 -0.2642
21629W        W37763  14.448  18.180   5.153 -0.1061 -0.0479  0.2412
21630W        W37764  13.433  11.242   3.425 -0.0589  0.2175  0.0210
21631W        W37765   2.950   6.643   0.890 -0.2906  0.3521 -0.1680
21632W        W37766   3.037   4.572  12.191 -0.1178  0.1838  0.0743
21633W        W37767   9.591  11.756  11.173  0.1053  0.3741  0.1440
21634W        W37768  16.407   5.361   4.183  0.1192  0.0830 -0.1773
21635W        W37769  11.285   2.113   4.993  0.0440  0.2156 -0.0737
21636W        W37770  15.638  10.734  11.003 -0.0100 -0.0986 -0.0492
21637W        W37771  11.640  18.521   2.199 -0.1730  0.2010  0.1230
21638W        W37772   2.078   5.862  10.399 -0.1848  0.0565  0.2009
21639W        W37773   6.910  18.128  13.861  0.0955  0.1243 -0.1000
21640W        W37774  12.821  10.227   2.960 -0.0387  0.0653 -0.2770
21641W        W37775   1.663  13.668   2.873  0.1229 -0.2163 -0.0836
21642W        W37776  10.499  14.188  10.789  0.0323 -0.3301 -0.0346
21643W        W37777   0.568   8.994  12.894 -0.3694 -0.0869  0.2137
21644W        W37778  10.788  14.974  12.501 -0.0945 -0.1239 -0.0496
21645W        W37779  16.159   4.504  12.835 -0.3887 -0.2287 -0.1080
21646W        W37780   6.806   9.054  14.294 -0.3806 -0.2202  0.0031
21647W        W37781   1.803   7.155   1.385  0.0098 -0.3629  0.4818
21648W        W37782  17.218   5.595   0.606  0.2109 -0.0043 -0.3513
21649W        W37783  18.058  17.784   5.153  0.3170 -0.2695 -0.1249
21650W        W37784   2.893  13.177   0.358  0.2371  0.0961  0.0115
21651W        W37785   2.262   5.563  13.368  0.0916  0.1157 -0.0427
21652W        W37786  12.384   9.405  10.359  0.2275  0.0310 -0.1010
21653W        W37787   0.613   7.252   1.938  0.2421  0.1145  0.5660
21654W        W37788   8.718  13.996   0.562  0.1043  0.0075 -0.0639
21655W        W37789   5.912   2.392   2.424 -0.1662 -0.1242 -0.0344
21656W        W37790   1.277  14.690   1.243 -0.0123 -0.0705 -0.0858
21657W        W37791  17.708   2.879   3.623  0.3533 -0.0215 -0.3497
21658W        W37792  15.888  12.552  11.822 -0.2295  0.3450 -0.0853
21659W        W37793  15.863  13.157  14.340  0.1517 -0.0484 -0.2117
21660W        W37794  15.013  14.672  14.121  0.2650 -0.3507  0.0791
21661W        W37795   6.746   4.987  14.866 -0.0150 -0.0590 -0.0493
21662W        W37796  11.057   1.609  14.939 -0.0410  0.1380 -0.0152
21663W        W37797  11.934  15.219  10.911 -0.1272  0.0462  0.0903
21664W        W37798   9.552   8.471   9.219  0.2718 -0.2140  0.0830
21665W        W37799   1.192   0.937   4.941 -0.1261  0.0376 -0.0169
21666W        W37800   1.104   8.663   3.777  0.2696  0.4417  0.0960
21667W        W37801  15.856  17.614  12.278  0.1663 -0.0746  0.2018
21668W        W37802   6.034   9.628  14.461  0.2014 -0.3965  0.1382
21669W        W37803  18.637  16.371  11.608 -0.2211  0.0178  0.0649
21670W        W37804  17.362  13.907  14.837  0.0232 -0.0032 -0.0803
21671W        W37805  14.101   4.988   4.933  0.2399 -0.1048 -0.0812
21672W        W37806   0.870  16.836   0.833 -0.0326 -0.1043 -0.2710
21673W        W37807  16.316   2.540  14.415 -0.1169 -0.1327  0.0635
21674W        W37808   5.708   9.212  12.460  0.1890 -0.1269  0.0292
21675W        W37809  12.489  12.164   0.358 -0.1468 -0.1615  0.0241
21676W        W37810   9.381  10.332   0.893  0.2987  0.0571  0.1054
21677W        W37811   0.665  17.369  12.721 -0.4568 -0.0419 -0.1030
21678W        W37812   9.383  17.884   0.651  0.0684 -0.1910 -0.2896
21679W        W37813  16.491   5.513  13.770 -0.0335 -0.1052 -0.0505
21680W        W37814   6.123   7.306   4.078  0.0585 -0.1269 -0.0650
21681W        W37815   3.606   6.536   1.373  0.2007 -0.3662 -0.0211
21682W        W37816   2.632  16.402   3.443  0.1297 -0.0031  0.2759
21683W        W37817  18.851   8.518  13.414 -0.1933  0.2320 -0.0526
21684W        W37818  11.570   7.753   0.001  0.0511  0.0240 -0.0147
21685W        W37819  17.099  13.680   3.958 -0.1277  0.1658  0.0609
21686W        W37820  14.012  11.149  13.660 -0.0832  0.0193  0.3274
21687W        W37821  13.316   6.408  14.920  0.0921  0.0296 -0.1420
21688W        W37822   6.396   8.347   3.103 -0.3424  0.0503 -0.2166
21689W        W37823  11.708   3.379  15.264 -0.1595 -0.1461  0.2209
21690W        W37824  17.590  11.434   3.044  0.1262 -0.0944  0.6302
21691W        W37825   8.056   1.905   4.299 -0.0064  0.1860 -0.3023
21692W        W37826  18.658  15.391   4.586 -0.1810 -0.0740 -0.0714
21693W        W37827   3.329  13.370   1.107 -0.0057 -0.0559 -0.1534
21694W        W37828  11.326   5.632   4.863  0.1822 -0.0289  0.0562
21695W        W37829   6.055   1.430  14.336 -0.0179 -0.0300 -0.1402
21696W        W37830   5.809  14.927  12.892 -0.2396 -0.2698  0.0399
21697W        W37831  13.192  15.136  14.270  0.0880 -0.3906 -0.1042
21698W        W37832   9.087  16.686   0.046 -0.0042 -0.3298  0.3926
21699W        W37833   6.199   1.307  13.889  0.1538  0.0217 -0.3353
21700W        W37834  11.670   4.382   1.031  0.0870  0.1286  0.3029
21701W        W37835   8.217   1.485  10.727 -0.1005 -0.1234  0.3662
21702W        W37836  13.993  13.807  12.229  0.0905 -0.0926 -0.0750
21703W        W37837  16.523   2.072   4.329 -0.1911  0.1752  0.2223
21704W        W37838   9.755   3.876   4.762  0.0090  0.2472  0.0518
21705W        W37839  11.744   2.302  14.210  0.2694 -0.1526 -0.1413
21706W        W37840   3.799  16.969  14.447 -0.2497 -0.0290 -0.1253
21707W        W37841   4.063  10.160   2.200 -0.0405  0.3096 -0.1398
21708W        W37842  14.133   2.610  11.830 -0.0579 -0.0619  0.2128
21709W        W37843  13.143   3.007   1.878 -0.1469  0.1504  0.0170
21710W        W37844  14.251  18.182   2.367 -0.0875  0.0136 -0.1591
21711W        W37845   9.206  13.908  12.028  0.5045 -0.0468 -0.1254
21712W        W37846  12.379   4.120  10.726  0.0388 -0.0145 -0.2014
21713W        W37847   7.707   7.145  13.739 -0.2258  0.1593  0.3445
21714W        W37848   0.974   2.865  11.460  0.2986 -0.3955  0.3730
21715W        W37849  18.641   9.888  13.790 -0.0841  0.1727 -0.0281
21716W        W37850   6.863   5.668   1.315 -0.0509 -0.0550  0.3280
21717W        W37851   1.576   1.814  13.982  0.0436  0.0648 -0.2069
21718W        W37852   6.869   1.380   1.462 -0.0309 -0.2967  0.0604
21719W        W37853  13.852  15.298  13.793  0.0710  0.1133  0.3378
21720W        W37854  16.451   7.512  14.032  0.1262 -0.0008 -0.0540
21721W        W37855  16.330   4.191   3.351  0.1038  0.1442 -0.0560
21722W        W37856  17.304  18.982   3.451  0.1051 -0.0545 -0.0036
21723W        W37857   7.962   3.507  14.478  0.0814 -0.3491 -0.3244
21724W        W37858   4.724  11.660   5.205  0.0171  0.1975  0.2826
21725W        W37859   5.092  16.796   2.078  0.0452 -0.3148  0.1466
21726W        W37860  11.988   8.683   3.959 -0.0411  0.1208 -0.0736
21727W        W37861   5.689   6.939   5.284  0.0295 -0.1595  0.3785
21728W        W37862   1.456   8.742   3.414  0.0937 -0.4055 -0.2886
21729W        W37863   8.511   7.816  14.123 -0.0470 -0.1388  0.3562
21730W        W37864   5.641   5.438   1.642 -0.0028 -0.0458 -0.0003
21731W        W37865  11.671   2.000   4.503  0.1093  0.2150 -0.1145
21732W        W37866  18.037  13.126  13.021 -0.2107  0.1814  0.1768
21733W        W37867   6.756   6.188   1.397 -0.0645  0.0688  0.2026
21734W        W37868   4.752   3.693   3.295 -0.2184  0.0749 -0.1351
21735W        W37869  16.830   0.288  14.007  0.0650  0.1727  0.0332
21736W        W37870   4.648  13.430   0.890  0.1055  0.1579 -0.1754
21737W        W37871  17.620  16.911   4.041  0.2538 -0.1225  0.3708
21738W        W37872  10.231  14.518   1.815 -0.0162 -0.0728 -0.0667
21739W        W37873   0.370  11.126  12.081 -0.5146  0.0165  0.2526
21740W        W37874  18.127   0.461   4.787  0.0139 -0.0896 -0.1423
21741W        W37875  15.224  12.568   0.916 -0.2722  0.0116 -0.2002
21742W        W37876  14.341  16.115   2.610  0.2887  0.0116 -0.0122
21743W        W37877  12.674  11.074  14.411 -0.1046  0.1329  0.1084
21744W        W37878  11.442  18.723  12.890 -0.0711  0.0956 -0.1711
21745W        W37879  16.079   4.485   1.777 -0.0602 -0.1358 -0.0585
21746W        W37880   0.015  17.099   3.002  0.1559  0.1343 -0.1507
21747W        W37881   8.258   3.630  11.056 -0.1510 -0.0606  0.0593
21748W        W37882  18.907   4.890  14.539  0.2920 -0.0795 -0.1859
21749W        W37883  18.945  10.533  11.716 -0.2515 -0.1703 -0.1238
21750W        W37884   0.579  10.375   2.767  0.4355  0.0858 -0.4549
21751W        W37885   7.656   5.032   1.714  0.2874  0.3151  0.1919
21752W        W37886  15.673  11.006  10.561 -0.4172 -0.3217 -0.0992
21753W        W37887   7.381   6.420   3.558 -0.0671  0.2932  0.3603
21754W        W37888   9.178   1.522  13.125 -0.4370  0.0824  0.1962
21755W        W37889  11.589   2.737  14.563  0.2277  0.0761 -0.1578
21756W        W37890   3.873  17.238  10.026  0.0417  0.0040  0.0965
21757W        W37891  17.649  13.501  12.891  0.0773 -0.1756 -0.1367
21758W        W37892   6.410   3.068   3.378  0.1484 -0.2409  0.1059
21759W        W37893   4.756   5.189  12.476  0.0380 -0.0911  0.0761
21760W        W37894  10.637   1.020  12.948  0.5545  0.0981  0.1193
21761W        W37895  16.861  15.812   9.733 -0.1235 -0.1512 -0.1543
21762W        W37896   9.335  14.372   2.387 -0.0476 -0.0262 -0.0716
21763W        W37897  18.266   5.424   4.086  0.0184  0.0545  0.3828
21764W        W37898   6.074   9.144   2.718  0.0950  0.1244 -0.2515
21765W        W37899   2.419   0.966   3.144 -0.1918  0.1894 -0.0254
21766W        W37900   2.531   7.578   9.260 -0.0726  0.4190  0.1108
21767W        W37901  15.516  18.323  12.713  0.0407 -0.1328 -0.0768
21768W        W37902  18.057   8.673  11.985 -0.2106 -0.0905  0.0145
21769W        W37903  18.394  18.677   4.875 -0.1292 -0.0850 -0.2337
21770W        W37904   4.134   4.543   3.587 -0.1117 -0.2337  0.2866
21771W        W37905   1.345  10.135   3.508  0.2538  0.2167  0.1437
21772W        W37906   2.557  11.340   5.097  0.3150  0.0829  0.1664
21773W        W37907  18.282   3.896   2.111  0.0464  0.0183  0.2268
21774W        W37908   5.344  18.724  11.092 -0.0139  0.2113 -0.1899
21775W        W37909  18.803  15.520   2.325  0.0806  0.1472  0.0906
21776W        W37910  11.155   7.613   4.368 -0.1402  0.1294  0.2100
21777W        W37911   2.559   4.661  10.153  0.1196  0.0180 -0.1785
21778W        W37912   2.314   8.469  14.517  0.1291  0.1669 -0.0753
21779W        W37913  15.936  18.660   5.388 -0.3419 -0.4287  0.0035
21780W        W37914   6.572  15.582   3.474  0.0004  0.0269  0.0623
21781W        W37915  18.376  11.210  14.585  0.1361  0.2098 -0.0717
21782W        W37916   2.853   1.437  14.369 -0.1300 -0.2007 -0.1652
21783W        W37917   9.468  14.705  10.824 -0.1773  0.1995 -0.1255
21784W        W37918  11.123  10.676   2.797  0.0682 -0.1887  0.0629
21785W        W37919  12.115   8.753  13.999 -0.2634  0.0805  0.2107
21786W        W37920  10.491  12.054  14.149  0.0996 -0.2278  0.0968
21787W        W37921   9.255   8.843  14.598 -0.1034 -0.0180 -0.1250
21788W        W37922   6.905   7.346  12.146 -0.3703 -0.1746  0.0464
21789W        W37923  16.376  13.521   1.405  0.0934  0.0681 -0.0519
21790W        W37924  10.338  17.366   0.256 -0.1442 -0.3765  0.0771
21791W        W37925   0.926   8.702   5.368  0.3727 -0.3869  0.1090
21792W        W37926  15.302   5.199  14.842  0.1151  0.1449  0.1161
21793W        W37927  10.610   2.974   4.552  0.0140 -0.2476 -0.0410
21794W        W37928   4.757  12.527   2.657  0.0808 -0.3896  0.2362
21795W        W37929  15.029   9.066   0.556  0.0912 -0.2013  0.0296
21796W        W37930   6.096   4.454  11.103 -0.0362 -0.1078 -0.0135
21797W        W37931  11.276  16.021  11.177 -0.3206 -0.3175 -0.1022
21798W        W37932   9.170   9.526   3.449 -0.0471  0.0002 -0.0327
21799W        W37933   1.311   2.364   3.281  0.0285  0.1497 -0.0447
21800W        W37934  17.693  12.173  11.757 -0.0724  0.0826  0.0195
21801W        W37935   8.770   9.788   3.392  0.0002  0.1359 -0.0843
21802W        W37936  15.614   3.568   1.451  0.2630  0.2988  0.0936
21803W        W37937   7.017   4.077  11.465  0.0311 -0.0904 -0.0297
21804W        W37938   1.453  17.362   1.040 -0.0402 -0.0331 -0.0222
21805W        W37939   2.434  17.434   0.100 -0.1058  0.4157 -0.2386
21806W        W37940  12.336  16.950   3.744 -0.0361  0.2572  0.1384
21807W        W37941   9.330   9.741  13.362 -0.0686 -0.1698 -0.3255
21808W        W37942  18.152   4.149   5.608 -0.0481  0.0355 -0.1665
21809W        W37943   5.944   8.860  13.952  0.2443 -0.1580 -0.2174
21810W        W37944   8.517  13.133  11.473 -0.0471  0.0134  0.2249
21811W        W37945  13.077   7.504  11.092  0.2776  0.0871 -0.2456
21812W        W37946  16.359  14.269   2.177  0.0044 -0.0161 -0.0922
21813W        W37947   9.059  16.117   0.856  0.0564  0.1305  0.1659
21814W        W37948   0.854  18.769  13.968 -0.0561 -0.0335 -0.1924
21815W        W37949   8.044   6.714  12.788  0.0062 -0.0238 -0.3524
21816W        W37950   2.996  17.908   2.946 -0.3629 -0.1762  0.5265
21817W        W37951  16.881   7.656   0.341  0.0310  0.1625  0.0190
21818W        W37952  15.344  18.498  10.799  0.0305  0.0601 -0.0232
21819W        W37953   8.928  10.785   4.724 -0.2309  0.0774 -0.1550
21820W        W37954   6.718  18.971  14.540 -0.1142 -0.2106 -0.1284
21821W        W37955   4.430  16.379  12.197 -0.1402  0.2909  0.0706
21822W        W37956  10.975   0.177   2.071 -0.1382 -0.1456 -0.0248
21823W        W37957  12.841  16.965   3.803 -0.1732  0.0024 -0.2048
21824W        W37958   6.508   9.655  13.242 -0.2098 -0.2892 -0.0882
21825W        W37959   3.969  14.176  13.045  0.1624  0.1101 -0.0515
21826W        W37960  18.925  14.163   2.269 -0.0138  0.1173 -0.0798
21827W        W37961  11.258   7.462   2.691 -0.1031 -0.0268 -0.5821
21828W        W37962  11.013  15.603  11.115  0.0135 -0.2205  0.1537
21829W        W37963  10.952   3.546   4.686 -0.0288 -0.1684  0.1221
21830W        W37964   8.494   2.787   5.703  0.0114 -0.0770 -0.0739
21831W        W37965   0.110   5.594  13.542 -0.0853 -0.1565  0.2209
21832W        W37966  18.161  10.507   1.066 -0.5550  0.5270 -0.2546
21833W        W37967  10.161  13.193   5.953  0.0871 -0.3015  0.1206
21834W        W37968  13.205   9.540   5.035 -0.2920 -0.1747 -0.2499
21835W        W37969   9.368   9.351  14.657  0.1632 -0.1016 -0.1333
21836W        W37970  14.220   3.591   0.784 -0.3186  0.2347 -0.0798
21837W        W37971  14.675   7.734   0.580 -0.0123 -0.0995 -0.1720
21838W        W37972   7.941   0.341  14.063  0.4674 -0.0109 -0.0944
21839W        W37973   9.560   9.768   5.228 -0.0773  0.2316 -0.1194
21840W        W37974   5.412  14.060  15.005  0.0850  0.1162 -0.2476
21841W        W37975   7.265  18.528  11.775  0.2197  0.0749 -0.0676
21842W        W37976   7.433  13.099  13.336  0.5025 -0.1754 -0.0500
21843W        W37977   5.509   4.010   2.002  0.0471  0.1321 -0.1681
21844W        W37978   5.662   9.035  12.956 -0.1693 -0.5738 -0.1175
21845W        W37979  17.788   6.971  14.316  0.0705 -0.0366 -0.0394
21846W        W37980  16.018   1.921   1.992 -0.2387 -0.0306  0.0101
21847W        W37981   9.272  13.416   2.234  0.2074 -0.2821 -0.2267
21848W        W37982  12.801  18.190  11.458  0.0862 -0.2503  0.1618
21849W        W37983   2.259   0.699   1.331  0.3425  0.0089 -0.2703
21850W        W37984   9.803   8.700  12.714 -0.1858 -0.1238 -0.0361
21851W        W37985   3.082  11.935   4.661  0.0333 -0.0018 -0.1515
21852W        W37986   4.764  14.105   2.695  0.2011 -0.2457 -0.5033
21853W        W37987   9.144  12.507   0.555  0.2026 -0.0066  0.1125
21854W        W37988  11.334   2.053  11.146 -0.0480 -0.5277  0.3460
21855W        W37989  13.751   2.429  10.902  0.1158 -0.2269 -0.0813
21856W        W37990   3.270   0.557  12.986  0.4398 -0.0397  0.1311
21857W        W37991   2.682   6.722   1.390 -0.1514 -0.1807 -0.0064
21858W        W37992  14.906  18.052  10.687 -0.0828 -0.2130 -0.0990
21859W        W37993  17.852   9.979  11.578 -0.0941 -0.0780  0.0198
21860W        W37994  18.187   8.040   5.780 -0.0327  0.2255 -0.0847
21861W        W37995   7.648  15.690  13.358 -0.0853 -0.0667 -0.1408
21862W        W37996   4.358  10.603  14.013 -0.0789  0.3118 -0.1818
21863W        W37997   5.112   9.061  13.220 -0.1030 -0.0522  0.2183
21864W        W37998  10.648   7.390  13.132  0.0292 -0.0679  0.1048
21865W        W37999  13.425   3.796  10.704  0.0159  0.1162  0.2949
21866W        W38000   5.367  11.751  11.103 -0.0526  0.0271  0.1316
21867W        W38001  18.112   5.338   0.556  0.0818 -0.0789 -0.1164
21868W        W38002  12.636  18.736   4.489  0.4373  0.2319 -0.1648
21869W        W38003  14.784  12.072   1.862  0.1983 -0.2077 -0.2976
21870W        W38004   1.033  13.767  14.723  0.0440  0.0875  0.0347
21871W        W38005  18.466   8.740  12.389 -0.0863  0.1640  0.3224
21872W        W38006   3.842  15.079  14.997  0.0372 -0.1152  0.0534
21873W        W38007   3.877   0.725   0.026 -0.2937  0.0369  0.2698
21874W        W38008  14.542   0.260   2.038  0.1428 -0.2162 -0.0096
21875W        W38009  14.676  15.968   3.443  0.0012 -0.2552 -0.0973
21876W        W38010  10.870   0.704   3.728 -0.1804  0.1624  0.0795
21877W        W38011  10.664   7.137  10.842 -0.0210 -0.2699 -0.0586
21878W        W38012  15.710   7.830   2.875  0.0073 -0.2646 -0.0679
21879W        W38013   1.144   6.365  10.325  0.2379  0.2099  0.2454
21880W        W38014   2.392   5.789  14.998  0.1477  0.0172 -0.0068
21881W        W38015   5.548   2.349  14.534  0.4476 -0.0802 -0.2886
21882W        W38016   8.694  18.316   3.658 -0.3083  0.0533  0.1745
21883W        W38017  18.288   5.012   2.850 -0.0640  0.1996  0.0163
21884W        W38018   6.427  12.731   4.189  0.0247  0.2600 -0.0705
21885W        W38019  10.209  18.831  14.150  0.1058 -0.1531  0.3375
21886W        W38020   7.723   5.025  11.600  0.1708  0.0492  0.0782
21887W        W38021  15.698  14.340   0.216  0.0615 -0.1245 -0.0617
21888W        W38022   4.966   7.462  12.622 -0.2353 -0.2385  0.1191
21889W        W38023   8.828   1.698  14.900 -0.0894 -0.0686 -0.0989
21890W        W38024   6.195  15.012   2.684  0.1678 -0.0777 -0.0009
21891W        W38025   9.178  12.625   0.066  0.0986 -0.0198  0.0137
21892W        W38026   0.336  12.730  13.919 -0.1701  0.0217  0.0291
21893W        W38027   0.543   5.917   2.608  0.0317 -0.0810  0.3046
21894W        W38028  13.018   3.341   1.165  0.1653  0.1736  0.3049
21895W        W38029  13.602   4.223   0.089  0.0451 -0.0497 -0.3177
21896W        W38030  18.331   8.100   3.097  0.1643 -0.1522  0.1046
21897W        W38031  17.950   6.201  10.363 -0.0150  0.3128  0.0940
21898W        W38032  10.371  14.284  13.307 -0.0955 -0.0463 -0.0643
21899W        W38033   5.997   2.454   4.852 -0.0010  0.1968 -0.1149
21900W        W38034  12.440  16.476  10.198  0.0777 -0.1294  0.0179
21901W        W38035  18.562   9.135   2.896  0.0384  0.0190  0.2151
21902W        W38036   8.342   1.384   0.762 -0.1899 -0.2500 -0.2726
21903W        W38037  16.949  15.837   4.229 -0.1391 -0.2134 -0.1280
21904W        W38038   6.618  11.969   4.898  0.2044 -0.1024  0.1596
21905W        W38039   0.327  15.981  11.265 -0.1982  0.4273 -0.1438
21906W        W38040  12.486   0.637   0.870 -0.0953  0.0480  0.3506
21907W        W38041   7.063   0.285   5.369 -0.0903  0.3877 -0.0849
21908W        W38042   8.897   5.995   2.238 -0.0550 -0.0218  0.0018
21909W        W38043  14.281   9.074   0.645  0.1697 -0.3518  0.1660
21910W        W38044   1.028  11.123   2.185 -0.0346  0.2209  0.3667
21911W        W38045  10.477   3.629  12.551 -0.3913 -0.1188 -0.0428
21912W        W38046   4.291  15.462   1.213  0.4408  0.1477  0.0744
21913W        W38047   8.108  17.104   3.513  0.0935 -0.1669 -0.3010
21914W        W38048  18.054  17.380   4.810 -0.1437 -0.2441 -0.0062
21915W        W38049  14.710  10.599  13.819  0.1037  0.0181  0.2709
21916W        W38050  11.533   3.813   3.334 -0.2122 -0.2726 -0.0477
21917W        W38051   6.569  10.714  10.896  0.1281  0.1139 -0.1695
21918W        W38052  11.442  18.670  13.360  0.0440 -0.2784 -0.0922
21919W        W38053   5.101  12.620  10.875 -0.4458 -0.0066  0.2647
21920W        W38054   6.204   3.801   2.499 -0.2507 -0.1758  0.2681
21921W        W38055   0.264   2.733   0.991  0.0367  0.2322 -0.0208
21922W        W38056  18.974   5.419  12.693 -0.0515 -0.2853 -0.0519
21923W        W38057   3.412   4.851  10.494 -0.0931 -0.3291  0.0598
21924W        W38058   7.987  12.340  15.229  0.4208 -0.0965 -0.1099
21925W        W38059  12.581  12.899   0.524 -0.1834 -0.1803 -0.0094
21926W        W38060   8.031   3.007   4.115 -0.0062  0.0647 -0.1139
21927W        W38061  18.676  18.794   3.129 -0.2258  0.2661  0.1909
21928W        W38062  11.612  16.235  12.190 -0.1234  0.1632 -0.0937
21929W        W38063   1.073  18.874  12.927 -0.1155  0.0556 -0.2271
21930W        W38064   9.261   9.804  15.199  0.0332  0.0718 -0.4070
21931W        W38065   1.097  16.087  12.862  0.0885  0.0240 -0.0451
21932W        W38066  18.719  18.215   2.318 -0.3217  0.1242 -0.3602
21933W        W38067   5.767  10.606  10.791 -0.1944  0.2875 -0.0066
21934W        W38068   6.057  13.048   2.303  0.1400 -0.4265  0.2080
21935W        W38069   0.112  14.532   4.483 -0.2965  0.1183  0.1223
21936W        W38070  10.774   2.720   0.569 -0.0477 -0.0560  0.2035
21937W        W38071  10.911   4.671   4.518  0.2296  0.2747  0.0594
21938W        W38072   4.477   3.976   2.920  0.1796 -0.2562 -0.1908
21939W        W38073  11.191   1.512  12.008 -0.0813 -0.0082 -0.1345
21940W        W38074  13.808   1.365  11.578 -0.1440  0.0428  0.4869
21941W        W38075  15.715  14.208  14.018 -0.2333  0.2354  0.2086
21942W        W38076   4.483   3.583  12.368  0.2988  0.0676 -0.0331
21943W        W38077  11.145  16.000   5.143  0.0437  0.0229 -0.0453
21944W        W38078   1.134  12.861  14.028  0.0499  0.0272  0.1500
21945W        W38079  10.930  15.126   1.902  0.0610  0.0789  0.1573
21946W        W38080   3.855  15.952   0.499  0.1210 -0.0424  0.1900
21947W        W38081   2.839   1.553  12.322 -0.4076  0.0943 -0.2800
21948W        W38082  18.111  17.653  11.463  0.0744 -0.0488  0.0489
21949W        W38083  11.707   6.291  12.594 -0.0105 -0.0402  0.0635
21950W        W38084   3.100   2.372   2.001 -0.2564 -0.0207  0.0607
21951W        W38085  10.548   3.555   1.380 -0.1556  0.0036  0.0098
21952W        W38086  13.823   5.600  14.826  0.1231 -0.0321  0.1036
21953W        W38087   1.820  12.629  10.983 -0.2678 -0.1943  0.0387
21954W        W38088   6.122  11.994   5.288 -0.0466 -0.1251  0.1464
21955W        W38089  14.548   0.285  11.504  0.1619  0.3079 -0.1318
21956W        W38090  16.651  12.515   1.418  0.2611  0.2575  0.1597
21957W        W38091  17.760   1.428   0.593 -0.3591 -0.1690 -0.0083
21958W        W38092  13.594   7.386  10.643  0.1853 -0.0960 -0.0945
21959W        W38093  17.083   7.293   3.039 -0.1484  0.0292  0.1758
21960W        W38094  16.106  16.431  12.615  0.1477  0.0481 -0.0815
21961W        W38095   4.681   4.593   0.354  0.0376 -0.3766 -0.3025
21962W        W38096   7.407  12.459   3.624 -0.1822  0.0782  0.2337
21963W        W38097   3.309   3.930  15.014 -0.0463  0.0307  0.0408
21964W        W38098   8.221  10.158   4.250 -0.0575  0.0816 -0.2227
21965W        W38099   5.055  12.043   5.150 -0.0964 -0.2118  0.0147
21966W        W38100  11.779   9.557   0.985 -0.0627 -0.1786 -0.1375
21967W        W38101   9.613   4.190  11.257  0.0696 -0.3691 -0.1588
21968W        W38102   3.003   4.544   1.821  0.3123 -0.1434  0.0530
21969W        W38103  17.820  17.655   3.868  0.0284 -0.1740 -0.3615
21970W        W38104  10.859   1.932   2.703  0.3634  0.1110  0.1064
21971W        W38105   0.977  12.165  13.484 -0.0773 -0.2933 -0.3589
21972W        W38106  18.866  16.043  13.658  0.1682  0.3392  0.0402
21973W        W38107  16.714  12.472   4.104  0.1362  0.0901  0.1306
21974W        W38108  17.747  16.601   2.371 -0.3477 -0.0871 -0.2052
21975W        W38109   6.037  10.240  11.974 -0.2290 -0.0892 -0.2559
21976W        W38110   6.166   6.157   0.136 -0.1332  0.0519  0.0640
21977W        W38111   0.969  12.705   1.347 -0.0281 -0.1291 -0.0023
21978W        W38112  17.422  13.739   1.290 -0.0118  0.0604 -0.0266
21979W        W38113   5.064  16.730   1.057 -0.1948 -0.1798  0.5747
21980W        W38114   7.360   2.645  11.359  0.0922  0.0420  0.0449
21981W        W38115  13.824   2.076  14.395 -0.1277 -0.4099 -0.1275
21982W        W38116   4.226   2.898  10.044  0.1569  0.0866 -0.2297
21983W        W38117   2.504   0.591  14.788  0.0207  0.1465  0.0373
21984W        W38118   1.506   0.231   5.308 -0.1549  0.1151 -0.2833
21985W        W38119  10.859  18.376   5.081 -0.0094  0.1481  0.0146
21986W        W38120  16.958   5.159  13.658  0.0642 -0.0677 -0.0441
21987W        W38121   5.073  14.282   0.986 -0.3583 -0.0340 -0.0486
21988W        W38122  14.127  15.694   1.036  0.3325  0.0734 -0.0338
21989W        W38123   6.275  10.858   1.286 -0.0026 -0.1465  0.4172
21990W        W38124   9.668  13.922   0.705  0.0247  0.0663  0.4181
21991W        W38125   7.633   5.725  15.051 -0.3292 -0.1345 -0.0687
21992W        W38126   2.935  10.508   3.665  0.0327 -0.2073 -0.0765
21993W        W38127  18.779   2.827   5.316  0.1111  0.0544  0.0597
21994W        W38128  18.780  18.286   2.963  0.0613  0.1612  0.1470
21995W        W38129  14.258  10.379  12.292  0.1445 -0.1351  0.1596
21996W        W38130  17.797   0.867   2.155  0.0039 -0.0853 -0.0346
21997W        W38131  12.288   8.737  11.689  0.2439 -0.0250 -0.2005
21998W        W38132   2.683  12.035   5.385 -0.1302 -0.3322  0.0936
21999W        W38133  12.114   0.311   2.004 -0.2062  0.0558  0.0950
22000W        W38134  13.427  12.844   4.095  0.0177 -0.0126 -0.2844
22001W        W38135   1.329   4.583  12.411 -0.2391  0.1035  0.2891
22002W        W38136   5.450  13.257   4.182  0.3722 -0.2728  0.3759
22003W        W38137   2.852   1.952  13.596  0.1787  0.1106 -0.1486
22004W        W38138   7.690  16.158  12.967 -0.1104  0.0950 -0.0840
22005W        W38139   6.210   8.381  12.562 -0.1946 -0.2122 -0.1030
22006W        W38140   1.441  11.206  12.458 -0.3358  0.0354 -0.0279
22007W        W38141  11.936   7.365   1.609 -0.0573  0.0232  0.1006
22008W        W38142   8.584  17.786  14.900 -0.0936  0.0580  0.0819
22009W        W38143   8.214  12.004  11.839 -0.0002 -0.1962  0.0088
22010W        W38144  14.101   4.452   9.912  0.2205 -0.1128 -0.0156
22011W        W38145   5.186  17.592  14.169  0.0184  0.0515 -0.0071
22012W        W38146  10.456  13.159  10.963  0.3404 -0.1429 -0.1490
22013W        W38147  14.622   1.134   2.758 -0.0136 -0.1298 -0.0293
22014W        W38148   9.539  11.495   2.628 -0.1528 -0.0503  0.0826
22015W        W38149  10.625  16.066   1.958 -0.0184 -0.0473 -0.0503
22016W        W38150   9.686   1.822   1.303 -0.4169  0.0145  0.1537
22017W        W38151  14.953  10.657  14.722 -0.1280  0.1842  0.0750
22018W        W38152  15.931  14.346  12.117 -0.2695 -0.1567  0.0130
22019W        W38153   0.040  13.927  14.218  0.1548  0.3844 -0.2049
22020W        W38154   8.099   4.522  10.900 -0.1052  0.1156 -0.0760
22021W        W38155  14.215  14.056  11.619 -0.1064 -0.1816 -0.0130
22022W        W38156  14.979   6.626   2.269  0.2049  0.0450 -0.2165
22023W        W38157   1.377  11.307   3.966  0.2203 -0.1106 -0.0025
22024W        W38158  12.376   4.434   4.916 -0.2596 -0.3547 -0.4105
22025W        W38159   3.858  11.976  13.372 -0.6212 -0.1031 -0.3982
22026W        W38160  18.389  15.864   2.426 -0.1663  0.1559 -0.2461
22027W        W38161   7.007  10.935  13.923  0.0315  0.1653  0.0287
22028W        W38162  12.609  17.704  12.866  0.0452 -0.1665  0.1521
22029W        W38163  12.615   6.607   0.320 -0.0694 -0.2824  0.1826
22030W        W38164  16.935  11.699   4.529  0.1503 -0.0566  0.0241
22031W        W38165  18.673  12.393   4.197 -0.1701 -0.1638  0.3071
22032W        W38166   3.745  18.426   4.231 -0.0394 -0.1093  0.3546
22033W        W38167   0.339  14.646  11.952 -0.0233 -0.1386 -0.1934
22034W        W38168  13.230  12.635  11.506 -0.0496  0.0197 -0.0160
22035W        W38169   4.451   5.057  13.841 -0.1796  0.0061  0.0574
22036W        W38170   2.016  10.700  14.407  0.1058 -0.2777 -0.2759
22037W        W38171   6.662   5.501  15.054  0.3019  0.2239 -0.0708
22038W        W38172   1.330   4.783  10.934  0.2590 -0.0745 -0.0479
22039W        W38173  15.016   1.882  14.103 -0.1367 -0.0693  0.0598
22040W        W38174   7.306   4.071   1.348  0.0223  0.1718  0.2489
22041W        W38175   8.161  17.745   9.876  0.0960 -0.0924 -0.0025
22042W        W38176   2.899   5.369   3.188  0.0816  0.0023  0.0784
22043W        W38177  16.619   5.181  11.769 -0.2331  0.2070 -0.0615
22044W        W38178   2.794   4.211  14.117  0.2048 -0.2364 -0.0390
22045W        W38179  11.637  11.692  12.269 -0.0314 -0.1251  0.1474
22046W        W38180  12.285  11.000   4.211 -0.0052  0.3950 -0.0413
22047W        W38181  13.326  16.846   0.724 -0.0125 -0.0829  0.0513
22048W        W38182  18.116   1.383  10.843 -0.1094 -0.1633 -0.2165
22049W        W38183   3.509  12.582  14.108  0.0833  0.2709 -0.0201
22050W        W38184  12.856   3.523   0.738 -0.4435 -0.0292  0.0936
22051W        W38185  17.582  17.809  13.388  0.0158  0.0253  0.2609
22052W        W38186   1.311  18.475   3.677  0.0625 -0.1406 -0.1908
22053W        W38187  17.141   2.028   3.389 -0.0727  0.1223 -0.1736
22054W        W38188   0.773   1.570  13.263 -0.1716 -0.0307 -0.2744
22055W        W38189   5.008  12.951  15.151 -0.0700 -0.2244  0.3182
22056W        W38190  18.318  12.514  11.225 -0.4483  0.1149  0.0369
22057W        W38191   3.516   5.363   5.619 -0.0310  0.2391 -0.2232
22058W        W38192   3.841   9.593  15.047 -0.0681  0.1425  0.1670
22059W        W38193  12.657   8.277  10.813  0.2769 -0.0280 -0.3498
22060W        W38194   1.641  10.879  11.596  0.0666 -0.3011 -0.0751
22061W        W38195   9.082  16.992   1.983  0.2501 -0.1730 -0.0003
22062W        W38196  14.969   4.646  13.722 -0.2373  0.2517  0.1586
22063W        W38197  14.853  16.874  11.525 -0.3486  0.4281  0.1747
22064W        W38198   2.170  15.665  13.751  0.0817 -0.0068 -0.1797
22065W        W38199   4.301  16.532  12.672 -0.0457 -0.2246  0.5192
22066W        W38200  10.705  10.432   0.556  0.1445 -0.2461 -0.2259
22067W        W38201  11.171  16.191  12.517  0.0979  0.0887  0.4044
22068W        W38202  18.488  10.067   3.650 -0.0624 -0.0661 -0.1386
22069W        W38203  12.560   8.563  12.528 -0.0261 -0.1119  0.0481
22070W        W38204  16.818   3.023   0.809  0.0276 -0.1444 -0.0660
22071W        W38205   6.218  15.056   5.683 -0.0319 -0.0521  0.0041
22072W        W38206   6.324  17.044   0.926 -0.2296 -0.1151 -0.0078
22073W        W38207   3.860  10.040   3.130 -0.3766  0.1120 -0.3203
22074W        W38208  18.449   6.948   3.629 -0.0609 -0.1361 -0.1785
22075W        W38209  11.123   3.741   4.192 -0.2384  0.1033 -0.0174
22076W        W38210   6.335   9.400  14.104 -0.2244  0.0849  0.0563
22077W        W38211  12.202  16.055  13.043  0.0053 -0.0847 -0.2947
22078W        W38212  14.620  17.591  13.421  0.1979  0.0807 -0.0070
22079W        W38213   9.047   4.820  12.645 -0.1275 -0.0866  0.0587
22080W        W38214  17.903   4.635   2.249  0.2290  0.3378  0.1650
22081W        W38215  18.931  14.173  12.635 -0.2391 -0.4675 -0.1126
22082W        W38216   1.560  12.148  14.189 -0.4048 -0.0828 -0.0930
22083W        W38217  16.062   4.738  11.227 -0.2488  0.2950 -0.0041
22084W        W38218   5.254  11.582  12.481 -0.0777 -0.0350 -0.0677
22085W        W38219  11.296   7.091   1.874  0.2332 -0.0718 -0.4242
22086W        W38220   2.686   6.211   2.304  0.2230  0.2539  0.2676
22087W        W38221  16.952   9.668   0.663 -0.1926 -0.1566 -0.2148
22088W        W38222   2.960   3.157   1.561 -0.0931  0.2995 -0.0020
22089W        W38223   1.562  11.121  15.040  0.0582  0.3468 -0.1924
22090W        W38224   0.888  11.259   2.665 -0.0288  0.1944 -0.1313
22091W        W38225  11.883   8.064  10.901  0.1070  0.2900 -0.1233
22092W        W38226  17.396   0.961  12.896 -0.1812 -0.1177 -0.1291
22093W        W38227   0.528   3.872  12.531  0.1147  0.1584 -0.1937
22094W        W38228  12.053   7.512  12.070 -0.2965 -0.0626  0.1240
22095W        W38229  17.964  13.471  13.358  0.2465 -0.1278  0.0780
22096W        W38230   7.069   9.474   1.318  0.1374  0.3977  0.2092
22097W        W38231   5.520   5.132   4.270  0.2821  0.3080 -0.2062
22098W        W38232   5.481  18.531  14.520 -0.0242 -0.1157  0.0391
22099W        W38233   5.959   7.376   1.148  0.1652  0.0906  0.0466
22100W        W38234   4.928   0.259   4.304  0.0569 -0.0606 -0.0515
22101W        W38235   3.870  15.241   5.117  0.2475 -0.0900  0.0126
22102W        W38236   0.911   6.072   0.169 -0.5736  0.0238  0.0487
22103W        W38237  12.043   8.079  10.371  0.3195  0.3338  0.2134
22104W        W38238  12.054   2.232  10.631  0.0994 -0.1304  0.0216
22105W        W38239   2.421  11.229  13.310 -0.0621 -0.0568 -0.1089
22106W        W38240   0.278  16.485   4.224  0.0167  0.2091 -0.0696
22107W        W38241   3.660  13.188   2.547 -0.1741  0.2839  0.2774
22108W        W38242   1.708   7.361  10.482 -0.1609  0.1077  0.0586
22109W        W38243   4.256  18.609  12.133 -0.1243  0.2414  0.0455
22110W        W38244   5.355   6.842  11.983  0.4930  0.0146 -0.1210
22111W        W38245   4.758   3.154   2.450  0.2035  0.0608 -0.2090
22112W        W38246   6.312  17.226  10.837 -0.0638  0.0318  0.1872
22113W        W38247  13.808  16.605  13.812 -0.1454  0.0690 -0.3277
22114W        W38248   3.641   2.155   3.124  0.3426 -0.0594 -0.2466
22115W        W38249  18.333  16.135   3.496  0.0329 -0.1802 -0.1968
22116W        W38250  11.654  12.761  14.939 -0.1466 -0.3473  0.2550
22117W        W38251  16.013   1.997  13.387 -0.3023 -0.0017 -0.1347
22118W        W38252   1.376  11.811   1.437 -0.1352  0.3529  0.0405
22119W        W38253   1.327   1.045  14.574  0.2500 -0.2603  0.2609
22120W        W38254   8.334   3.430  15.242  0.1552  0.0134  0.0831
22121W        W38255  12.134  16.663   4.201  0.1310 -0.1910 -0.3308
22122W        W38256  18.748  18.014   1.012 -0.0032 -0.1569 -0.2086
22123W        W38257  10.833   4.001  15.101  0.0177  0.1398  0.1871
22124W        W38258   2.447   6.722   0.830  0.1085 -0.1703  0.2726
22125W        W38259  18.208   6.922   1.259  0.0347 -0.0575 -0.0457
22126W        W38260  12.614   3.011   4.665 -0.0583 -0.0775 -0.0410
22127W        W38261  12.202  17.087   2.135  0.2437  0.2905  0.0268
22128W        W38262  10.239  16.109  10.957 -0.3414  0.1374 -0.1299
22129W        W38263   3.836   4.841   2.442 -0.3154 -0.1203  0.3677
22130W        W38264   7.092  15.980   4.865  0.0784 -0.3322 -0.1139
22131W        W38265  18.085  11.805   1.041 -0.1375 -0.1649  0.0739
22132W        W38266   0.660   7.293  12.537 -0.1429  0.0526  0.1744
22133W        W38267   3.387  17.751  14.297  0.2117 -0.6922 -0.0203
22134W        W38268  14.385  14.062   0.442 -0.1941  0.0864  0.1380
22135W        W38269  10.023  17.409   1.954 -0.1043 -0.0944 -0.1994
22136W        W38270  13.173   6.511   1.632 -0.1480  0.3077  0.1629
22137W        W38271   6.999   3.122   2.587  0.0346 -0.1863 -0.2884
22138W        W38272  13.118  11.010  14.877 -0.4011  0.1139 -0.0824
22139W        W38273   1.936  15.167   4.534 -0.0734  0.6186  0.1132
22140W        W38274   3.622  18.214   0.502  0.2530  0.2690  0.1539
22141W        W38275  16.991   2.067  13.653 -0.3821  0.0431  0.0713
22142W        W38276  14.094   0.396  12.146  0.1393 -0.1090 -0.0922
22143W        W38277  17.895   1.203   2.837  0.2077  0.1812  0.0457
22144W        W38278  14.879  13.301  10.680 -0.3920  0.1304  0.0677
22145W        W38279   1.488   2.009  12.319  0.2087 -0.5141 -0.2630
22146W        W38280  10.828   3.036  14.902  0.1720  0.0840  0.2397
22147W        W38281   1.094  14.136  11.371  0.4157  0.1277 -0.0566
22148W        W38282  16.178  13.734  12.777  0.0321 -0.2133 -0.0142
22149W        W38283  14.570   2.469   2.472 -0.1855 -0.2590  0.1975
22150W        W38284  15.786   5.678   2.903 -0.0266 -0.0043  0.0387
22151W        W38285  11.570   0.226   3.942 -0.1767  0.1988  0.0072
22152W        W38286  15.452   4.833   2.395  0.1024 -0.2349 -0.2299
22153W        W38287   0.908   3.165   3.689  0.0831  0.1562  0.1241
22154W        W38288   1.649  10.233  10.935  0.1200  0.1570  0.1291
22155W        W38289   0.443   0.620  14.132 -0.4259  0.0819  0.1354
22156W        W38290   3.887  17.584  15.076 -0.2528 -0.0305  0.0679
22157W        W38291  16.594  12.918   0.606 -0.0383  0.0086  0.2702
22158W        W38292  15.353  16.622   4.997  0.0212 -0.1837 -0.1723
22159W        W38293   7.988   5.032  13.923  0.0086 -0.1232  0.0482
22160W        W38294  17.918   5.983   1.622 -0.1024  0.0458  0.2490
22161W        W38295   6.283  15.294   3.857  0.3712 -0.1685  0.0303
22162W        W38296  17.173  11.762   3.006 -0.0116 -0.3322  0.0054
22163W        W38297   2.640   0.538   2.277 -0.4308  0.0728  0.0756
22164W        W38298  11.640   3.186   2.947  0.3336  0.1283 -0.0528
22165W        W38299   9.985  14.879  11.030 -0.0595  0.0791  0.3163
22166W        W38300   0.620   1.922  14.014 -0.0121 -0.4179 -0.0175
22167W        W38301   7.803   4.402   9.294 -0.3381  0.1099  0.0189
22168W        W38302   7.030  15.316   3.567  0.1027 -0.2231 -0.0096
22169W        W38303   9.710  18.772  11.854  0.0696  0.2427 -0.1983
22170W        W38304   6.646  11.182   4.271 -0.5197  0.2403  0.0027
22171W        W38305  16.579  11.198   3.755  0.1380  0.1350 -0.0341
22172W        W38306   1.002   9.238   2.555  0.0886 -0.0620 -0.1225
22173W        W38307  14.903   1.666  11.872  0.4496  0.2990  0.0716
22174W        W38308  15.147  15.327   5.214 -0.0517 -0.2269  0.0768
22175W        W38309   8.108   9.439   0.097  0.0120 -0.0759  0.0710
22176W        W38310   7.759   9.009  12.919  0.1834 -0.1583 -0.1675
22177W        W38311   7.523  12.475   5.192  0.1402 -0.0326 -0.0624
22178W        W38312   1.197   0.169  11.712 -0.0998  0.0960 -0.0445
22179W        W38313  12.901  14.877  15.066  0.0804 -0.2168 -0.1462
22180W        W38314  10.164   4.919   1.539  0.0382  0.1184  0.2387
22181W        W38315  13.614  13.720   0.103  0.0322 -0.3650  0.1926
22182W        W38316   5.000  12.362   2.176 -0.0326 -0.3310  0.4086
22183W        W38317  18.995   0.937   3.687  0.2672 -0.2713  0.2672
22184W        W38318  15.533  11.824   3.479  0.3936 -0.3091  0.0110
22185W        W38319   0.294  10.137  11.694 -0.1863  0.0311  0.1155
22186W        W38320   6.084   9.196   3.635  0.1735  0.1097 -0.0314
22187W        W38321   6.012   1.061  15.232  0.0563  0.4092 -0.0402
22188W        W38322   9.772   7.270   0.089  0.1719 -0.3450  0.1623
22189W        W38323   6.408   7.754  14.770  0.2076  0.1048  0.1244
22190W        W38324  14.134  18.373   0.974 -0.0770 -0.0243  0.0311
22191W        W38325   4.616   9.080  14.736  0.2677 -0.0040  0.0243
22192W        W38326  11.223  16.973   1.254 -0.3744 -0.1823  0.2999
22193W        W38327   2.868  17.767  14.428  0.0150  0.1769  0.2793
22194W        W38328  17.560   8.032  11.828  0.0912  0.0131 -0.1855
22195W        W38329  11.937   9.740   0.505  0.0927 -0.1329  0.1232
22196W        W38330  17.371   5.681  11.040 -0.1317  0.2485 -0.1782
22197W        W38331   2.084   2.087  10.579 -0.1495  0.0842  0.3188
22198W        W38332   8.419   0.737   1.958 -0.2484 -0.1101  0.2248
22199W        W38333   0.794   9.562   0.540  0.3590  0.0530  0.0793
22200W        W38334   7.068  13.822   4.895  0.1084 -0.0225 -0.1255
22201W        W38335   0.667   7.919   4.961  0.1493 -0.1582 -0.1844
22202W        W38336  13.511  11.192   0.852 -0.2466 -0.2840 -0.0858
22203W        W38337   4.649  10.554   0.579  0.1670  0.2155  0.4337
22204W        W38338  14.869  11.172   5.137 -0.0848 -0.0815 -0.0785
22205W        W38339   0.469   9.718   5.571  0.0841  0.2571 -0.0490
22206W        W38340   0.866  12.640  14.418 -0.1292 -0.1622 -0.2077
22207W        W38341  10.055   4.890   0.344  0.1065  0.2144 -0.1695
22208W        W38342  15.557   1.318  10.700  0.0707 -0.4274  0.0090
22209W        W38343  15.887   1.514   0.048 -0.2646  0.5601  0.4093
22210W        W38344   5.877  13.353   3.709 -0.0149 -0.2542 -0.1222
22211W        W38345  18.117  17.255   1.793 -0.0539 -0.0121  0.0808
22212W        W38346  15.180  12.799  10.641 -0.0907 -0.1867  0.0500
22213W        W38347   6.394   8.249   1.640 -0.0190  0.2072 -0.0366
22214W        W38348  15.629  18.389   3.101  0.2259 -0.1663 -0.1705
22215W        W38349  13.008  12.387   4.335 -0.2222  0.0424  0.2756
22216W        W38350  16.201   3.320   0.793 -0.4136 -0.0239 -0.0021
22217W        W38351  16.671  15.301   2.557 -0.1713 -0.2245  0.0905
22218W        W38352   3.246  13.428   4.184 -0.1506 -0.2001 -0.2817
22219W        W38353   9.530   7.719  11.014  0.0761  0.3044 -0.1461
22220W        W38354   4.711   8.640  10.397  0.2386  0.2579 -0.0175
22221W        W38355   3.566   2.386  12.399 -0.2493  0.0052  0.1946
22222W        W38356  15.096  14.431  11.637  0.2151 -0.0659  0.1454
22223W        W38357   9.524   6.820   3.249 -0.0953  0.1214  0.0808
22224W        W38358  11.489  16.143  11.693 -0.3198  0.1914 -0.3780
22225W        W38359   6.021  17.190   2.778 -0.3094 -0.3381 -0.4706
22226W        W38360   5.028   4.338  11.268 -0.0486  0.0964  0.0965
22227W        W38361   6.433  15.131   1.796  0.3214 -0.0181  0.0601
22228W        W38362  15.853  17.495   1.735  0.2964  0.2495 -0.0139
22229W        W38363  10.072  18.800   3.036 -0.0592 -0.2602  0.1686
22230W        W38364  15.425  10.441   3.202  0.1873  0.0707  0.1262
22231W        W38365  12.473   6.225  14.606 -0.1266 -0.0133 -0.1089
22232W        W38366  18.018   6.078  11.569 -0.1293  0.0250  0.1711
22233W        W38367  12.809  12.804  11.635 -0.0458  0.4146  0.1178
22234W        W38368  15.963   1.140   3.593  0.1033 -0.0216 -0.1317
22235W        W38369   1.502   2.300   1.518 -0.2366 -0.0143 -0.1403
22236W        W38370   9.173   7.206  11.147 -0.0671  0.0865  0.3075
22237W        W38371  15.232  16.382   0.048 -0.2131  0.1142 -0.1578
22238W        W38372  12.956  16.834   1.136 -0.0451  0.0029 -0.0472
22239W        W38373  11.455  18.064  14.627 -0.1739 -0.2060 -0.0563
22240W        W38374   7.291  11.731   4.874  0.1929 -0.2104  0.0158
22241W        W38375   2.194  16.690   3.383  0.3197 -0.0325 -0.4412
22242W        W38376   6.338   4.763   4.177 -0.1143  0.1846 -0.1826
22243W        W38377  15.478   1.202   3.845 -0.1314  0.0017 -0.0431
22244W        W38378  17.662   1.939   0.809 -0.2120 -0.0843  0.3035
22245W        W38379  16.295   5.915  15.013 -0.2438 -0.0345  0.3679
22246W        W38380  14.865   8.367  13.551  0.0284  0.0734 -0.1587
22247W        W38381   4.655  11.517   5.811 -0.2700  0.2094  0.1936
22248W        W38382  10.435   4.620   0.523 -0.0815  0.1361  0.1419
22249W        W38383  12.380   1.712   5.456  0.2288  0.1558  0.0021
22250W        W38384   7.284   8.425  14.965 -0.0459 -0.1625 -0.0666
22251W        W38385  12.350  10.059   0.581  0.1990 -0.1973  0.0028
22252W        W38386   1.554  13.605   4.148 -0.0454  0.4471  0.0823
22253W        W38387   2.791  15.195  12.082  0.1771  0.2544  0.0498
22254W        W38388  11.473   9.770   5.410  0.0035  0.0568 -0.1872
22255W        W38389  15.007  12.942  11.406 -0.0976 -0.0308 -0.0184
22256W        W38390   3.333   3.331  12.732 -0.3541  0.1603  0.2236
22257W        W38391  16.379  18.572  11.689  0.0089 -0.1080  0.1097
22258W        W38392   4.019   7.942  15.284 -0.1883  0.0797 -0.1261
22259W        W38393   5.105  13.815   2.471 -0.2206  0.1136  0.1530
22260W        W38394   8.610   5.256  10.318 -0.1504  0.1463  0.0379
22261W        W38395   2.176   9.990   0.513  0.1708  0.2348 -0.2721
22262W        W38396   7.444  16.040   3.635 -0.1703  0.2988 -0.0119
22263W        W38397  16.170   5.275   0.634  0.0022 -0.1757  0.2807
22264W        W38398   5.587  18.006  14.270 -0.0492  0.2375  0.1547
22265W        W38399  10.360   8.990   3.254  0.1206 -0.0916  0.0781
22266W        W38400   9.962  12.960   4.999 -0.2076 -0.3394  0.0689
22267W        W38401   6.790  10.306  10.650  0.0985 -0.0154  0.1088
22268W        W38402  16.161   5.073  12.106 -0.0162  0.1278 -0.4184
22269W        W38403   9.101  13.325  13.585  0.0041  0.0656 -0.1627
22270W        W38404  10.587  16.785   4.466  0.0673  0.3773 -0.0396
22271W        W38405  17.443  14.544   0.943 -0.3326  0.2291 -0.1124
22272W        W38406   1.463  11.948   3.046  0.0371 -0.2083 -0.3213
22273W        W38407   7.114  10.451  14.248 -0.0161  0.0374 -0.3619
22274W        W38408   4.634   8.543   3.718 -0.0492  0.1984 -0.3044
22275W        W38409   8.726   8.648  10.936 -0.2298 -0.1479  0.1303
22276W        W38410  18.421   0.115   4.627 -0.1116 -0.0078  0.1069
22277W        W38411  18.027  13.422  12.530  0.0600  0.0617  0.0556
22278W        W38412   5.768   3.713   5.677 -0.1050 -0.0938 -0.0063
22279W        W38413   2.282   0.065   2.235 -0.1275  0.0459  0.3893
22280W        W38414  14.658   3.016   1.565  0.0384  0.0366  0.0856
22281W        W38415   8.221   9.917   1.350  0.2514 -0.1440  0.0821
22282W        W38416  12.360   2.804  10.433  0.1235 -0.1079 -0.0969
22283W        W38417   8.469  17.160   4.508 -0.2440 -0.0317  0.1351
22284W        W38418   0.299   1.221  10.639 -0.2731  0.2928  0.2527
22285W        W38419  12.884  18.608   1.506  0.0710  0.1659  0.1102
22286W        W38420  11.058   7.638  13.090 -0.2053  0.0419  0.0109
22287W        W38421  11.132  16.543  13.269  0.1966  0.0834 -0.0172
22288W        W38422   3.158   2.953   3.104  0.0731 -0.2526 -0.0659
22289W        W38423   9.603   0.707  13.546 -0.1854 -0.1359 -0.1030
22290W        W38424  17.947  18.961   4.813 -0.1339 -0.0241 -0.1992
22291W        W38425   2.893  16.181  15.058  0.0152 -0.2504 -0.0343
22292W        W38426  10.358  15.671  12.172 -0.3499 -0.1046  0.0775
22293W        W38427  11.550  11.362  12.695 -0.2065 -0.0129  0.2388
22294W        W38428   2.130   2.985   1.060  0.3573 -0.1416 -0.0172
22295W        W38429   8.960   7.904  11.303  0.0696 -0.0467  0.0362
22296W        W38430  18.757   7.945   4.970  0.2499 -0.0942  0.1585
22297W        W38431   2.660   1.725  10.624  0.2073  0.0334  0.1149
22298W        W38432  10.644  11.566  14.900 -0.1522  0.4473 -0.0963
22299W        W38433   5.595  17.281  13.429 -0.2266 -0.3352  0.0451
22300W        W38434  10.794   8.502   5.072  0.0969 -0.1778  0.0046
22301W        W38435  18.947   1.786   9.445  0.0620 -0.0699 -0.1638
22302W        W38436  10.444   8.191   1.948  0.0407 -0.3452 -0.0858
22303W        W38437  11.596  15.010  12.306 -0.1625  0.4314  0.0046
22304W        W38438   6.226  13.551   6.006  0.1529  0.0846  0.1633
22305W        W38439   4.038  14.145   0.956  0.1157  0.0755 -0.0414
22306W        W38440  12.725   1.777  10.887  0.0865 -0.1814 -0.2833
22307W        W38441   4.269  16.283   0.672  0.2552  0.2848 -0.4310
22308W        W38442   6.873   9.919   4.801 -0.0553 -0.0323 -0.0168
22309W        W38443  13.521  11.388  14.895 -0.3275 -0.2574  0.0514
22310W        W38444   7.283  14.529  15.168  0.1135  0.0809 -0.1767
22311W        W38445  18.413  16.892  12.967  0.0346 -0.0288  0.3985
22312W        W38446  10.776   5.034  11.022 -0.2228  0.0298  0.0674
22313W        W38447  13.722   8.870   4.730 -0.0211  0.2412  0.2796
22314W        W38448  15.387  17.945   5.560  0.0410 -0.0257  0.2317
22315W        W38449  13.329   3.593  12.484  0.0459 -0.2071  0.4936
22316W        W38450  18.671   6.707   0.440 -0.0592  0.0132  0.1733
22317W        W38451  17.067  14.669   0.130  0.0754 -0.2823 -0.2615
22318W        W38452   5.634  17.427   3.075  0.0374 -0.0121 -0.0532
22319W        W38453   0.892   0.250   3.246  0.2898 -0.0543  0.0385
22320W        W38454  14.081  16.159   4.539  0.0045  0.2252 -0.1203
22321W        W38455  13.498   1.611   0.486 -0.1387 -0.1865  0.1735
22322W        W38456   3.959  14.005  11.345  0.0393 -0.2252  0.1755
22323W        W38457  14.936  13.335  11.784  0.3450 -0.1639 -0.1973
22324W        W38458  14.006   9.128  13.944 -0.1411 -0.0775  0.0348
22325W        W38459  10.721  16.370  11.696  0.0805 -0.0421  0.0163
22326W        W38460  11.239  14.811  10.255  0.0858  0.0342  0.3534
22327W        W38461   3.372   0.879  11.326  0.0405  0.4473 -0.0117
22328W        W38462   4.770  14.483   1.346 -0.1078  0.0040 -0.0480
22329W        W38463  12.626  18.710   2.384 -0.0631 -0.0470  0.1676
22330W        W38464   7.700  11.539  13.272  0.0638  0.1970 -0.0076
22331W        W38465  13.693  17.567   2.744 -0.0037  0.1942 -0.1707
22332W        W38466  13.723   4.364  10.820  0.1020  0.0575 -0.0058
22333W        W38467   4.491  18.377   2.740  0.2498  0.1197 -0.0695
22334W        W38468   6.430  12.289  10.356 -0.1018  0.0621 -0.0751
22335W        W38469   4.210   3.683  15.258 -0.1629 -0.2335 -0.1049
22336W        W38470   0.792   1.904   4.011 -0.1884 -0.2284 -0.0444
22337W        W38471   9.230  11.672  12.157  0.1770  0.1097  0.0515
22338W        W38472   3.706   1.750  12.190  0.1826 -0.3047 -0.2353
22339W        W38473   4.294   0.062   0.439  0.1611  0.0630 -0.0796
22340W        W38474   8.007  18.128   0.432  0.1712 -0.1932  0.0019
22341W        W38475  11.592   4.336  11.734  0.1872  0.2492  0.0739
22342W        W38476  14.920   4.283   2.002 -0.0298  0.0835  0.2004
22343W        W38477   3.203  18.148  12.679  0.1468 -0.0494 -0.2539
22344W        W38478   5.396   0.499  14.736  0.1821 -0.1360  0.3544
22345W        W38479   5.977   3.172  11.741  0.0170  0.0430  0.0759
22346W        W38480   7.995  15.318   4.028 -0.2267 -0.2228  0.0610
22347W        W38481  13.781   0.259  14.616  0.1509  0.0755 -0.0294
22348W        W38482  15.089   3.260  12.767 -0.1387 -0.2258  0.1196
22349W        W38483   0.924   9.960  12.501  0.1428  0.0974 -0.0964
22350W        W38484  12.507  17.874  13.335  0.0103  0.3977 -0.3310
22351W        W38485  10.990  15.617   0.665  0.4202  0.1295  0.0960
22352W        W38486  10.394   0.833   4.859  0.2461  0.0050 -0.0315
22353W        W38487   7.032   8.159  15.263  0.0458 -0.0639  0.1385
22354W        W38488  18.468   3.905  14.588  0.0251  0.1285  0.0485
22355W        W38489   9.041  15.872   2.749 -0.2335 -0.0265  0.0818
22356W        W38490  13.441   2.335  12.789  0.2128  0.2287 -0.5081
22357W        W38491  17.296  10.248  12.593 -0.0417  0.2107 -0.3749
22358W        W38492   1.525  18.063  14.031 -0.3869  0.1792  0.1393
22359W        W38493   8.430  18.895  13.385 -0.0474  0.2124 -0.2430
22360W        W38494  10.098  16.490  13.491 -0.0080  0.2185  0.1982
22361W        W38495   6.131   1.155   2.608  0.0426 -0.0989 -0.0407
22362W        W38496   9.319  11.056  10.516 -0.1796 -0.1173 -0.1321
22363W        W38497   4.769  14.010  12.820 -0.0105  0.1240 -0.1745
22364W        W38498   0.498  11.720  14.118 -0.2148 -0.0971 -0.0812
22365W        W38499  10.822   1.445   4.431 -0.0000  0.1705 -0.2987
22366W        W38500   5.285   1.016  13.291 -0.3121 -0.1048  0.3141
22367W        W38501  13.539   8.031  10.389  0.0765  0.2750 -0.0283
22368W        W38502  15.686  11.860   4.322 -0.1871 -0.1615 -0.1478
22369W        W38503   6.748   1.543  11.777  0.0512  0.0459 -0.2460
22370W        W38504   1.917   1.168  14.118  0.1291  0.0341  0.0650
22371W        W38505   1.786   1.295  14.632  0.0589  0.3762 -0.1357
22372W        W38506  16.363  18.361  11.160 -0.1653 -0.1298  0.3374
22373W        W38507   2.775  11.475  14.136 -0.1635 -0.1525 -0.2214
22374W        W38508   8.554   8.375   1.539 -0.1721  0.1591 -0.0538
22375W        W38509  14.965  11.128  11.488  0.0521  0.2814 -0.3989
22376W        W38510  18.988  17.474  12.855 -0.0659  0.0329 -0.0539
22377W        W38511  11.363  11.784  12.796  0.0306 -0.1780  0.1021
22378W        W38512  13.283  18.652  10.584  0.0705  0.2245  0.0458
22379W        W38513   8.387   1.831  13.865 -0.0611  0.0772  0.1076
22380W        W38514  12.979   7.521  11.593 -0.1731  0.0436  0.1611
22381W        W38515   4.615  17.037  10.664  0.2341 -0.0378  0.0198
22382W        W38516  13.652   6.544   3.445  0.0205 -0.1664 -0.1316
22383W        W38517   8.306   1.507  12.511 -0.1227 -0.0574 -0.0404
22384W        W38518   6.380   7.458   2.441  0.3499  0.0797  0.2535
22385W        W38519   3.813   1.608   0.389 -0.1365  0.0481  0.0719
22386W        W38520  13.212  16.054  12.115 -0.2320 -0.3028 -0.0282
22387W        W38521   7.063  10.110  11.015  0.2388 -0.3514 -0.2116
22388W        W38522  12.682   8.969  13.207  0.1116 -0.2394  0.2246
22389W        W38523  17.116  13.101  14.379 -0.0044  0.1241  0.1264
22390W        W38524  17.918   2.011   4.025  0.0757  0.1151 -0.0531
22391W        W38525  10.236   8.964  13.347 -0.0752 -0.1509  0.0624
22392W        W38526  12.406   7.030  12.016  0.0367 -0.2877  0.0824
22393W        W38527  10.783  13.795   4.280 -0.3195 -0.1461  0.0743
22394W        W38528  16.015  16.296   0.976  0.2692 -0.0965 -0.0714
22395W        W38529  17.113  15.495   5.074  0.1305 -0.2388 -0.0417
22396W        W38530  16.781   1.575  13.491 -0.0676 -0.0969  0.0173
22397W        W38531  17.256   4.319   0.223 -0.2355  0.0921  0.3230
22398W        W38532   2.239   2.083  14.230  0.1499  0.0088  0.2419
22399W        W38533   5.855  13.424   1.679  0.0126  0.0355  0.0022
22400W        W38534  16.141  10.335  13.538 -0.2381 -0.0245  0.0450
22401W        W38535  12.114  10.440   0.290  0.1689 -0.1598 -0.1356
22402W        W38536  12.791   5.809   0.849  0.1421  0.1565 -0.0938
22403W        W38537  12.507  13.751   3.761  0.2982  0.2471  0.1910
22404W        W38538   5.255   5.515  11.780  0.3266  0.2524  0.0378
22405W        W38539   4.450  16.517  14.057 -0.0959  0.0062 -0.0309
22406W        W38540  18.098  18.556   1.782  0.2911 -0.0957  0.2432
22407W        W38541   2.944  13.126  14.377  0.3165 -0.0337  0.2128
22408W        W38542   9.839   8.125   1.859 -0.0536 -0.0332 -0.2772
22409W        W38543  10.029  17.822  10.459 -0.1382 -0.0905  0.0772
22410W        W38544  12.956  12.650  10.987 -0.3847  0.0143  0.2594
22411W        W38545  17.899  14.651   3.517 -0.0800 -0.1481 -0.2677
22412W        W38546  10.746  17.344   3.134  0.1179 -0.0006  0.1133
22413W        W38547   5.566  10.964  13.648 -0.0446 -0.0896 -0.0640
22414W        W38548   2.418  14.072   0.719  0.2182 -0.1823  0.1588
22415W        W38549  12.010  12.985   3.747 -0.3034  0.1627  0.0085
22416W        W38550   9.156  17.091  14.572 -0.1999 -0.0835 -0.2111
22417W        W38551  13.966  17.508   4.488  0.1487 -0.0987  0.0171
22418W        W38552   2.390  10.933  13.760 -0.0018 -0.1821 -0.0235
22419W        W38553   1.894  11.615   0.689 -0.1607 -0.0073  0.1037
22420W        W38554  14.141   9.431  15.115  0.0258  0.1396 -0.0276
22421W        W38555   6.583  11.608   4.045 -0.0792 -0.2140  0.0098
22422W        W38556   8.328  15.652   2.004  0.2292 -0.3231 -0.0967
22423W        W38557   3.625   7.385  14.578  0.1287  0.0124 -0.2642
22424W        W38558  18.488   7.200   4.809 -0.4538  0.2653  0.1379
22425W        W38559  13.377  14.978  13.055  0.0122  0.0721 -0.2772
22426W        W38560  15.324  10.351   0.425  0.0828  0.1175  0.3305
22427W        W38561  10.881  14.695   0.296 -0.0578 -0.0461 -0.1505
22428W        W38562  17.573   8.393   0.251 -0.0788  0.0523  0.1494
22429W        W38563  11.354  11.890  10.565  0.3626 -0.0927  0.1862
22430W        W38564  14.741   5.161   2.104  0.1114 -0.1782  0.0874
22431W        W38565   5.680   2.509   4.484 -0.0434 -0.0616 -0.1578
22432W        W38566   2.428  12.474  10.702  0.3258  0.1875  0.2253
22433W        W38567   6.579  13.180   5.543  0.1440 -0.0965  0.1367
22434W        W38568   6.543   2.865  13.087 -0.3944  0.0530  0.4966
22435W        W38569  17.046   2.187  11.722  0.1507  0.0178  0.2035
22436W        W38570  13.805  12.764   4.744  0.1801 -0.0131 -0.0201
22437W        W38571   8.671  16.100   2.049 -0.1099 -0.1712 -0.1264
22438W        W38572   6.675   2.823   0.395  0.2208 -0.1304 -0.2599
22439W        W38573   0.538   5.122   0.483  0.1118  0.0341  0.1759
22440W        W38574   5.959  16.492  13.197 -0.1105  0.1789  0.4217
22441W        W38575   5.004  13.519   2.886  0.0881  0.1010 -0.1514
22442W        W38576  16.259   7.726   3.185  0.0167 -0.0783 -0.0203
22443W        W38577   1.100  16.451   4.458  0.1988 -0.0370  0.1658
22444W        W38578   7.993  18.830  13.978  0.0379  0.1095 -0.1618
22445W        W38579  15.579   9.811  12.847  0.0061  0.0706 -0.0089
22446W        W38580   0.303   7.554   5.770 -0.0598 -0.0710  0.0654
22447W        W38581   2.879   4.011  14.838  0.2504 -0.1043 -0.2158
22448W        W38582  13.827   1.668   4.978 -0.1698 -0.0755 -0.0678
22449W        W38583  12.742  14.577  13.700  0.2751 -0.1522  0.1371
22450W        W38584   7.279   8.984  12.408  0.0031  0.1723  0.0109
22451W        W38585   6.533   9.560   4.947  0.1598 -0.1298 -0.2305
22452W        W38586   0.015   7.587   0.607 -0.1404 -0.0864 -0.0547
22453W        W38587  11.710  14.860   4.532 -0.4582 -0.0740 -0.3749
22454W        W38588   1.157  15.390  12.307  0.0836 -0.0132 -0.0176
22455W        W38589  15.319  16.896  15.077 -0.2601 -0.0489 -0.0233
22456W        W38590   0.589  12.005   3.642 -0.2715 -0.0734  0.1511
22457W        W38591   5.438   5.734   1.321  0.1750 -0.0517  0.0764
22458W        W38592   1.090   1.545  12.558 -0.0084  0.0511 -0.0825
22459W        W38593   5.780  14.534   5.043 -0.1811 -0.1569 -0.1192
22460W        W38594  13.736   8.676  11.581 -0.0146 -0.0495  0.0975
22461W        W38595  10.016   5.282   1.884  0.2117 -0.0349 -0.0336
22462W        W38596  10.688  13.041  12.854 -0.1258 -0.2866 -0.0396
22463W        W38597   7.064  13.206  14.715 -0.2338 -0.0067 -0.2062
22464W        W38598  15.899  10.175   1.245 -0.1336  0.0145 -0.1828
22465W        W38599  16.232   1.306   5.727 -0.1225  0.0323 -0.2241
22466W        W38600  16.215  17.376   3.449 -0.1022  0.1820  0.1247
22467W        W38601  18.554   7.255   4.261 -0.5311  0.0791 -0.2234
22468W        W38602   8.866  16.818   1.613  0.1491  0.0660 -0.1482
22469W        W38603   4.964   8.657  11.657  0.1194 -0.1412 -0.0219
22470W        W38604   8.195  17.861  11.720  0.0665 -0.0201  0.1962
22471W        W38605   3.697   9.271   1.626 -0.1797 -0.1218 -0.2453
22472W        W38606   1.975   1.885   2.133  0.0824  0.1316  0.0183
22473W        W38607  17.620  15.190   5.929  0.2881 -0.0808 -0.0194
22474W        W38608  11.426  18.188   4.808 -0.0387  0.1758  0.0351
22475W        W38609   6.385   8.237  11.303  0.1225  0.0700  0.2168
22476W        W38610   0.545  12.834   0.807  0.2435 -0.0538  0.2566
22477W        W38611   2.912   0.085   0.391 -0.0459  0.1514  0.1108
22478W        W38612  10.738  15.101  11.185  0.2195 -0.1617 -0.0676
22479W        W38613  13.231  12.758   1.285 -0.1563 -0.1838  0.2426
22480W        W38614   4.087  15.992   2.179  0.0943 -0.1030  0.0601
22481W        W38615  16.511   6.263   5.988  0.0539  0.0499  0.1604
22482W        W38616  16.141   3.254  14.862  0.0390 -0.0325  0.0228
22483W        W38617  13.690  14.529   1.756 -0.0246  0.1019 -0.1583
22484W        W38618  15.963   7.555   5.133  0.0146 -0.0556 -0.3125
22485W        W38619   6.281   5.778  13.038  0.1863 -0.2777  0.2391
22486W        W38620   7.031   0.198   4.402 -0.2646  0.1054 -0.2703
22487W        W38621  18.773  16.192   3.269 -0.2093  0.1732 -0.1582
22488W        W38622   2.985   5.823  14.831 -0.1398 -0.0808 -0.0196
22489W        W38623  17.182  15.695   1.436  0.0332 -0.1554 -0.2380
22490W        W38624   3.234   1.686   3.989  0.2548  0.1028  0.0025
22491W        W38625  16.119  14.750   3.233  0.1713 -0.3042 -0.0767
22492W        W38626   5.158  12.438   1.119  0.0202 -0.4384 -0.1330
22493W        W38627  14.123   6.250   0.666  0.4302 -0.1247  0.3384
22494W        W38628  14.677  12.343  13.225  0.4481 -0.1902  0.0951
22495W        W38629  17.977  11.143   0.341 -0.2196  0.0905  0.3901
22496W        W38630  10.738   7.579  13.615  0.1071  0.0328  0.0197
22497W        W38631   3.157   7.328  10.949 -0.1057 -0.0384  0.2241
22498W        W38632   8.770   3.496   3.921 -0.0246  0.0840 -0.0052
22499W        W38633   6.735   0.260   2.800  0.0093  0.0464 -0.3407
22500W        W38634  16.898   5.746   4.308  0.0862 -0.0282 -0.1869
22501W        W38635   1.549   4.271   3.135 -0.2055  0.0174  0.3288
22502W        W38636  16.354  11.129   4.204  0.0668  0.2009 -0.0714
22503W        W38637  17.159   2.227  14.378 -0.0528 -0.1864 -0.3875
22504W        W38638   1.312   6.152  10.871 -0.0768  0.2623  0.1467
22505W        W38639  15.192  11.752  10.005 -0.1366  0.2930 -0.2895
22506W        W38640  15.579  16.288  11.161 -0.0394 -0.2761 -0.2102
22507W        W38641  16.816   4.310   3.268 -0.1408  0.1344  0.0625
22508W        W38642  11.609   1.191  12.153  0.0084  0.0320  0.0155
22509W        W38643  14.879   7.074  11.041  0.0420 -0.2329  0.0399
22510W        W38644  10.629  11.569  12.515  0.0212 -0.2056 -0.0827
22511W        W38645  14.400   4.106   0.613 -0.2693 -0.4409  0.0281
22512W        W38646  16.408   4.381   2.362 -0.2541 -0.4314 -0.1023
22513W        W38647  17.901   5.347   5.205  0.0310 -0.1645 -0.1832
22514W        W38648   8.351  11.697   4.282 -0.2279 -0.0550  0.1172
22515W        W38649  17.849   1.038  14.920 -0.0726  0.0813  0.1665
22516W        W38650  10.943  16.342   0.122  0.1832  0.0553  0.1277
22517W        W38651  15.932  12.373   2.804  0.0897 -0.1174 -0.2637
22518W        W38652   3.965  17.965   2.463 -0.3007  0.0543  0.3415
22519W        W38653   4.218   2.002  14.531  0.0349 -0.1860  0.1983
22520W        W38654  18.171   6.833   2.347 -0.1123  0.1747  0.0289
22521W        W38655  14.542   6.308   1.710  0.2808 -0.1566 -0.0236
22522W        W38656   6.072   3.552  13.791  0.3437 -0.1068  0.3569
22523W        W38657   4.617   9.394   2.744  0.0813  0.0342 -0.1047
22524W        W38658   7.483  13.675   1.334 -0.3143  0.1269  0.1696
22525W        W38659  14.218   8.292  12.274 -0.1792  0.2766 -0.2435
22526W        W38660   2.489   8.783  13.294 -0.2424  0.1077  0.0622
22527W        W38661  10.279  18.496   4.321  0.0135 -0.2511  0.2408
22528W        W38662  11.616  16.499  12.637  0.1118 -0.1591 -0.0485
22529W        W38663   6.259   5.649   0.162  0.3411  0.2493  0.1389
22530W        W38664   3.270   6.616  13.784  0.4052  0.1423 -0.0651
22531W        W38665   0.710  14.479   6.226 -0.2339  0.0930 -0.0652
22532W        W38666   6.557   3.616  13.601 -0.0743  0.2173  0.2904
22533W        W38667  17.680  18.754  13.249 -0.0867 -0.2902 -0.0572
22534W        W38668  17.812  15.594   3.868  0.2437 -0.2077  0.1220
22535W        W38669  16.260   0.736   2.176  0.4024 -0.2761  0.0596
22536W        W38670   8.771   2.918  14.592  0.1612  0.2013 -0.3612
22537W        W38671   2.268   8.840   2.541 -0.0395  0.1171  0.2966
22538W        W38672  11.230   3.042   0.557  0.0057 -0.1327  0.1885
22539W        W38673   4.464  10.971  12.927 -0.2109  0.0957  0.0871
22540W        W38674  17.170   2.360   1.337 -0.0608 -0.0738 -0.3963
22541W        W38675  17.819  12.449   3.117  0.1619 -0.4295 -0.2388
22542W        W38676   6.090   7.979  13.465  0.2121 -0.0892 -0.3045
22543W        W38677   1.176  10.199  12.143 -0.3352 -0.0726 -0.2678
22544W        W38678  17.286   0.941   3.343  0.0043 -0.0641 -0.0329
22545W        W38679   3.075  12.426   0.805 -0.3591 -0.0061  0.0456
22546W        W38680  15.548  11.779  13.888 -0.3611 -0.1043  0.1442
22547W        W38681   6.143   8.740  11.333  0.0480 -0.1374  0.0868
22548W        W38682  18.824   3.877  14.153  0.0689  0.1095  0.1046
22549W        W38683   5.805  14.192   2.145 -0.0378  0.0637  0.1975
22550W        W38684  17.895   1.938  14.240 -0.3278  0.0866 -0.0121
22551W        W38685   8.634   0.285   1.889 -0.2924  0.2440 -0.3278
22552W        W38686  16.779   1.385  12.214 -0.1019 -0.0483 -0.1243
22553W        W38687  12.040  17.700  15.037  0.0218  0.0396  0.0600
22554W        W38688  13.513  13.555   4.626 -0.1073  0.1663  0.2801
22555W        W38689   2.665   4.540   0.951 -0.3193  0.3317 -0.1922
22556W        W38690  13.319  14.696  14.659  0.0813 -0.0388  0.0169
22557W        W38691  17.655   9.681  13.787 -0.4135  0.3644  0.1434
22558W        W38692  14.921   2.581  11.279  0.1504  0.0050  0.1570
22559W        W38693  13.080   7.533   2.465  0.0317 -0.2323  0.4916
22560W        W38694  10.186   1.786   1.146 -0.1036  0.3577 -0.2521
22561W        W38695   3.187  15.992  14.197 -0.1958  0.2522 -0.0830
22562W        W38696  13.331  14.049  13.580 -0.0687 -0.1468 -0.0009
22563W        W38697  13.592  15.060   1.623 -0.3008 -0.1946 -0.0085
22564W        W38698   2.932   6.926   3.014 -0.2755 -0.1770 -0.0037
22565W        W38699   2.670  15.207   2.058  0.0370 -0.1328  0.0842
22566W        W38700   9.177   8.290   0.115  0.1499  0.0343 -0.3855
22567W        W38701   1.835   9.905  14.937  0.0700  0.0691  0.1478
22568W        W38702   2.783   6.138  11.207  0.0765  0.0112 -0.0133
22569W        W38703   2.024   8.196   0.906  0.4373 -0.1677  0.0172
22570W        W38704  18.328  18.594  15.139 -0.0269  0.3270  0.1557
22571W        W38705   6.009   6.622   1.091  0.0446 -0.2161  0.1835
22572W        W38706   2.956   8.543  12.810 -0.0596  0.1567  0.1000
22573W        W38707  16.643  14.694   0.487 -0.1212  0.1934  0.3921
22574W        W38708  12.723   5.218  10.483  0.0447 -0.2133  0.1043
22575W        W38709   3.436   5.018   2.167 -0.1105  0.1231 -0.0614
22576W        W38710   2.198   4.345   3.469  0.4187  0.2681  0.0482
22577W        W38711  16.812  16.676  14.236  0.0901 -0.1265 -0.5678
22578W        W38712   4.422   3.062  12.502  0.1822  0.3676 -0.0675
22579W        W38713   7.410   0.700   3.147  0.0335  0.1200 -0.1961
22580W        W38714  13.009  14.816  11.944 -0.0286  0.2009  0.1485
22581W        W38715  14.607  18.360  13.369  0.0339 -0.2729  0.0361
22582W        W38716  17.528   2.060   3.731  0.0943  0.1492  0.3099
22583W        W38717  11.801  14.414   1.053  0.0878 -0.2939 -0.0355
22584W        W38718   3.584  12.948  10.850 -0.0258  0.3266 -0.3088
22585W        W38719   4.446   1.190  12.451 -0.0692  0.1152  0.4113
22586W        W38720   7.200  11.647  13.053 -0.1829 -0.0168  0.1981
22587W        W38721   9.483  16.214   0.017  0.0895  0.3609  0.0383
22588W        W38722   1.479  17.670  12.580  0.0241  0.1430  0.2218
22589W        W38723   5.677   8.973   1.212 -0.0865  0.0275 -0.1093
22590W        W38724   0.371   6.172   0.323  0.0365 -0.0410  0.1744
22591W        W38725  17.700   5.692  15.073  0.1620  0.2125  0.1687
22592W        W38726   9.099   0.183   0.632  0.2909 -0.0602  0.0286
22593W        W38727   2.559   7.543  12.980 -0.0317 -0.0468 -0.2237
22594W        W38728  13.149  15.083  12.401 -0.1667 -0.0529  0.0092
22595W        W38729   7.213  13.497  11.144  0.2685  0.2022 -0.1001
22596W        W38730  10.753   3.974   3.726  0.1933 -0.0417  0.1725
22597W        W38731  10.604  15.886  15.060 -0.3309  0.3994  0.1123
22598W        W38732  15.873   6.228   5.454  0.0319 -0.0492 -0.1754
22599W        W38733  17.330   8.358  12.358 -0.1987 -0.1020  0.1939
22600W        W38734   4.810  16.647  10.957  0.2185 -0.0940  0.2440
22601W        W38735   2.525   5.648  13.948  0.1991 -0.1378  0.1213
22602W        W38736   3.151   8.612   2.502 -0.0830  0.0202  0.2157
22603W        W38737   6.202  17.420   5.450  0.0291 -0.0580  0.2016
22604W        W38738   3.485  11.161   2.849 -0.3778  0.0867 -0.2705
22605W        W38739  17.861   0.902   5.491 -0.3170 -0.0973 -0.0928
22606W        W38740   2.062   1.490   2.462  0.1322  0.1108 -0.2916
22607W        W38741   9.464  15.222   0.890  0.4680 -0.0383  0.1510
22608W        W38742   2.034  18.074  14.889 -0.2515 -0.2348 -0.0360
22609W        W38743   7.074   4.913   3.088  0.0700  0.0306  0.0605
22610W        W38744   4.803   5.316  14.981  0.1097  0.2458 -0.2191
22611W        W38745  15.199   9.932   0.097  0.0673  0.3982  0.0276
22612W        W38746  11.671  10.605   3.488 -0.0197  0.0246 -0.2600
22613W        W38747   5.834   0.983   2.987 -0.1308 -0.2004  0.1433
22614W        W38748  16.863   3.453  13.504  0.3151 -0.0122 -0.2499
22615W        W38749   1.301  10.361  14.085  0.0645 -0.4088 -0.1107
22616W        W38750   7.200   2.835   2.140  0.1409  0.1441 -0.0174
22617W        W38751  17.526   8.496   2.834  0.1510 -0.0442 -0.1118
22618W        W38752  18.307   7.369  14.667 -0.0376 -0.1170 -0.0300
22619W        W38753  15.296  16.940  12.380  0.3030 -0.2072  0.4499
22620W        W38754   6.873  15.059  13.800 -0.3047 -0.0581 -0.0188
22621W        W38755   8.079   8.025  13.981  0.4295 -0.4008 -0.1645
22622W        W38756  17.175  15.275   1.203 -0.0883  0.0827 -0.0645
22623W        W38757   6.421  16.995  11.905 -0.0785 -0.0196  0.0218
22624W        W38758   5.822   9.747   0.885 -0.0713  0.0326  0.2362
22625W        W38759  14.591  14.123   1.912  0.3546  0.2275  0.3102
22626W        W38760   3.685  16.428  12.584 -0.4154 -0.0078  0.1261
22627W        W38761   0.304  11.413  11.653 -0.1862 -0.1014 -0.1007
22628W        W38762  18.911   3.209   4.625 -0.0105  0.0071 -0.0421
22629W        W38763  10.428  16.887   5.061 -0.0320  0.2625  0.1481
22630W        W38764   5.095  12.022  12.635  0.2579 -0.1476 -0.1559
22631W        W38765  18.919   6.252   3.320 -0.1015  0.0915  0.3743
22632W        W38766   0.720  17.316   2.457 -0.3893  0.1884 -0.0940
22633W        W38767  18.654   3.123  12.021  0.3311 -0.3163  0.0562
22634W        W38768  11.423  16.996   2.505  0.0689 -0.1696  0.5277
22635W        W38769  10.454   6.446   1.081  0.0613 -0.2202 -0.4429
22636W        W38770   5.301   3.732  14.603 -0.0495 -0.1102  0.2580
22637W        W38771   4.631  15.800  14.676 -0.3301 -0.3521  0.1036
22638W        W38772  10.385   8.115   4.847 -0.0086  0.0260 -0.2960
22639W        W38773   1.756   3.193  11.123  0.2335 -0.1696 -0.1707
22640W        W38774  18.400  14.230  14.395 -0.1115  0.1425 -0.1629
22641W        W38775   7.903  11.638  11.854  0.4386 -0.0394  0.1157
22642W        W38776   7.808   8.463   3.521  0.0927 -0.2217  0.1188
22643W        W38777   5.610  16.382  11.272  0.0297  0.1673  0.0520
22644W        W38778  10.009  17.830  14.054 -0.0172  0.1526 -0.1192
22645W        W38779   3.762  18.388  14.148  0.1100 -0.0152 -0.1092
22646W        W38780  12.922  12.706  12.157 -0.2523  0.1062  0.3691
22647W        W38781   9.124   1.408  11.054 -0.1618 -0.0955  0.1699
22648W        W38782  17.124   3.278   1.095 -0.5085  0.0240  0.0638
22649W        W38783  18.586  16.531   5.767 -0.2078  0.0698  0.1362
22650W        W38784  15.255   0.628   3.621 -0.2716 -0.1355  0.0357
22651W        W38785   9.660  18.367   0.525 -0.4104 -0.0061  0.3134
22652W        W38786  16.818   1.970   0.862  0.2603 -0.0399  0.2489
22653W        W38787  12.524  15.600   0.882 -0.1054 -0.0909  0.2359
22654W        W38788  18.399  17.229  10.687  0.0420  0.0271  0.2143
22655W        W38789   5.772   2.236  10.794 -0.1774  0.2640  0.1445
22656W        W38790  16.685   0.478  12.617 -0.0223 -0.1725  0.2079
22657W        W38791  18.690  12.450   4.733 -0.0386 -0.5904 -0.1218
22658W        W38792   2.567   3.627   3.185  0.0127  0.0850 -0.1355
22659W        W38793   0.588  17.156  11.397  0.0844  0.3208 -0.0771
22660W        W38794   6.655   8.613   1.123  0.1096  0.1056 -0.1934
22661W        W38795   5.215   4.851  11.004  0.2264 -0.0805  0.3294
22662W        W38796  17.189  13.660  13.154  0.3886  0.0976  0.0464
22663W        W38797   1.227  18.855   1.304 -0.0612  0.0408 -0.3194
22664W        W38798  16.703   8.944  11.595  0.1859 -0.0151 -0.3430
22665W        W38799   9.511   9.853   1.042  0.2203  0.1457 -0.0472
22666W        W38800   1.244   5.802   1.170 -0.1269 -0.0999 -0.2525
22667W        W38801  17.095   1.576   1.954  0.2970 -0.0107  0.0129
22668W        W38802   0.495   6.111  14.076 -0.1711  0.3412  0.0172
22669W        W38803   7.172  16.394  13.030 -0.1318 -0.1526 -0.0669
22670W        W38804   3.347   4.979   4.905 -0.3619  0.1071 -0.0371
22671W        W38805   9.521   4.947   0.991  0.1422  0.3167  0.0465
22672W        W38806   6.678  10.521  12.366  0.0259  0.2047  0.1569
22673W        W38807   7.457  18.944  14.182 -0.4098  0.1002  0.3201
22674W        W38808  18.403   8.546   1.279  0.0039 -0.1528  0.0937
22675W        W38809   0.661  11.709  13.239 -0.1362 -0.1645 -0.1837
22676W        W38810   0.252   0.502   4.029  0.1163  0.2019 -0.1567
22677W        W38811  18.786   1.053   3.143 -0.0465 -0.2395  0.0810
22678W        W38812  13.231   9.265   0.029  0.1161  0.0433  0.1820
22679W        W38813  18.832   0.743  14.062 -0.0655  0.1011  0.0836
22680W        W38814   3.593   6.528  10.538 -0.0027  0.1606 -0.0497
22681W        W38815  14.932   3.049  14.072 -0.3734  0.1078 -0.0037
22682W        W38816  13.504  14.296   3.056 -0.0387  0.0578  0.1319
22683W        W38817  15.186  12.804   3.310  0.0158 -0.0267  0.0829
22684W        W38818   1.617  17.407   2.324  0.3282 -0.0481 -0.1942
22685W        W38819  17.473   3.573   4.158  0.0507  0.2135 -0.1495
22686W        W38820  17.350  13.774   0.417 -0.2341 -0.0180  0.0142
22687W        W38821   4.416  15.757  15.125 -0.1131  0.1618  0.0669
22688W        W38822  17.201  12.097  11.540  0.1768 -0.1536  0.0737
22689W        W38823  15.980  12.163   3.268 -0.1224 -0.0034  0.1197
22690W        W38824  14.594   1.777   1.826 -0.0190  0.0105  0.1321
22691W        W38825  10.056  11.435   3.521 -0.0907 -0.3370  0.0195
22692W        W38826  14.229   7.808   2.920  0.0439  0.1520  0.0820
22693W        W38827   8.454   2.792   4.730  0.1008  0.0211 -0.0600
22694W        W38828   0.507   5.212  14.138  0.1034 -0.1663 -0.1899
22695W        W38829   8.504  12.194   0.698  0.0418 -0.0461 -0.0111
22696W        W38830  14.887  11.712   3.601  0.1424  0.3756  0.0668
22697W        W38831  18.403   8.887   5.211  0.1659  0.1935  0.0971
22698W        W38832  12.678  17.532   3.984  0.1504 -0.4121 -0.0526
22699W        W38833  17.278   3.140   0.633 -0.0298  0.0978 -0.2096
22700W        W38834   0.900  10.641  10.599 -0.0466  0.1299  0.0652
22701W        W38835  15.469   7.630   3.739  0.2286 -0.1779  0.1875
22702W        W38836  18.474   2.275   6.020  0.0463  0.0645  0.1028
22703W        W38837   4.542  18.682   1.014 -0.0815 -0.0823 -0.1944
22704W        W38838   4.849  15.899   2.750  0.0856  0.1176 -0.2406
22705W        W38839   8.709   8.643   0.648 -0.0850 -0.1373  0.0499
22706W        W38840   5.461   8.247  12.399 -0.0355 -0.2512  0.1780
22707W        W38841   9.379   3.868  14.841  0.0157  0.2075  0.1994
22708W        W38842  12.730  15.658  11.171  0.1921  0.0071 -0.1452
22709W        W38843   3.984   8.081  13.906 -0.0817  0.1881 -0.0185
22710W        W38844   4.481   2.698  11.788 -0.0571 -0.3469  0.1270
22711W        W38845  16.813  15.966  14.657 -0.1133 -0.0984 -0.1228
22712W        W38846   6.601   4.265  11.744  0.1320 -0.0748  0.0614
22713W        W38847  11.709   2.011  12.106  0.0849  0.1872 -0.0165
22714W        W38848   1.929  17.241  13.956  0.0316 -0.2532  0.3491
22715W        W38849   7.388  15.198   4.827 -0.0198  0.1155  0.2123
22716W        W38850  18.039  18.394  12.925  0.0188  0.0203  0.2734
22717W        W38851  16.503  16.961  13.735 -0.2239 -0.2426 -0.0034
22718W        W38852  12.765   8.779   1.594 -0.1128 -0.3378  0.0976
22719W        W38853   5.383   4.128   3.565  0.0013  0.0144  0.4158
22720W        W38854   9.821   2.994  14.811  0.0917  0.0845  0.0085
22721W        W38855  17.615  11.555  12.836  0.1403  0.2036 -0.0032
22722W        W38856   4.741   7.781  11.260  0.1538 -0.0936  0.1747
22723W        W38857   6.132   4.320  10.516  0.0881  0.4324 -0.2773
22724W        W38858   6.767   7.894  11.324 -0.0380  0.0435  0.2225
22725W        W38859   3.560   0.513   4.908  0.3104 -0.0125  0.0701
22726W        W38860  11.030  17.394  15.094  0.1322 -0.0674 -0.1182
22727W        W38861   5.652  17.467  14.375 -0.3051  0.0889 -0.0235
22728W        W38862   9.521   9.199   2.531 -0.3788 -0.0906  0.0911
22729W        W38863  12.044  15.638   9.453  0.2300 -0.1008  0.2872
22730W        W38864   7.613   3.274  10.577 -0.0735 -0.1054  0.0027
22731W        W38865   0.790  16.475   6.108  0.0934 -0.0678  0.0838
22732W        W38866  15.351   4.933  13.891  0.2820  0.1614  0.2642
22733W        W38867   9.918  12.173   1.779 -0.1257 -0.0250 -0.0000
22734W        W38868   2.120   1.853  12.873  0.0015 -0.2922  0.1954
22735W        W38869  15.786   3.283   1.038  0.2556  0.2880 -0.0770
22736W        W38870   2.337   5.907   1.146  0.2000 -0.0637 -0.0353
22737W        W38871   1.712   4.556  12.725  0.2021 -0.3578 -0.1258
22738W        W38872   7.252  12.388   5.635  0.0895 -0.1857  0.0015
22739W        W38873  11.227   2.555  11.954  0.2577 -0.0139 -0.1430
22740W        W38874  12.832  18.440  11.029  0.0405  0.2583  0.3500
22741W        W38875  10.861   0.448  14.673  0.0689  0.0466 -0.1312
22742W        W38876  13.446   0.361  14.985  0.2970  0.1636 -0.0459
22743W        W38877  15.113  12.933   2.844  0.1700 -0.0473 -0.2939
22744W        W38878  17.380  17.241  13.960 -0.1455  0.0167  0.1637
22745W        W38879   1.951   7.077  11.442  0.1324  0.1349 -0.1699
22746W        W38880  14.113   8.786   2.940 -0.2347 -0.3909 -0.2006
22747W        W38881  16.599   6.821  11.244 -0.1368  0.2044  0.1132
22748W        W38882  11.931  13.740   3.045  0.1271  0.2887  0.0484
22749W        W38883  14.212   3.690   2.634  0.2415  0.2875  0.0160
22750W        W38884   6.272   9.205  13.086 -0.1754  0.1455 -0.4405
22751W        W38885   4.832   4.228  14.448 -0.1180  0.1795 -0.0017
22752W        W38886  14.147   7.068  12.220  0.0901  0.1773 -0.2169
22753W        W38887  18.815  15.669   0.812  0.1547 -0.0250  0.0524
22754W        W38888   6.301   7.750  14.235  0.1242 -0.0925  0.1023
22755W        W38889  17.963   1.909   5.619 -0.1110 -0.0613 -0.1459
22756W        W38890  15.072   8.055   4.378  0.3429  0.0286 -0.0498
22757W        W38891   6.116   6.595  11.872 -0.2333 -0.1362 -0.1805
22758W        W38892  15.089   3.881  10.371  0.0318 -0.0365 -0.0900
22759W        W38893  16.746  17.755  10.765 -0.0857  0.2248  0.3569
22760W        W38894   8.256   5.109   0.100 -0.0057 -0.0080  0.0306
22761W        W38895   5.761   3.490   0.240  0.0948 -0.1568  0.1052
22762W        W38896   9.896   2.682   5.030  0.4525  0.0326 -0.0578
22763W        W38897  16.004   5.824   0.489 -0.2507 -0.1682  0.2962
22764W        W38898   0.762   0.337  11.939 -0.1225 -0.1313  0.1266
22765W        W38899   7.638   8.513   0.572  0.0497  0.3158  0.1997
22766W        W38900   3.145  17.666   0.730  0.0676  0.2029 -0.0037
22767W        W38901  16.081   5.083   6.064  0.1006 -0.0525 -0.0719
22768W        W38902  13.656   6.676   1.170  0.0681  0.0913  0.0060
22769W        W38903   9.590  12.617   0.447  0.0570  0.0627 -0.1572
22770W        W38904   5.401  15.818  11.247 -0.3810 -0.2125 -0.2814
22771W        W38905  16.147  13.966   2.834 -0.2186 -0.1916 -0.2723
22772W        W38906  16.582  15.453  14.716  0.2004 -0.0262 -0.0515
22773W        W38907   6.142  11.624  15.231  0.0162  0.0467 -0.1480
22774W        W38908   8.416   7.656  10.755  0.2363  0.1395 -0.0846
22775W        W38909  18.430   4.932  15.202  0.1850  0.0426 -0.1653
22776W        W38910  14.226  13.605  11.307 -0.0488  0.4284  0.2824
22777W        W38911  13.961  16.082  13.910  0.0166  0.3059  0.2649
22778W        W38912  16.188   7.967  13.842  0.1273  0.1353 -0.0299
22779W        W38913  17.658  14.803  12.330 -0.0110  0.4050  0.3024
22780W        W38914  14.376  16.974   4.329  0.1495 -0.1678  0.1583
22781W        W38915   0.046   8.125  13.679 -0.1540 -0.0699 -0.0092
22782W        W38916   4.013  16.614  13.150  0.5311  0.3141 -0.4234
22783W        W38917  17.732   7.092  11.513  0.3021  0.0105  0.0966
22784W        W38918   6.559  11.617  12.987 -0.1405  0.1480 -0.1753
22785W        W38919   2.043   0.729  12.634 -0.0591  0.0944 -0.3057
22786W        W38920  14.192   9.699  10.764 -0.0078 -0.1510 -0.0784
22787W        W38921   3.475   6.706   0.914  0.0024 -0.1877 -0.0598
22788W        W38922   5.651   8.707   3.306 -0.2511 -0.0370 -0.0698
22789W        W38923   8.208  15.592   4.979 -0.0901  0.0922 -0.1841
22790W        W38924   9.327   6.015   2.632  0.3680 -0.2208 -0.0109
22791W        W38925   3.356  12.677  13.681  0.0063 -0.3038 -0.0384
22792W        W38926   0.322   8.977   3.475 -0.0037 -0.0262 -0.0637
22793W        W38927  11.182   6.543   1.477 -0.0719 -0.1647  0.0935
22794W        W38928  11.001   7.919   2.948 -0.1368  0.1417  0.0879
22795W        W38929  13.408  15.859  13.252 -0.0681  0.2742 -0.1350
22796W        W38930   8.363   8.466   3.635  0.1937 -0.0301 -0.0785
22797W        W38931   7.332   5.163   2.119  0.4748  0.2858 -0.0720
22798W        W38932   6.854   6.639  12.066 -0.0979  0.2102  0.1140
22799W        W38933   9.066  10.726   2.851  0.1175  0.0456 -0.2270
22800W        W38934  14.690  11.456   3.164  0.0757  0.1270 -0.0171
22801W        W38935   1.327  15.749   2.964 -0.1198 -0.1421  0.2134
22802W        W38936   9.022   8.681  13.069  0.1355 -0.2434 -0.1942
22803W        W38937   0.309   6.218  12.816  0.1711  0.0340  0.3014
22804W        W38938  15.660   3.900   2.711 -0.1048  0.1960 -0.1313
22805W        W38939  18.656  10.732   4.574  0.1416 -0.1031 -0.1719
22806W        W38940   5.861  18.720  14.817  0.2136 -0.2238  0.2593
22807W        W38941   4.591   0.820  10.352 -0.2006  0.0627 -0.0749
22808W        W38942   3.411  10.264   1.598  0.0782  0.1369 -0.1391
22809W        W38943   8.887  18.026  10.392  0.0524 -0.1488 -0.1166
22810W        W38944   6.628  12.826   3.198 -0.1927 -0.0550 -0.3099
22811W        W38945  17.030   7.889   4.357  0.1461 -0.1127 -0.1583
22812W        W38946   4.436  17.075  13.870 -0.3169  0.1946  0.1276
22813W        W38947   0.665  16.396  12.811  0.2227  0.2149  0.0378
22814W        W38948  17.360   1.400  12.117 -0.0196  0.1265  0.0038
22815W        W38949   4.038   2.413   2.366  0.0523  0.0203  0.0758
22816W        W38950  11.819   0.421  13.337  0.0401 -0.0173  0.1065
22817W        W38951   2.519   5.492   1.520 -0.5347 -0.2929  0.0309
22818W        W38952   5.904   5.657   1.175 -0.0109  0.2222  0.2197
22819W        W38953  13.944  14.081   1.801 -0.0036 -0.1296 -0.0540
22820W        W38954  15.093   9.037   3.767  0.2583 -0.0848 -0.1963
22821W        W38955   8.573   9.342  10.590  0.3061  0.2722 -0.1140
22822W        W38956  12.310   3.853   1.720 -0.3619  0.0354  0.1302
22823W        W38957   6.383  16.895   3.059  0.0095  0.1055 -0.0484
22824W        W38958   6.625   3.154   4.715 -0.0356 -0.2566 -0.0347
22825W        W38959   6.549  18.000   3.362 -0.0716  0.3279  0.3052
22826W        W38960   8.984  10.810   0.085  0.0038  0.0753 -0.3118
22827W        W38961   3.721   8.285  14.387  0.0841  0.2610  0.1775
22828W        W38962   1.869  14.225   2.410 -0.1187 -0.0119 -0.0837
22829W        W38963   7.387   4.291   4.790 -0.2925  0.0129  0.4213
22830W        W38964  13.873  16.243   1.050 -0.2803  0.2162 -0.0625
22831W        W38965   1.077   7.373   3.292 -0.2191 -0.1151  0.0493
22832W        W38966   8.191  15.192   2.544 -0.0384 -0.0001 -0.2105
22833W        W38967  16.744   7.813  12.022 -0.3302  0.0064 -0.2061
22834W        W38968  16.916  18.048   1.828 -0.2557  0.0966  0.1814
22835W        W38969   2.753   2.326   1.358  0.0435 -0.1738  0.0009
22836W        W38970  16.129   0.491  12.340  0.0799 -0.0755  0.1113
22837W        W38971  13.478   2.021   4.181  0.1095  0.3875  0.1410
22838W        W38972  10.188   6.192  13.709  0.1009 -0.0432 -0.0858
22839W        W38973   1.592   0.535   0.921 -0.0114  0.2226  0.0156
22840W        W38974  13.369   3.468   3.107 -0.0594 -0.0875 -0.3402
22841W        W38975   2.475  14.996  12.786 -0.2242 -0.2275  0.1262
22842W        W38976   0.526   5.336  12.877  0.2654  0.0290  0.2723
22843W        W38977  14.376  17.748   2.013 -0.1376  0.3322  0.1619
22844W        W38978  16.219   1.873   2.996 -0.0273  0.0148  0.0371
22845W        W38979   1.392   5.253   5.109 -0.2892  0.1493  0.1708
22846W        W38980   2.820   7.520  15.116  0.1085 -0.1184  0.0792
22847W        W38981  14.880  13.906  13.543 -0.3140 -0.1042 -0.1566
22848W        W38982   8.447  17.904   3.784 -0.0006 -0.2405 -0.0168
22849W        W38983   0.162  10.115   5.334 -0.0387  0.1135  0.2291
22850W        W38984   7.954   8.560   2.564 -0.1847 -0.3468 -0.1403
22851W        W38985   7.660   1.752   0.290 -0.0462 -0.0550 -0.0297
22852W        W38986   6.543  15.404   2.601  0.0820  0.2791  0.1898
22853W        W38987  18.167   0.489   3.580 -0.1954  0.0309 -0.1353
22854W        W38988   8.787  14.657   3.093 -0.0695  0.1004  0.1863
22855W        W38989   6.480  17.947   2.789  0.0994  0.0960  0.1080
22856W        W38990  13.286  18.928  15.218  0.0485 -0.5628  0.3153
22857W        W38991  11.118  14.694  11.162 -0.0285  0.0966  0.2125
22858W        W38992  12.261   5.209  13.798 -0.3326 -0.1339  0.0805
22859W        W38993  13.996   6.837   4.850 -0.2394 -0.2370  0.0817
22860W        W38994  17.297  17.698   5.072  0.4156 -0.1302  0.0321
22861W        W38995   2.434  17.340  13.758 -0.2530 -0.0334  0.0783
22862W        W38996  13.541   3.268   1.165 -0.1292 -0.1597 -0.1841
22863W        W38997   5.741  13.393   0.281 -0.1780  0.2200  0.3142
22864W        W38998   4.493  12.411  11.475  0.0466 -0.0066  0.1027
22865W        W38999   6.414  12.902   1.302 -0.3477 -0.2183  0.1875
22866W        W39000  14.630   5.578  10.988 -0.1764  0.1154  0.0995
22867W        W39001  17.709  14.357   4.822  0.0853  0.3679 -0.1119
22868W        W39002  15.143  15.596  13.272  0.0825  0.0727  0.2543
22869W        W39003   4.298  11.723   2.599 -0.2814 -0.1110  0.2214
22870W        W39004   6.368   6.632   2.119 -0.1685 -0.0400  0.0568
22871W        W39005  15.127   0.323  15.233 -0.2887  0.0258 -0.0346
22872W        W39006   1.088   5.512   5.905 -0.2315 -0.0127 -0.1232
22873W        W39007   6.355   0.318   4.651  0.0690  0.0993 -0.0644
22874W        W39008   8.482   7.979  13.507 -0.0558  0.0071  0.2030
22875W        W39009   7.317  12.666  11.540 -0.0816 -0.0421  0.3197
22876W        W39010  13.473  13.947  10.510 -0.1337  0.2958 -0.0671
22877W        W39011  14.795  10.107   3.926 -0.1815 -0.4233  0.0157
22878W        W39012  10.672  11.327  10.409 -0.3265  0.3248 -0.1302
22879W        W39013  11.708  15.635  15.136  0.0462  0.0307  0.4793
22880W        W39014   0.771  17.675   4.848 -0.2988 -0.3679  0.2309
22881W        W39015  11.049  15.195  12.902  0.0142  0.0471 -0.0832
22882W        W39016  11.072   7.437  10.638  0.0197 -0.1787 -0.0811
22883W        W39017   1.478   0.557   2.671  0.1719 -0.0128  0.0497
22884W        W39018   4.041  14.011  12.107  0.5040 -0.1987  0.0839
22885W        W39019   6.541   1.014   2.328  0.0694 -0.0703 -0.0996
22886W        W39020   4.742   4.673   4.533 -0.1880  0.0352 -0.0860
22887W        W39021   6.170   0.787  13.869  0.3569  0.1788 -0.1095
22888W        W39022   2.635  12.521   3.177  0.1907 -0.0672 -0.1714
22889W        W39023   1.742  10.425   2.227  0.0926 -0.0150 -0.3035
22890W        W39024   4.770   1.026  15.112 -0.0613 -0.1862 -0.2455
22891W        W39025  14.478   8.218  11.488  0.0811  0.0121  0.2658
22892W        W39026  10.541   0.882  13.474 -0.1821 -0.0366  0.3944
22893W        W39027   6.414   1.087   4.093  0.2690  0.0224  0.0567
22894W        W39028  15.828  11.929  10.844  0.1046  0.1762 -0.0724
22895W        W39029   4.201  18.423   1.293  0.1009 -0.1724 -0.0692
22896W        W39030  11.213  16.059  12.987 -0.1080 -0.1641  0.1054
22897W        W39031   7.446   6.235   0.625 -0.1206  0.0057  0.0893
22898W        W39032  16.212   4.545   3.895  0.0132  0.0175 -0.1199
22899W        W39033   3.435   7.206   1.028  0.1710 -0.1679  0.0645
22900W        W39034  13.638  10.386  10.060  0.1337  0.0726 -0.1759
22901W        W39035   8.008   4.745   4.354 -0.0153  0.3594  0.1660
22902W        W39036   7.451   9.581  14.807  0.4936 -0.0387 -0.2415
22903W        W39037  15.775  17.218   3.145 -0.2691 -0.1021  0.0563
22904W        W39038   8.593  15.881   3.772  0.0711  0.2380 -0.2316
22905W        W39039  16.953   0.078  12.518  0.0427 -0.0390  0.1236
22906W        W39040   0.246   1.732  14.973 -0.2287 -0.2742 -0.5868
22907W        W39041  10.516   6.529  12.687  0.3354  0.0915  0.0612
22908W        W39042   8.693   0.041  15.128 -0.2515 -0.3308  0.0516
22909W        W39043  14.377   4.814  13.193 -0.2128 -0.1934 -0.3458
22910W        W39044   2.943   8.966  12.513 -0.2630 -0.0286 -0.1146
22911W        W39045   4.606   9.489  12.779 -0.0583  0.0972 -0.3049
22912W        W39046   4.064  17.173  11.783  0.0252  0.0688 -0.1572
22913W        W39047  18.674   6.201   0.582  0.0525 -0.1270  0.0228
22914W        W39048  16.762  10.439   3.680  0.1559 -0.0413 -0.0921
22915W        W39049   6.949   4.284   4.481  0.1056  0.2115 -0.0195
22916W        W39050  14.228   9.066   2.470 -0.0150 -0.0327  0.2182
22917W        W39051  11.622   0.087   0.257 -0.2145  0.1222  0.3082
22918W        W39052   0.926   7.838  14.544 -0.3507 -0.2074 -0.0330
22919W        W39053   9.887   9.831   2.549  0.3038  0.1758  0.0720
22920W        W39054   2.598  18.086  14.654 -0.0028  0.1519 -0.0708
22921W        W39055  13.810  15.981  12.916 -0.1064  0.4246 -0.2140
22922W        W39056  15.903   1.498  12.749 -0.2255  0.0555  0.1944
22923W        W39057   1.410   9.506  13.153  0.2038 -0.2082  0.1755
22924W        W39058  16.849  15.118   0.896 -0.3061 -0.1985  0.0067
22925W        W39059   9.304   3.385  13.402  0.0134 -0.2753  0.1167
22926W        W39060   2.206   9.961   2.464 -0.0191  0.2020  0.2847
22927W        W39061  18.995   0.941   0.656 -0.2597  0.0468 -0.0541
22928W        W39062   5.725  18.525  10.797  0.1178  0.1473  0.4017
22929W        W39063  14.417   6.896  14.548  0.0804  0.0565  0.3066
22930W        W39064  16.962  16.558  12.513  0.0312  0.0044 -0.0271
22931W        W39065   0.944  12.614  13.221 -0.1087 -0.2305  0.0725
22932W        W39066  15.176  13.799  14.481 -0.2108  0.4075 -0.0349
22933W        W39067   4.646  18.626   5.063  0.4315  0.0557 -0.3289
22934W        W39068   2.048  13.559   4.290  0.0998  0.3310  0.2811
22935W        W39069   7.789   3.429   4.025 -0.0119 -0.0177 -0.0902
22936W        W39070   1.047   7.659   4.003  0.0749 -0.0954 -0.0708
22937W        W39071  17.479   4.788   0.132 -0.0324 -0.0970 -0.0106
22938W        W39072   7.822   1.841  14.498 -0.0785 -0.1610  0.0109
22939W        W39073  13.690   9.580   3.221 -0.1270 -0.2405  0.1509
22940W        W39074   6.523  18.845  14.077  0.1806  0.1889 -0.2410
22941W        W39075   1.529   2.196  13.035 -0.2097  0.0048  0.0281
22942W        W39076  12.726   5.179   2.822 -0.1566  0.1270 -0.0091
22943W        W39077   9.643  12.785  13.166  0.1110  0.1352 -0.0461
22944W        W39078   7.931  13.232   1.977 -0.1467 -0.2630 -0.2549
22945W        W39079   3.967  11.401   4.869  0.0862  0.2887 -0.0283
22946W        W39080   2.691   5.461  13.018  0.2580  0.3295 -0.1216
22947W        W39081  15.903   9.177   3.191  0.0016 -0.2422 -0.0048
22948W        W39082  11.833   1.245  13.436  0.0115  0.1541 -0.3044
22949W        W39083   8.795  17.007   5.657 -0.0955  0.1465 -0.3889
22950W        W39084  10.126  11.393   0.602 -0.1174 -0.0755 -0.0111
22951W        W39085   4.669   2.617  11.184  0.0970 -0.1996 -0.0320
22952W        W39086   9.106  18.542   4.586 -0.0571  0.3067 -0.1033
22953W        W39087  15.730   4.128  11.519 -0.2600  0.0557  0.2755
22954W        W39088   0.660  15.788   4.981  0.2146 -0.2848 -0.0382
22955W        W39089   8.322   6.191   5.044  0.1420 -0.1520  0.0682
22956W        W39090  14.493   4.731   2.655 -0.1857 -0.1054  0.0092
22957W        W39091  12.752  10.502   1.016 -0.2372 -0.3363 -0.2093
22958W        W39092   0.425  16.391  13.692  0.0219 -0.0786 -0.2094
22959W        W39093   6.359  12.070   3.663  0.1490 -0.1823  0.0052
22960W        W39094   9.487  16.581  13.170  0.0876 -0.1820 -0.0236
22961W        W39095   7.596  10.109   4.066  0.0584 -0.1828  0.0372
22962W        W39096   2.906   9.630   0.406  0.0685  0.1871  0.0740
22963W        W39097  10.882   9.753  11.070  0.0176 -0.0931 -0.0750
22964W        W39098   4.644   1.180   9.461  0.0854  0.0701  0.3238
22965W        W39099  10.965   2.960  12.221 -0.2528  0.2146  0.4215
22966W        W39100   7.802   7.528   3.086 -0.0104  0.0394 -0.3090
22967W        W39101  18.178  15.547  14.017 -0.0589 -0.0240 -0.0214
22968W        W39102   7.036   1.198  12.691  0.1187  0.0707 -0.1426
22969W        W39103  13.006   2.415  14.278  0.0226  0.0603  0.2831
22970W        W39104  13.587   8.154   4.129  0.0212 -0.2315  0.1316
22971W        W39105  18.641  17.013  14.359  0.1812  0.2161 -0.1073
22972W        W39106   8.689   6.783  13.263  0.2532  0.3774 -0.2077
22973W        W39107   9.042  11.768  13.899  0.1826  0.1163  0.0215
22974W        W39108  15.815  17.201  15.117 -0.1368  0.1335  0.1153
22975W        W39109   7.775   5.099   0.264  0.0336 -0.0823 -0.2644
22976W        W39110  11.872  17.308   5.578  0.1387 -0.0704 -0.3036
22977W        W39111  11.343  13.164  10.998 -0.1765 -0.0468 -0.0674
22978W        W39112   4.282   8.318   3.472 -0.0094 -0.0972  0.1972
22979W        W39113   9.960  15.192   4.737  0.1024 -0.2618 -0.1684
22980W        W39114   2.549   6.228   4.458 -0.3004 -0.0893 -0.1411
22981W        W39115  18.475  15.750  13.719 -0.1196  0.0474 -0.1568
22982W        W39116   3.082  14.690  13.879  0.1084 -0.1101  0.1755
22983W        W39117   4.778   6.868  11.863 -0.3332  0.1825 -0.0598
22984W        W39118   1.237   7.751   5.276 -0.0048  0.2782  0.1628
22985W        W39119   1.090   2.929   3.263  0.0642 -0.3757  0.0985
22986W        W39120   0.132   2.517   0.537 -0.1202 -0.2052  0.1473
22987W        W39121  13.248  18.701   3.916 -0.3282  0.0131 -0.2264
22988W        W39122  15.019  18.057   1.149 -0.1892 -0.1305 -0.1025
22989W        W39123  14.550   7.536   1.035  0.2388  0.1240  0.0361
22990W        W39124  10.295  11.118   4.285 -0.1687  0.2517 -0.1787
22991W        W39125  17.486  16.406   4.082 -0.0044 -0.2290 -0.0696
22992W        W39126   6.101  10.810  13.706  0.0037 -0.1779 -0.3377
22993W        W39127   0.442   4.605   3.602  0.0188  0.0808 -0.0869
22994W        W39128  11.802   0.407  10.413 -0.1699  0.0869  0.2326
22995W        W39129   5.915   8.692   3.784  0.0956 -0.3118 -0.3455
22996W        W39130   9.340  10.280   0.077 -0.0274  0.0840  0.2964
22997W        W39131  12.524  18.640  11.890 -0.2934  0.0735 -0.0510
22998W        W39132   1.981  15.215  11.538  0.1196 -0.2416 -0.1957
22999W        W39133   3.256   9.785   4.251 -0.1861 -0.1620 -0.0383
23000W        W39134   7.724  17.284  10.731  0.1077  0.2660  0.3475
23001W        W39135  16.733  18.209   5.501  0.0740 -0.0859 -0.2599
23002W        W39136   8.200  10.969  12.038 -0.2785  0.0871  0.5075
23003W        W39137   9.264  17.260   4.560 -0.0800  0.0304 -0.0860
23004W        W39138   4.509  18.165   0.997  0.0079  0.0395  0.0075
23005W        W39139  13.269  12.571   0.843 -0.2909  0.0213 -0.1578
23006W        W39140   8.117   5.524   3.158  0.2156  0.2297 -0.3104
23007W        W39141  12.562  16.739  12.700 -0.1198 -0.1436  0.1045
23008W        W39142  15.145  13.324   3.284 -0.2067 -0.1340  0.2496
23009W        W39143   8.433  12.555   3.062  0.1496 -0.0058 -0.0312
23010W        W39144   9.952  17.631   2.526 -0.1060 -0.0536  0.3095
23011W        W39145  10.052  10.330   4.869 -0.3255 -0.0320  0.2192
23012W        W39146   5.777  16.794   3.715  0.0808  0.1401  0.2991
23013W        W39147   0.984   5.308   3.019 -0.1948  0.1987 -0.0842
23014W        W39148   5.629  15.956  14.181 -0.1474 -0.2026  0.0160
23015W        W39149   2.356   5.438   4.877  0.0212 -0.1215 -0.1696
23016W        W39150  13.656  16.889  10.519 -0.0745 -0.1423  0.1000
23017W        W39151   5.816   1.843  11.822 -0.1297 -0.0765  0.2306
23018W        W39152  15.971  11.384  11.467 -0.1545 -0.3043  0.0336
23019W        W39153  12.297  12.612  10.435  0.0124  0.0322  0.0646
23020W        W39154  11.238  10.291   4.710  0.1146 -0.4308  0.1759
23021W        W39155  10.209  13.966  15.145  0.1270  0.1551  0.2692
23022W        W39156  18.700   5.147  13.503 -0.2185  0.0485 -0.1806
23023W        W39157  12.992   1.932  11.800 -0.0570 -0.2669  0.0812
23024W        W39158  18.604   0.006  15.137 -0.1690  0.1628  0.0057
23025W        W39159   5.540  10.541   0.081  0.0031  0.0891 -0.0865
23026W        W39160   3.364  16.822   3.712  0.4097 -0.0769 -0.0769
23027W        W39161  17.944  11.702   4.633 -0.0760 -0.1615 -0.0018
23028W        W39162  11.106  14.352  14.419  0.4049 -0.0555 -0.2977
23029W        W39163   4.493   9.387   1.045  0.1046 -0.3535 -0.3614
23030W        W39164   9.247  12.439  14.637 -0.1961 -0.1431 -0.2052
23031W        W39165   7.425   8.089   2.188  0.2082  0.1100  0.2024
23032W        W39166   4.560   8.536   4.963 -0.2237  0.1400  0.1840
23033W        W39167  13.976   0.245   9.737 -0.2052  0.1089  0.1067
23034W        W39168   2.152  16.236   2.531 -0.0543  0.0285 -0.2784
23035W        W39169  12.106   9.812   1.320  0.0246 -0.2515  0.1028
23036W        W39170   3.924   6.758   0.061  0.2256 -0.1369  0.0656
23037W        W39171   6.036   2.956  10.741  0.2446 -0.0115  0.0068
23038W        W39172  18.813   3.057  14.271  0.3060 -0.0815  0.1205
23039W        W39173   3.803  12.830   0.434 -0.1390  0.1549  0.1007
23040W        W39174  14.543   5.081   0.798  0.1041  0.2009 -0.5371
23041W        W39175  18.372  12.534   0.319 -0.1821  0.1608  0.0800
23042W        W39176  16.531   6.216   0.078  0.0092  0.1844 -0.0750
23043W        W39177  11.149   1.604  10.922 -0.1503 -0.0041  0.2142
23044W        W39178  15.921   6.541   3.109 -0.0268  0.0709 -0.5801
23045W        W39179   7.780  18.877  15.004 -0.1117 -0.1375 -0.2439
23046W        W39180  13.555  10.190   2.249 -0.0792 -0.0427 -0.0161
23047W        W39181   0.584   3.680   1.013  0.2263 -0.0050  0.2163
23048W        W39182   1.364   5.257   4.623  0.2567 -0.1552 -0.1543
23049W        W39183  13.907  14.987  12.945 -0.1124  0.3059  0.1490
23050W        W39184   1.794   8.376   3.287 -0.1046  0.0521 -0.3805
23051W        W39185   6.997  11.180   3.401 -0.1235  0.1025  0.3007
23052W        W39186  17.828  14.599   4.022  0.1040 -0.0480 -0.0044
23053W        W39187  15.062  13.099   4.155 -0.4012 -0.1025  0.0974
23054W        W39188   4.956   0.916   4.444  0.1416  0.0866  0.1554
23055W        W39189   0.536   6.514   4.169  0.1110  0.0240  0.2093
23056W        W39190   6.242   1.376  11.763  0.0160 -0.1101  0.0203
23057W        W39191  10.138  14.828  10.425  0.2251 -0.1354 -0.1707
23058W        W39192   6.023  15.678   0.142 -0.1538 -0.2138  0.3578
23059W        W39193   4.295  16.592  10.695 -0.1709 -0.0048 -0.0730
23060W        W39194  15.531   1.869   0.707 -0.1692  0.2574  0.0815
23061W        W39195  12.675   7.906  14.530  0.3100 -0.1906  0.4332
23062W        W39196  10.256  16.144   4.001 -0.1901 -0.2010  0.0756
23063W        W39197  17.489  14.274   3.820 -0.1889 -0.2832  0.0061
23064W        W39198   2.759   0.959  14.226  0.2327  0.1833 -0.0905
23065W        W39199  10.969  15.336   0.258 -0.3292  0.1139  0.1080
23066W        W39200   6.247  17.465   4.951  0.7435  0.0017  0.0625
23067W        W39201  18.052   4.138  14.221 -0.1156 -0.1420 -0.1935
23068W        W39202   7.572  18.950  11.567 -0.2904  0.4550  0.1306
23069W        W39203  11.905  13.670  12.297  0.0918  0.0757  0.2382
23070W        W39204   9.046   6.679   3.170 -0.0892 -0.3385  0.0248
23071W        W39205  18.476   9.958   3.165  0.1056  0.0654 -0.0193
23072W        W39206   8.820  12.648  13.764 -0.0229  0.5371 -0.0751
23073W        W39207  12.059  14.545   2.759 -0.1269 -0.1988 -0.2885
23074W        W39208   9.242  10.334  12.784 -0.1415 -0.1150 -0.1012
23075W        W39209   1.434  12.792   1.218  0.0511 -0.0750  0.2627
23076W        W39210   5.086   6.411   0.778 -0.0078 -0.0479 -0.1545
23077W        W39211  17.752  17.039  14.229 -0.2201  0.2333 -0.2592
23078W        W39212   0.276   1.553  10.271  0.0622  0.2643  0.1013
23079W        W39213  15.903   7.261  14.684 -0.1250 -0.1015 -0.3477
23080W        W39214   5.210  11.278   2.708  0.2515  0.0188  0.0037
23081W        W39215  13.824   1.989   2.175 -0.0878 -0.1678 -0.1668
23082W        W39216   9.612  15.253  14.145 -0.2459  0.2192  0.0914
23083W        W39217   8.763   7.712  14.757 -0.0018  0.1089  0.1220
23084W        W39218   1.375   5.868   2.384  0.0515  0.1466 -0.0723
23085W        W39219   7.250  17.954   3.472  0.2636  0.1443 -0.1071
23086W        W39220   6.007   5.436  10.940 -0.0572 -0.0124 -0.1237
23087W        W39221  10.708  13.182   0.318 -0.3381  0.1939 -0.2000
23088W        W39222   0.611   3.049   5.545  0.0116  0.0824 -0.1990
23089W        W39223   4.657  16.807   0.658  0.3013 -0.0954  0.3213
23090W        W39224   0.585  18.823   5.261 -0.0140  0.1680 -0.2726
23091W        W39225   3.774   3.379   2.505 -0.2314 -0.1669 -0.0779
23092W        W39226  18.724  11.180   0.065  0.3629 -0.1764 -0.2217
23093W        W39227  15.830  11.901   2.882  0.4067  0.0115  0.2094
23094W        W39228  11.050   8.552  10.723  0.2503  0.2308 -0.0726
23095W        W39229   6.151   9.365   0.286  0.4113 -0.1187  0.1462
23096W        W39230   1.022  13.714  12.311  0.0739  0.2487  0.2522
23097W        W39231   0.373   9.822   0.321 -0.1867  0.1234  0.3077
23098W        W39232  12.096  16.618   3.066 -0.1839  0.1905  0.2306
23099W        W39233  17.960  13.319  11.593 -0.1505  0.2642 -0.3999
23100W        W39234   4.361  10.094  14.010  0.4383 -0.0187  0.0851
23101W        W39235  12.603  11.766   0.590 -0.1963 -0.0543 -0.0355
23102W        W39236  14.189  15.971   3.678  0.2254  0.1401  0.1100
23103W        W39237  15.758  11.977  15.045  0.2381 -0.0988 -0.0413
23104W        W39238  14.643   4.779   4.650 -0.2543  0.3329 -0.1210
23105W        W39239   7.852   6.747   2.151  0.2228  0.1847  0.0768
23106W        W39240  13.181   8.995   3.778  0.1278 -0.1957  0.0696
23107W        W39241   1.231   6.196  12.559  0.2917 -0.1293  0.2487
23108W        W39242   4.895   1.016  12.146  0.0969  0.1989  0.4693
23109W        W39243  13.707   9.141  15.039 -0.0467  0.3789 -0.2700
23110W        W39244  15.925  10.806   1.418 -0.2339  0.0576  0.1013
23111W        W39245  11.368  17.778   0.680  0.1131  0.0845 -0.3008
23112W        W39246   6.812  12.569  11.987  0.2250  0.1702 -0.1172
23113W        W39247   6.697   1.230   4.792 -0.2435 -0.0293 -0.1311
23114W        W39248  18.027   0.145  12.377 -0.0813  0.1230 -0.2494
23115W        W39249   7.245   2.924   5.000  0.4320  0.0464 -0.1969
23116W        W39250   9.265   8.908  11.263  0.0817  0.0857 -0.0196
23117W        W39251   9.390   4.806  13.073  0.1539 -0.0784 -0.1028
23118W        W39252  15.368   1.594  11.683 -0.1723 -0.3386  0.1376
23119W        W39253   4.312   5.219  15.093  0.0798  0.0580  0.1564
23120W        W39254   8.349  11.518   1.285 -0.4185  0.2649 -0.0113
23121W        W39255  17.763   3.157   2.607  0.2356  0.2524  0.5169
23122W        W39256   5.505   2.851   1.237  0.0600  0.0845  0.0177
23123W        W39257  11.853   6.893   3.313 -0.0776  0.1465  0.1499
23124W        W39258   3.039   0.644  11.664 -0.2053 -0.3100 -0.4124
23125W        W39259   5.479   0.663   0.522  0.0629 -0.1433 -0.1047
23126W        W39260   3.407   9.118   0.956  0.0379  0.1765 -0.1127
23127W        W39261  17.567   3.653   0.899  0.2012 -0.0954  0.0319
23128W        W39262  14.181   1.427  11.073  0.1619  0.0568 -0.2488
23129W        W39263  18.460  12.867  12.925 -0.0231  0.1102 -0.4128
23130W        W39264   8.289   2.760  13.439 -0.2543  0.0432  0.1433
23131W        W39265  16.828  11.946  10.410 -0.0945  0.1073  0.1278
23132W        W39266   7.685  12.875  12.833 -0.1268 -0.0199  0.2282
23133W        W39267   3.768  13.469   2.059  0.0899 -0.0447  0.0394
23134W        W39268  15.087   1.994  15.106 -0.1533  0.0775  0.0278
23135W        W39269   3.981   1.235   3.841  0.0511 -0.0073 -0.0593
23136W        W39270  13.230   1.731   2.171  0.0373  0.0636  0.1378
23137W        W39271  14.706   7.451   5.205  0.0763 -0.0213  0.1112
23138W        W39272  16.146  11.449   3.890  0.1809 -0.1423  0.0423
23139W        W39273  11.082   7.707  11.100  0.3720  0.0907 -0.0377
23140W        W39274  12.513  15.411   5.568  0.1008  0.2395  0.0558
23141W        W39275  15.341   1.563  12.788  0.1091 -0.0486 -0.2164
23142W        W39276   6.413   8.728  12.299 -0.3769 -0.0954 -0.1032
23143W        W39277  10.124  10.596  12.910  0.0233  0.2207  0.0501
23144W        W39278  14.676  12.896   1.596 -0.0284  0.2050 -0.2360
23145W        W39279   1.297   0.369   1.789 -0.0416  0.0056 -0.0530
23146W        W39280   6.326  13.700  11.537  0.0944  0.2113  0.0737
23147W        W39281  16.779  13.330   4.779  0.2385  0.2019  0.2708
23148W        W39282  10.986  10.683   4.204 -0.0415 -0.1204 -0.3409
23149W        W39283  10.567   9.770   0.016  0.2309 -0.0518 -0.2158
23150W        W39284  18.213   4.859  13.569  0.0338  0.2495  0.2671
23151W        W39285   9.634  13.649  12.158 -0.2758 -0.0885  0.0195
23152W        W39286  13.840   1.744  14.887 -0.3022 -0.2342  0.1100
23153W        W39287   8.738   3.245  12.219  0.1804  0.2400  0.2464
23154W        W39288   6.406  15.800  14.556  0.4964 -0.3324 -0.0098
23155W        W39289   9.892  13.537  11.386 -0.1970 -0.1372  0.3251
23156W        W39290   2.963  11.422  13.724  0.0101  0.0694  0.0172
23157W        W39291   8.767  10.352  10.498 -0.0834  0.0104 -0.0747
23158W        W39292   2.009  11.707   1.184  0.2437 -0.0379 -0.3368
23159W        W39293   6.512   3.496  12.541  0.1874 -0.0782  0.1618
23160W        W39294  15.453   6.388   2.375  0.0514  0.0230  0.2950
23161W        W39295  13.655   5.867   4.685 -0.0217  0.0406 -0.0559
23162W        W39296  14.892   5.314  12.718 -0.3311  0.1458  0.1233
23163W        W39297  18.720   4.045   3.055  0.0793  0.0316  0.1662
23164W        W39298   5.569   1.783  13.133  0.6058  0.1536  0.0577
23165W        W39299  18.003  12.235  10.955 -0.2843  0.0103 -0.0850
23166W        W39300   1.173   2.209  14.314  0.1168 -0.3554  0.1858
23167W        W39301  14.741   6.088   4.413 -0.0563  0.0990  0.2746
23168W        W39302   8.144  15.428   0.789  0.1368  0.2269  0.3646
23169W        W39303  17.844   1.086   0.970  0.2163  0.3615  0.0133
23170W        W39304   7.643  14.980  15.232 -0.1210  0.1954  0.1581
23171W        W39305  18.255  15.692  15.045 -0.0078 -0.0494 -0.0548
23172W        W39306  17.536  15.331   1.587  0.3135 -0.0999 -0.1112
23173W        W39307  14.174  10.547   0.570  0.2348 -0.1712  0.1730
23174W        W39308   2.896  18.516  14.702  0.0448 -0.4422  0.1488
23175W        W39309  17.348   0.341  11.420 -0.1917 -0.1090  0.0179
23176W        W39310  11.419  15.402   3.831 -0.2705 -0.2995 -0.0787
23177W        W39311   5.542   9.221   5.060 -0.2073 -0.0928 -0.1206
23178W        W39312  17.750   5.134   2.688 -0.1791  0.0835  0.0650
23179W        W39313  18.457   2.694  14.208 -0.1457  0.2090 -0.2651
23180W        W39314  18.641   8.141  10.180  0.2597  0.2915  0.1484
23181W        W39315  13.186  16.437   4.444 -0.0018  0.2111  0.0072
23182W        W39316  13.230  17.305  13.064  0.2363  0.3660 -0.0008
23183W        W39317  17.515   7.117   3.816 -0.0237 -0.1103 -0.0055
23184W        W39318   9.233  18.183  11.272 -0.2988  0.0072 -0.1128
23185W        W39319   6.173   2.451  10.982 -0.1318  0.0115  0.3808
23186W        W39320  16.770  16.363   0.527 -0.1069  0.0635 -0.2130
23187W        W39321   9.916   3.520   0.617  0.3317 -0.0805 -0.0888
23188W        W39322   1.794  11.128   3.827  0.0502 -0.0129 -0.2710
23189W        W39323   8.505  18.229  13.892  0.1443  0.0312  0.1733
23190W        W39324   2.972  18.954   3.362  0.0861  0.3458  0.0398
23191W        W39325   5.471   3.572   2.379  0.3266  0.1086  0.1119
23192W        W39326  17.834  15.650   2.739  0.2382  0.3508 -0.2096
23193W        W39327   6.307   0.166  13.006 -0.0251  0.0841 -0.0791
23194W        W39328  16.510  15.905  14.032 -0.1910  0.0232  0.1959
23195W        W39329   3.946   5.314  14.729 -0.2184 -0.0321 -0.0137
23196W        W39330   2.969  11.322  11.501 -0.1552 -0.1068 -0.1588
23197W        W39331  18.450  16.572  10.192 -0.1349 -0.0989  0.0280
23198W        W39332  15.985   6.549  13.996  0.1458 -0.0591  0.1771
23199W        W39333   0.242   1.335  14.662 -0.1006  0.0691  0.0641
23200W        W39334   3.386  14.151   9.786 -0.0160 -0.1660  0.1809
23201W        W39335  14.589  15.040  11.328 -0.2460 -0.2845  0.2379
23202W        W39336  16.162   6.644  11.736 -0.0779 -0.1706 -0.0008
23203W        W39337  17.242   5.328  11.480 -0.1042 -0.0566  0.1969
23204W        W39338  10.961  13.961  12.512 -0.1150  0.1333 -0.4740
23205W        W39339   0.192  11.585   4.350  0.1575 -0.0732 -0.0442
23206W        W39340   4.262   8.217   2.381 -0.0259 -0.1217  0.0604
23207W        W39341  18.003  12.804  12.579 -0.0531  0.2577  0.1611
23208W        W39342  17.293  13.976   5.241 -0.0857 -0.2882  0.1277
23209W        W39343   5.522   5.131  11.380 -0.0134  0.0177 -0.2025
23210W        W39344   7.000  17.721  11.768  0.0567 -0.0735  0.0851
23211W        W39345  15.685  13.374   4.239 -0.0793 -0.1867 -0.4050
23212W        W39346   5.803  15.226  13.725  0.0896  0.1838  0.4104
23213W        W39347   8.898  18.103   4.855 -0.0205  0.1157 -0.0913
23214W        W39348   5.673  13.112   2.005 -0.0336 -0.3776 -0.2564
23215W        W39349   6.040  10.051   4.417 -0.1115  0.0664 -0.4032
23216W        W39350   9.342  17.252  13.659 -0.0841  0.3205 -0.3008
23217W        W39351   6.241  16.542   4.948 -0.1627 -0.1207 -0.2763
23218W        W39352  10.416  13.227  13.339  0.0542 -0.1108  0.0014
23219W        W39353  12.839   1.735  14.863 -0.1732 -0.0807  0.0905
23220W        W39354   8.776   9.184   0.469 -0.0060 -0.3374 -0.3964
23221W        W39355   2.021   1.857   4.221 -0.0307 -0.1573  0.1137
23222W        W39356  15.705   5.292   2.558  0.0228  0.2701 -0.0708
23223W        W39357   9.495   9.947  13.956 -0.2718 -0.1652 -0.3360
23224W        W39358  18.672   8.244  12.517  0.2513  0.0505  0.0059
23225W        W39359   5.784  10.087   2.532  0.2702 -0.0095 -0.1254
23226W        W39360   2.671   8.711   3.280 -0.0110 -0.0861  0.1546
23227W        W39361  14.289   5.472   4.665  0.3617 -0.1113 -0.0088
23228W        W39362  17.348   4.712   4.172 -0.0480  0.0927 -0.2805
23229W        W39363   4.999   9.887   2.071  0.0843 -0.0174  0.3271
23230W        W39364  10.073   1.865   4.695 -0.1646 -0.1273 -0.0656
23231W        W39365  11.541  18.812  14.453 -0.1625 -0.4381 -0.0683
23232W        W39366  16.838   1.988   1.384 -0.2545  0.2845  0.0862
23233W        W39367  11.553  10.188  13.145 -0.2826 -0.2251 -0.4735
23234W        W39368   8.014  13.832  13.035  0.0188  0.0480 -0.1882
23235W        W39369  16.880  14.285   5.440  0.2972 -0.0120 -0.0578
23236W        W39370   2.865   1.403   2.333  0.1575 -0.0964  0.3804
23237W        W39371  15.633  16.211   9.444  0.0780 -0.0560 -0.0381
23238W        W39372  13.732  15.040   5.301  0.2042 -0.2735 -0.2416
23239W        W39373   0.585  15.966  12.912  0.1956 -0.0966 -0.3813
23240W        W39374  11.628  12.211  12.443 -0.0260  0.4997  0.0974
23241W        W39375  13.666  18.556  11.229 -0.1304  0.4681 -0.1431
23242W        W39376  12.279   0.084  12.766 -0.0494 -0.1254  0.5018
23243W        W39377  18.132  10.733  13.788  0.1518 -0.1317 -0.2467
23244W        W39378  16.688   7.130   3.980  0.1108  0.1860  0.1142
23245W        W39379   8.654  10.255  13.743 -0.1556  0.0002 -0.0547
23246W        W39380   1.731   1.375   1.456  0.1471 -0.0783 -0.0649
23247W        W39381   8.571   3.821   0.372 -0.0729  0.2236  0.0296
23248W        W39382  10.749  10.572   5.417 -0.0577 -0.0089  0.2429
23249W        W39383   4.462   8.758  12.393 -0.1530 -0.0522 -0.0535
23250W        W39384  15.525   0.914   0.705 -0.2164  0.3257  0.0950
23251W        W39385  10.003   3.010   0.448 -0.2729  0.1059  0.0161
23252W        W39386   8.100   7.880   4.354 -0.2588 -0.1011  0.1978
23253W        W39387   4.044  16.295   4.072  0.3494 -0.1741 -0.3396
23254W        W39388   3.639   8.454  13.878  0.4828 -0.1505 -0.1833
23255W        W39389   1.352  14.711   3.030  0.0192  0.1997 -0.1011
23256W        W39390   9.920   9.222   4.415  0.2366  0.0323  0.1862
23257W        W39391   0.311   3.668  14.142  0.1336 -0.2582  0.1832
23258W        W39392  11.017  15.177  14.780  0.0322 -0.0419  0.2098
23259W        W39393   9.104  15.176  14.313 -0.1416 -0.1667 -0.1417
23260W        W39394   9.559  12.470   5.049 -0.0383  0.3662 -0.0359
23261W        W39395   5.086  16.214  11.099  0.2965  0.1546  0.1113
23262W        W39396   3.218  14.769   2.736 -0.0890 -0.0192 -0.2070
23263W        W39397   7.967   9.727   1.767 -0.3050 -0.3425  0.2123
23264W        W39398  16.775  17.487  12.189  0.0973 -0.1376 -0.0122
23265W        W39399   2.189  15.723  10.625  0.1341 -0.0848 -0.0909
23266W        W39400   7.460  16.764  12.071 -0.0117 -0.2710  0.1317
23267W        W39401  18.804  17.675   1.427  0.0577  0.0762 -0.1468
23268W        W39402   4.332   9.541   4.915  0.0699 -0.2896  0.1756
23269W        W39403  18.017  13.232   4.364 -0.1850  0.2312  0.0462
23270W        W39404  10.113   3.072   4.263 -0.0026 -0.1000 -0.1182
23271W        W39405   0.089   4.630   2.842  0.1432  0.0585 -0.2147
23272W        W39406   9.313   6.754  14.305 -0.0160 -0.0946  0.2396
23273W        W39407   1.665   7.506  12.315  0.3173  0.2442 -0.3713
23274W        W39408   8.740   0.165   2.477  0.1045  0.0122 -0.0068
23275W        W39409  13.255   2.367   4.654 -0.2502 -0.3241  0.1546
23276W        W39410   3.798   9.143   3.028  0.0998 -0.1454  0.3625
23277W        W39411   9.926   2.991  12.001 -0.1504 -0.0774  0.0155
23278W        W39412   3.720   6.991   4.130  0.2155  0.2817  0.1818
23279W        W39413  15.396   0.382   0.742  0.1350 -0.0855 -0.1436
23280W        W39414   8.033   0.686   3.602  0.1272  0.2071  0.1592
23281W        W39415   1.723  17.794   4.475  0.0859 -0.0514  0.2604
23282W        W39416  12.076  15.366   4.725 -0.0723 -0.2134 -0.0798
23283W        W39417   4.057   2.696  11.143  0.0886  0.1556 -0.2151
23284W        W39418   3.207   0.260   9.945  0.0771  0.3230  0.1155
23285W        W39419  16.557  12.787   3.668 -0.2843 -0.0320  0.0934
23286W        W39420   4.796  12.288  12.233 -0.3069 -0.2090  0.0326
23287W        W39421   0.319   0.598   0.857  0.0845 -0.2043  0.1249
23288W        W39422  16.560   7.710   2.441  0.0552 -0.0301 -0.1010
23289W        W39423  11.833   1.021   1.297 -0.2766  0.2936  0.0795
23290W        W39424  17.042  17.995   0.045 -0.0481  0.2107 -0.3134
23291W        W39425  17.855  10.365  14.369 -0.3358 -0.2575 -0.0855
23292W        W39426  18.099  14.144   3.807 -0.0396  0.0673 -0.1295
23293W        W39427   8.799  13.274   2.393 -0.2697 -0.1162 -0.2830
23294W        W39428  10.040   8.698   2.066  0.0487 -0.1520 -0.1200
23295W        W39429   6.849  17.894  11.265 -0.3204 -0.0190  0.1792
23296W        W39430  15.189  11.548  13.592 -0.0400  0.0505 -0.1199
23297W        W39431  12.160   6.484   0.526 -0.1479  0.2311  0.1262
23298W        W39432   1.724   7.797   4.317  0.0412  0.0038 -0.2111
23299W        W39433   3.394   2.787  12.626 -0.2871 -0.2198  0.1978
23300W        W39434  18.028   4.591   5.385 -0.1128  0.2550 -0.2083
23301W        W39435  14.041  13.481   4.481  0.2755 -0.2143 -0.2043
23302W        W39436   6.226  18.122   4.106  0.0407 -0.0872 -0.1159
23303W        W39437   3.442   8.159   1.260 -0.2595  0.0500  0.2326
23304W        W39438  17.195   5.184  12.468  0.0718 -0.1285  0.0478
23305W        W39439  13.958   1.247   2.709 -0.1630 -0.0785 -0.1593
23306W        W39440  10.545   8.475   4.219  0.3120 -0.0716 -0.3851
23307W        W39441  16.439  14.391  13.389 -0.0348 -0.1229 -0.1790
23308W        W39442  16.238   7.364  11.683  0.1289  0.1916 -0.3085
23309W        W39443   3.068   6.162   0.749  0.1982 -0.3746  0.0490
23310W        W39444  14.694   9.078  14.943  0.2499  0.0006  0.1794
23311W        W39445   2.608   7.545  12.020  0.1413  0.0209 -0.3097
23312W        W39446  16.932   6.732   2.032  0.5742 -0.1631  0.1125
23313W        W39447  15.552   6.978  15.111  0.0303 -0.0726 -0.3538
23314W        W39448  10.558  10.646   9.778 -0.2014 -0.0183  0.2782
23315W        W39449   4.470  12.149   9.784 -0.5036 -0.3734 -0.1771
23316W        W39450   0.891  15.559  13.044  0.2799  0.0087  0.1409
23317W        W39451   7.089   8.370  11.849  0.0492 -0.0697  0.1554
23318W        W39452   5.807  17.505  11.429 -0.2145 -0.2887  0.0579
23319W        W39453   5.152  17.872  10.822 -0.1329  0.2566 -0.1324
23320W        W39454   6.360  16.603   0.708  0.2882  0.2760 -0.1571
23321W        W39455  10.877   1.792   4.883  0.4104  0.1454 -0.1928
23322W        W39456   4.564  15.485   1.669 -0.1661  0.0382  0.1000
23323W        W39457  17.268  15.884  13.510  0.3045 -0.4086  0.0824
23324W        W39458   7.876  17.612  14.600 -0.1150 -0.0776 -0.0808
23325W        W39459  14.814  17.853  11.155 -0.0595 -0.0843  0.1302
23326W        W39460  12.908  15.535   0.483 -0.2044 -0.1634 -0.0264
23327W        W39461   6.788  18.695  12.065  0.0718  0.1853  0.1863
23328W        W39462  15.236  15.822   2.299  0.3729 -0.1986  0.0571
23329W        W39463   4.548  10.615  11.229  0.2828  0.0570 -0.2023
23330W        W39464   0.640   5.794   3.594 -0.4130  0.1087  0.1453
23331W        W39465  17.028  16.874  11.980 -0.0936 -0.3799  0.2655
23332W        W39466  15.535  11.146   4.591  0.0097  0.0805 -0.1762
23333W        W39467   0.194   3.006  13.087 -0.1955 -0.0441  0.1869
23334W        W39468  14.848   7.376   2.208  0.0168  0.2094  0.2097
23335W        W39469  17.293   3.494  15.199  0.2407 -0.0392  0.0735
23336W        W39470   2.759  17.474  12.149 -0.2381  0.0836  0.0558
23337W        W39471   8.423  11.939   1.720  0.1568  0.1927  0.0685
23338W        W39472  16.577   8.034  10.455  0.1618 -0.2247 -0.1316
23339W        W39473  14.495  17.168  12.721 -0.1813 -0.0872  0.3454
23340W        W39474   8.143   6.992   0.392 -0.1250 -0.2415 -0.0631
23341W        W39475   3.849   3.029  12.475 -0.1764  0.2044  0.1870
23342W        W39476  16.960  13.419  11.888 -0.1689 -0.0593  0.0196
23343W        W39477   4.691   6.804   2.575 -0.1906  0.0717 -0.2577
23344W        W39478  15.467  10.605   4.525  0.4493  0.3774  0.0561
23345W        W39479  10.704   6.833   4.946 -0.2327 -0.2320 -0.1298
23346W        W39480   2.476  10.331  11.910 -0.1776  0.0551  0.2941
23347W        W39481  11.888  15.526  13.804  0.0987 -0.0158  0.0830
23348W        W39482  12.496  17.906  12.180  0.0696 -0.0048  0.1037
23349W        W39483  12.960  18.874  12.144  0.0941 -0.0772 -0.0402
23350W        W39484   8.783  14.471   1.330 -0.0000 -0.0721  0.2249
23351W        W39485   0.055   1.372   0.997  0.2025  0.1953  0.2855
23352W        W39486  12.284   4.968   2.601  0.0479 -0.0974  0.1739
23353W        W39487   8.063  16.442  11.333  0.0920  0.0890  0.1045
23354W        W39488  10.073  13.000   3.347 -0.1295  0.0492  0.1777
23355W        W39489  11.576  11.925   2.643 -0.1103  0.1327  0.1482
23356W        W39490   9.488  16.863   3.455  0.2660  0.1515 -0.0617
23357W        W39491  11.511  18.620   1.095 -0.1625  0.7538 -0.0793
23358W        W39492   7.244  16.918  12.867  0.3364 -0.2010  0.0846
23359W        W39493  12.925  16.911  14.436 -0.0581 -0.1448  0.0403
23360W        W39494  11.011   3.806   3.308 -0.1845 -0.0054  0.1639
23361W        W39495   5.796  13.426  13.363  0.2106  0.0642  0.0082
23362W        W39496  15.904   8.156  14.339 -0.1247 -0.0710  0.2792
23363W        W39497   0.787  10.543   2.285 -0.1638  0.1359 -0.2523
23364W        W39498   6.350  12.531   3.511  0.0321 -0.2798 -0.0808
23365W        W39499  18.008   8.188  10.857 -0.0308 -0.1370  0.1609
23366W        W39500  12.061   7.133   4.569  0.2786 -0.1330  0.1290
23367W        W39501  15.535   4.825   0.657  0.0134 -0.2122 -0.0132
23368W        W39502   2.810   6.615  11.631 -0.1105 -0.2543 -0.2359
23369W        W39503   8.946  11.654  10.046 -0.0980  0.3495 -0.0048
23370W        W39504  13.399   7.589   3.428 -0.4176  0.2039  0.1149
23371W        W39505   4.718   8.413  14.313 -0.3250  0.1630 -0.0687
23372W        W39506   6.939   0.117  13.681  0.0553 -0.1522 -0.1099
23373W        W39507   8.525  18.810   3.615 -0.2051 -0.2718  0.2326
23374W        W39508  14.802   3.247   5.144  0.0299 -0.0413  0.2980
23375W        W39509  15.405   7.633  12.662 -0.0636  0.3440 -0.3391
23376W        W39510   5.646  15.506   0.485 -0.0486  0.0861  0.0587
23377W        W39511   5.189  13.869  14.108 -0.1294 -0.1771  0.1520
23378W        W39512  11.308   6.865   3.445 -0.0787  0.2705 -0.1371
23379W        W39513  14.315   0.811  15.142 -0.5972  0.1750  0.3746
23380W        W39514   0.685  17.533  10.279 -0.1214 -0.2523  0.2942
23381W        W39515   6.771   8.206  10.903 -0.3010  0.0005  0.1733
23382W        W39516  11.954   2.884  13.452 -0.2102  0.2283  0.2181
23383W        W39517   6.107  15.475   2.420  0.2330  0.2861 -0.1066
23384W        W39518  17.201   7.863  14.810  0.0906  0.0345 -0.2567
23385W        W39519   3.237  17.241  12.400  0.1415  0.3451  0.1442
23386W        W39520   8.257  13.003   2.722  0.5313  0.3711  0.1731
23387W        W39521   8.580  12.014  12.862 -0.0403 -0.0139  0.0804
23388W        W39522   7.779  12.895   2.503  0.1930 -0.1119 -0.0530
23389W        W39523   8.766   4.729   4.115 -0.1274  0.3638 -0.1691
23390W        W39524   5.396   8.983   1.984 -0.1129 -0.1310  0.0369
23391W        W39525   7.629   3.136   4.440  0.1882  0.0890  0.0290
23392W        W39526  14.151   9.222   3.657  0.2780 -0.2969 -0.0069
23393W        W39527  11.385   6.434  11.629  0.3544  0.4005 -0.5186
23394W        W39528  16.660   0.261  12.128 -0.1465 -0.0402  0.2400
23395W        W39529   9.722  17.202  14.492 -0.1051  0.1111  0.3248
23396W        W39530   3.550  12.703   2.307  0.2142  0.1776  0.1847
23397W        W39531   3.474   7.014  10.299  0.0206  0.0025  0.0702
23398W        W39532   4.596   9.797   5.236  0.2123  0.0083 -0.1209
23399W        W39533   8.393  18.270   0.754 -0.2982  0.1000  0.1662
23400W        W39534  12.122  14.718   4.149 -0.0553 -0.0190 -0.0645
23401W        W39535   3.160  13.805   0.984  0.2157 -0.1929  0.2244
23402W        W39536   7.626   1.447  10.717  0.0065  0.1572  0.0165
23403W        W39537  18.186   5.916  15.103  0.2914 -0.0949 -0.0050
23404W        W39538  15.955   9.240   1.969  0.1176 -0.2168  0.0476
23405W        W39539   2.080   0.004   4.063 -0.1891 -0.0376  0.0768
23406W        W39540   3.448   2.866  11.468  0.0456  0.2225 -0.2573
23407W        W39541   3.495  13.665  14.596 -0.0360  0.1364  0.2226
23408W        W39542  10.478   6.617  10.993  0.1773  0.0172 -0.2064
23409W        W39543   5.589  11.105  10.799  0.0728 -0.0004  0.0250
23410W        W39544  17.946   1.886  13.745  0.4239 -0.2233  0.0011
23411W        W39545   5.873  10.315   5.159 -0.1478 -0.0340 -0.3396
23412W        W39546  14.865   6.310  11.593 -0.0309  0.3243  0.0012
23413W        W39547  11.685  18.362   4.411 -0.0350 -0.1799 -0.1208
23414W        W39548  14.254  15.652  10.772  0.1969  0.0511 -0.3162
23415W        W39549   4.498   5.170  13.353  0.1361 -0.1498  0.1578
23416W        W39550   2.669   4.180   3.361  0.0616 -0.0305 -0.0848
23417W        W39551  17.885   5.349   3.138  0.0991  0.0798  0.2515
23418W        W39552   5.615  15.905   3.955  0.3606 -0.0630 -0.3182
23419W        W39553   0.098  18.431  11.369  0.1484 -0.2620  0.2495
23420W        W39554   3.099   1.087   2.033 -0.0141 -0.4698  0.0852
23421W        W39555   8.312  14.259  13.063 -0.0518 -0.0871  0.1424
23422W        W39556   0.927  13.613   3.226 -0.1269  0.1834  0.0605
23423W        W39557  14.822   6.850  13.630  0.1530  0.1617 -0.0924
23424W        W39558   9.956  17.462  12.862 -0.1451 -0.2661 -0.3622
23425W        W39559  10.317  16.934   3.928 -0.0171 -0.0190 -0.0460
23426W        W39560   1.365  12.689   1.738 -0.0705  0.1898  0.1090
23427W        W39561   9.529   8.620  13.800  0.2461 -0.0743  0.1346
23428W        W39562  17.357   7.405  13.161  0.1043  0.1075 -0.0126
23429W        W39563   1.976   2.935   2.706 -0.2727  0.0131  0.0212
23430W        W39564   5.714   3.411  10.444 -0.1781  0.1147  0.0392
23431W        W39565  12.498   9.170  11.825  0.0048 -0.1534  0.2951
23432W        W39566  16.954  15.616   5.572  0.0198  0.0758 -0.2580
23433W        W39567   9.807  11.801   4.424  0.0242  0.1470  0.3430
23434W        W39568   9.231   6.792   1.563 -0.2708 -0.0187 -0.1126
23435W        W39569   3.075  13.317   5.553 -0.4907 -0.2222 -0.0407
23436W        W39570   8.766   0.765  11.671 -0.2458 -0.2410  0.2221
23437W        W39571   4.503  15.893   3.150 -0.0430  0.1849  0.2392
23438W        W39572   1.382   1.316   5.205 -0.1541 -0.0337 -0.1349
23439W        W39573  15.872   8.430  13.873 -0.1894 -0.0819  0.0081
23440W        W39574  16.680   3.569   0.423 -0.0698  0.0814 -0.4064
23441W        W39575   1.257  12.456  12.677 -0.1548 -0.1121 -0.1271
23442W        W39576  14.409   0.730  12.416 -0.1605 -0.6085  0.2872
23443W        W39577  16.361  12.074  15.287 -0.1723 -0.0509 -0.0784
23444W        W39578  14.814   4.144   5.122 -0.0551 -0.1419  0.1343
23445W        W39579  11.183  11.903   5.242 -0.0281  0.4385 -0.1663
23446W        W39580   8.244   1.993  12.765 -0.0940  0.0720  0.2397
23447W        W39581   5.483  11.101   4.724  0.0846 -0.2211  0.4883
23448W        W39582  17.462   9.864  11.246  0.0248 -0.2481  0.1384
23449W        W39583  17.901  11.100   4.602 -0.1453 -0.0648 -0.0764
23450W        W39584   2.766  11.998   3.043 -0.3428  0.0821 -0.2958
23451W        W39585   1.181   4.106  13.605  0.1017 -0.3456 -0.1176
23452W        W39586   6.480   8.647   2.031  0.0378 -0.1184 -0.1062
23453W        W39587  14.377  11.259   2.858  0.0538  0.1527  0.1451
23454W        W39588   8.611  11.051   4.995  0.0893 -0.2274  0.1273
23455W        W39589   6.182  12.525  15.168 -0.2994 -0.0072  0.2247
23456W        W39590  13.536  18.293  14.314 -0.0245 -0.0822 -0.0360
23457W        W39591   8.870  17.858   3.500 -0.4365 -0.3610  0.0378
23458W        W39592   3.209   6.024  11.096 -0.0270  0.5407  0.2082
23459W        W39593   4.449  11.395   1.361  0.2488 -0.0084  0.0525
23460W        W39594   0.926  17.222  14.924  0.0773 -0.0397 -0.3774
23461W        W39595  17.542   5.211   4.722 -0.2035  0.2263 -0.0789
23462W        W39596   7.146  12.964  11.871  0.0644 -0.2987 -0.0549
23463W        W39597   2.146  16.557   5.263  0.0113 -0.1517 -0.0301
23464W        W39598   7.315   7.047   4.703 -0.1628 -0.1056  0.0249
23465W        W39599  16.118   2.821   4.293  0.3368  0.0922 -0.0613
23466W        W39600   7.317  11.226  12.841  0.0489 -0.2142 -0.1376
23467W        W39601   8.433  12.995   0.957 -0.1460 -0.0679 -0.0914
23468W        W39602  16.849  15.972   1.008 -0.0091 -0.0472  0.1047
23469W        W39603  15.367  17.805   1.422 -0.0977 -0.2771  0.1073
23470W        W39604   0.039   4.415   4.795 -0.0098  0.0696 -0.1660
23471W        W39605   7.303   7.796   1.253 -0.0385 -0.2060  0.4578
23472W        W39606   6.866  10.388  14.959  0.1823  0.0361 -0.1834
23473W        W39607   8.676  16.594   2.927  0.2189 -0.1097 -0.1408
23474W        W39608   0.371   0.268   1.203 -0.1851 -0.0838 -0.2652
23475W        W39609  10.271  14.340   5.419 -0.1672  0.3502  0.0713
23476W        W39610  11.640   5.789  10.779  0.3068 -0.1316  0.2677
23477W        W39611  11.999  16.248  14.633  0.0226  0.2132 -0.0922
23478W        W39612   3.987   5.647   9.840 -0.2087  0.4374 -0.1359
23479W        W39613   2.429   1.795   2.858 -0.1334  0.2179  0.0856
23480W        W39614  15.471   9.354  13.717 -0.3259 -0.2225 -0.1573
23481W        W39615   1.459  10.822  14.083  0.1979  0.3840  0.2153
23482W        W39616  18.102  14.312   0.809 -0.2698  0.1895  0.1570
23483W        W39617   6.914  14.414  11.470 -0.1289 -0.1560  0.4350
23484W        W39618   7.933  17.870   2.667  0.1138 -0.0589 -0.0066
23485W        W39619  12.028  12.006   3.395  0.0026 -0.2684 -0.2792
23486W        W39620   6.384   4.646   0.522 -0.0406 -0.0753  0.1850
23487W        W39621  18.492   1.796   0.843 -0.1723  0.0093  0.2331
23488W        W39622  17.334   0.299  14.091  0.1226 -0.1938  0.2109
23489W        W39623  12.097   6.607   4.759 -0.0445  0.1606 -0.1025
23490W        W39624  17.546   2.878  12.337  0.0001 -0.1230 -0.4006
23491W        W39625   9.212  18.533  13.078  0.0054  0.1830 -0.2805
23492W        W39626   1.825   1.257  11.627  0.1430 -0.0528  0.3565
23493W        W39627  13.113  17.911   1.935 -0.1034 -0.0949 -0.0465
23494W        W39628   6.004   1.817   5.466 -0.2716 -0.1072  0.1382
23495W        W39629   0.556  10.362   4.429 -0.0664 -0.0025  0.1073
23496W        W39630  12.122   1.297   2.472  0.1270  0.1612 -0.1697
23497W        W39631   7.676  18.148   5.828 -0.0252  0.3572  0.1063
23498W        W39632  14.413  16.560   4.560  0.2925  0.0412  0.1630
23499W        W39633  14.112   8.870  11.929 -0.0432  0.0211 -0.0387
23500W        W39634   8.338  14.911  12.246  0.1882 -0.0600 -0.0712
23501W        W39635  13.077  11.047  13.078 -0.1421  0.0433 -0.0071
23502W        W39636  11.601   3.578   4.110  0.0741  0.2544  0.0515
23503W        W39637  13.533   5.425   1.697 -0.0680  0.0434 -0.2498
23504W        W39638  14.090  17.851   4.909  0.1683 -0.2784  0.2206
23505W        W39639   2.517   5.250   4.043 -0.0437 -0.4594 -0.1398
23506W        W39640  13.650   7.228  11.812 -0.1432 -0.2267  0.0024
23507W        W39641   3.168  10.643  12.522  0.1455  0.2057  0.0648
23508W        W39642  16.742   9.512   5.401 -0.2540 -0.0575  0.1676
23509W        W39643   9.377   6.261  12.125  0.1268  0.1366  0.1361
23510W        W39644   5.200   4.719   4.237  0.0769  0.0204 -0.1003
23511W        W39645   6.671   8.835   5.184  0.0171  0.2860  0.3836
23512W        W39646   4.310  17.326   1.905 -0.0019  0.2369 -0.1157
23513W        W39647  12.379   3.597   1.244  0.1279  0.0224  0.0888
23514W        W39648   4.003   0.031  13.334  0.1194  0.2289  0.2356
23515W        W39649  11.322   7.678   0.845 -0.0254  0.1756 -0.3478
23516W        W39650  12.713   1.355   2.824 -0.0933 -0.0642  0.1255
23517W        W39651  15.181   0.962  11.226  0.1030 -0.2555 -0.0667
23518W        W39652   8.428  11.059  13.403 -0.2910 -0.1055 -0.1647
23519W        W39653  13.863   4.027  12.004  0.1994 -0.1591  0.0428
23520W        W39654   3.002   7.913   4.881  0.3357 -0.1309  0.3197
23521W        W39655  18.476  12.041  12.397  0.1135 -0.1336  0.5577
23522W        W39656  15.696   5.608   3.966  0.1181 -0.1654 -0.0773
23523W        W39657  12.506   9.834   3.958  0.2569 -0.3191  0.2224
23524W        W39658   3.746  17.807  10.046  0.1814 -0.1398 -0.0403
23525W        W39659   1.967  15.952   4.142  0.1338 -0.0070 -0.1862
23526W        W39660   9.467   4.596   2.244 -0.1766 -0.1932 -0.2575
23527W        W39661  12.637  17.723   1.976  0.1171  0.1604 -0.0144
23528W        W39662  16.504   8.968   1.112 -0.1359 -0.1693 -0.2060
23529W        W39663   0.703   9.572   2.386  0.1015 -0.1152 -0.0224
23530W        W39664  18.477   8.538  15.203 -0.1337  0.1379 -0.2741
23531W        W39665  17.635   8.814   3.533  0.0692  0.2244  0.2436
23532W        W39666   4.208   7.691   3.012 -0.2627 -0.0515  0.1086
23533W        W39667  14.482  15.882  12.214  0.1212  0.1536 -0.0676
23534W        W39668  13.247   9.043   4.313 -0.1370  0.0069  0.0724
23535W        W39669  17.402   5.713   5.479  0.1807  0.1878  0.1213
23536W        W39670  13.282   0.432   4.741 -0.1079 -0.0642  0.2223
23537W        W39671  18.804   8.706   4.294  0.0640  0.3105  0.0535
23538W        W39672  15.819   7.815  11.604  0.1247 -0.1499 -0.1443
23539W        W39673  18.878  17.213  12.045 -0.1573  0.1687 -0.0136
23540W        W39674  15.866   3.573   1.948  0.0708 -0.1903 -0.2343
23541W        W39675   2.745  10.268   2.217  0.0469 -0.2100 -0.0573
23542W        W39676  16.665  14.217   3.030 -0.1292 -0.3904 -0.1965
23543W        W39677   7.961   1.256   0.470  0.2240 -0.0157  0.2213
23544W        W39678   4.155   6.787  14.107 -0.2104 -0.0729  0.0274
23545W        W39679   5.933  13.889   3.598 -0.3823 -0.1810 -0.2711
23546W        W39680   9.210  16.436  14.865  0.0066  0.2355  0.0911
23547W        W39681   0.172  12.250   3.408  0.1802  0.0881  0.0515
23548W        W39682  18.275  12.274   0.736  0.1628  0.2411  0.2708
23549W        W39683  11.180   4.872   0.303  0.0337 -0.1996 -0.0297
23550W        W39684  14.742  18.557  10.712  0.2355  0.1694 -0.0250
23551W        W39685   8.759   5.380   1.424 -0.1473 -0.1939  0.1267
23552W        W39686   7.286   9.948  12.113  0.1548 -0.1448  0.0564
23553W        W39687  13.410   8.737  12.608 -0.2712 -0.0074  0.0684
23554W        W39688   0.264  18.698   4.877  0.0206 -0.1852  0.1758
23555W        W39689   8.469   8.007   2.362  0.0601  0.1427  0.1298
23556W        W39690  15.627  16.403   9.915  0.0480 -0.1335 -0.1502
23557W        W39691  13.552  12.770   2.765 -0.0110 -0.4774 -0.0586
23558W        W39692  10.241  18.355   0.555 -0.1536 -0.2260  0.0995
23559W        W39693   8.087  14.884  15.014 -0.0196  0.0494  0.1259
23560W        W39694  14.474  10.713   4.958 -0.0427  0.0145 -0.1458
23561W        W39695  18.148   0.680   1.831 -0.1519  0.0890 -0.1929
23562W        W39696  15.799  13.157   0.217 -0.1400  0.2216 -0.1453
23563W        W39697   9.345   3.080  15.166  0.0105  0.2123  0.1000
23564W        W39698   8.829  11.642   4.587 -0.2848  0.2321  0.3770
23565W        W39699  10.865  17.277   0.254  0.3338  0.0698  0.3307
23566W        W39700   0.408  13.321   2.471  0.0212 -0.3117  0.0556
23567W        W39701   8.203  11.650  14.102 -0.0227  0.0328  0.1307
23568W        W39702   7.989   3.394   2.750 -0.0717 -0.1315  0.0242
23569W        W39703   2.772   8.480   4.096 -0.1090  0.2316 -0.2857
23570W        W39704  11.947  10.607  12.111  0.2191  0.0627 -0.1184
23571W        W39705   2.345   5.411  10.575 -0.1294  0.0318 -0.0780
23572W        W39706   0.853  16.475  14.162 -0.0488 -0.0371 -0.2349
23573W        W39707   4.919   8.634  13.888 -0.0038 -0.0755 -0.1746
23574W        W39708   5.653   0.013  10.811 -0.2278  0.0301 -0.2750
23575W        W39709   9.652   0.755   9.529  0.2128 -0.1099 -0.0891
23576W        W39710   3.281  10.671  14.255  0.1446  0.1115 -0.0294
23577W        W39711  17.955   9.064  14.462  0.1486  0.0315 -0.1594
23578W        W39712   5.879  15.858  12.201 -0.5275  0.0068  0.3634
23579W        W39713   5.725   1.587   0.332 -0.0770 -0.1884 -0.1098
23580W        W39714  13.652   1.256  14.827  0.0748 -0.0027 -0.0106
23581W        W39715   7.955   4.798  12.617 -0.0419  0.3330  0.0140
23582W        W39716  15.450   8.926   3.202  0.0627  0.2953  0.0761
23583W        W39717  10.570   2.117  12.366  0.0991 -0.2798  0.0676
23584W        W39718   8.787   1.574   2.196 -0.3101  0.1143 -0.3311
23585W        W39719  12.158  16.542   5.423  0.0578 -0.4558 -0.0541
23586W        W39720   6.441  12.344   4.568 -0.1612 -0.2385  0.0985
23587W        W39721  17.356  17.720   3.651 -0.0445 -0.1453 -0.2725
23588W        W39722   5.788  12.066   1.841  0.0376 -0.1430 -0.0540
23589W        W39723   5.354   4.040  10.982 -0.1350 -0.0019 -0.1031
23590W        W39724  10.976   3.787  12.399 -0.3268  0.0531  0.2531
23591W        W39725   6.104  10.477   4.737 -0.1339 -0.2244  0.0908
23592W        W39726  15.957   7.527  13.652 -0.3891 -0.4403  0.0947
23593W        W39727   0.220   4.807  11.526 -0.3339 -0.1827 -0.0015
23594W        W39728   7.635  10.982   2.084  0.3719  0.2181  0.1646
23595W        W39729   1.506   8.341   2.377  0.2417  0.1825 -0.0129
23596W        W39730  10.896  14.336  15.013 -0.0596 -0.2115 -0.1716
23597W        W39731   1.182   7.779  14.106  0.1588 -0.0628 -0.0907
23598W        W39732   5.982   0.634  13.009  0.1250 -0.0184  0.1637
23599W        W39733  18.773   2.917  13.792 -0.1293  0.4462 -0.1827
23600W        W39734  11.056   0.939   0.313  0.2017  0.0544 -0.0634
23601W        W39735   1.570  16.168  13.095  0.3956 -0.0580 -0.2235
23602W        W39736  12.885   6.472  13.145 -0.0910  0.1258 -0.2801
23603W        W39737  16.284   0.295   2.412 -0.1182  0.2095  0.2236
23604W        W39738   8.333  11.195   1.680  0.4061 -0.1296  0.1301
23605W        W39739   3.135  14.408  12.450  0.1137  0.0113  0.4969
23606W        W39740   1.302   0.390   4.866  0.0708  0.0264  0.2062
23607W        W39741  11.354   3.363   5.002  0.3096 -0.1437  0.3224
23608W        W39742   1.127  14.271   5.286  0.1282 -0.4610 -0.0960
23609W        W39743  13.953   3.419  15.164 -0.1099  0.1447 -0.0337
23610W        W39744  13.439   7.890   1.580  0.1029 -0.1598 -0.1205
23611W        W39745   7.186   3.092   3.125  0.1785 -0.3344  0.2608
23612W        W39746  18.376  15.767   5.533  0.2632  0.2416 -0.0792
23613W        W39747   0.754  16.771  13.288  0.1375 -0.1691 -0.1731
23614W        W39748  13.049   0.716   0.133  0.1837  0.2331  0.0941
23615W        W39749  17.282   0.435  12.326 -0.4619 -0.0224 -0.0422
23616W        W39750   1.667  16.079  11.936  0.0129 -0.0095 -0.2627
23617W        W39751   3.886   8.164   2.911  0.2174  0.4307  0.0294
23618W        W39752  18.504  12.754  15.172  0.1423  0.2701 -0.2465
23619W        W39753   4.909   6.276  11.851 -0.1251  0.0713 -0.1666
23620W        W39754  12.108   3.413  13.244  0.0871 -0.1814  0.0266
23621W        W39755   9.321   5.867  11.681  0.0310  0.2227 -0.1602
23622W        W39756   3.656   6.904   2.315  0.5070  0.0519 -0.0453
23623W        W39757   6.241  17.555  11.158  0.3463 -0.0558 -0.0378
23624W        W39758   6.175  13.945  10.809  0.1252 -0.0085  0.0175
23625W        W39759   7.903  15.155   4.734  0.1628 -0.0097  0.3709
23626W        W39760   6.316   8.565   4.216  0.1426  0.2290 -0.0352
23627W        W39761   5.352  11.652  13.400 -0.0553 -0.3351 -0.4108
23628W        W39762  16.830   4.734   2.978 -0.4307 -0.1374 -0.2497
23629W        W39763  18.754  11.031   5.431  0.3051  0.3665 -0.1445
23630W        W39764  18.857  17.841   1.950  0.0030  0.0396 -0.2124
23631W        W39765   7.542   4.589  13.348  0.0935  0.0177  0.1980
23632W        W39766  15.381  11.562   1.323  0.2435  0.1348  0.3588
23633W        W39767   5.039  16.690   9.371  0.1120 -0.3073  0.0343
23634W        W39768   0.189   6.630   5.820 -0.0501 -0.0066 -0.0306
23635W        W39769  14.139  18.050   3.857  0.2766  0.2213 -0.1226
23636W        W39770   8.545   9.994   1.005 -0.1176  0.2222  0.0944
23637W        W39771  17.326   8.145   4.053  0.0313 -0.2150  0.0908
23638W        W39772  14.982   6.427   3.684 -0.0010 -0.1258  0.0789
23639W        W39773   6.601   7.986   0.632  0.0237  0.3720 -0.3348
23640W        W39774  14.598  17.051   1.127  0.0801 -0.1571  0.3647
23641W        W39775  18.560   9.408   0.145 -0.1974 -0.1935  0.2038
23642W        W39776  10.820   4.828  14.749 -0.1947  0.0459  0.0195
23643W        W39777  17.429  15.120   4.251  0.0737  0.2769  0.1528
23644W        W39778   3.761  11.028  13.309  0.1019 -0.1527 -0.1984
23645W        W39779   3.925   3.997   0.904  0.2157  0.3228  0.1084
23646W        W39780   0.727   4.787   2.177 -0.2063 -0.2007  0.1380
23647W        W39781   9.128  16.523  11.367  0.0650  0.0720  0.0889
23648W        W39782  15.498   0.238  14.655  0.1965  0.1965 -0.3017
23649W        W39783   5.099  10.486   3.329  0.2277  0.0561  0.3827
23650W        W39784   0.322   9.438  14.344 -0.0727  0.1479  0.1091
23651W        W39785  15.717  17.538  14.714 -0.1728 -0.1655  0.1707
23652W        W39786   0.542  13.908  11.601 -0.0577 -0.1606 -0.0310
23653W        W39787  17.986   8.534  15.206 -0.1571  0.0611  0.0207
23654W        W39788   0.148  14.990   0.465  0.3459  0.2475  0.1350
23655W        W39789  13.882  15.963  11.411  0.3484  0.1073  0.2341
23656W        W39790   7.215  15.032  14.946  0.0372 -0.0259 -0.3688
23657W        W39791   3.832   6.696   4.508  0.1566  0.0454  0.1445
23658W        W39792   4.185   3.412  13.412 -0.3899  0.1939 -0.1899
23659W        W39793  12.438  10.656  10.741 -0.2304  0.0237 -0.2216
23660W        W39794  15.230   3.491   0.541 -0.0053 -0.0111 -0.1806
23661W        W39795   9.892  15.817  13.942  0.0411  0.0855  0.1308
23662W        W39796  11.984   3.364   2.600 -0.2321  0.0962  0.0582
23663W        W39797  13.165   3.401  14.921  0.2407 -0.0123  0.0563
23664W        W39798   8.396   7.743   3.929 -0.0707  0.0172  0.1068
23665W        W39799   2.199  13.541   5.167 -0.0499  0.0582  0.1228
23666W        W39800  18.739  11.319   3.089 -0.1559  0.1243  0.0226
23667W        W39801  15.183  18.870   4.037 -0.1330  0.1969 -0.2546
23668W        W39802   8.034  14.831   0.253 -0.0556 -0.0001 -0.1978
23669W        W39803   7.002  18.263  14.691 -0.2189  0.2849 -0.3111
23670W        W39804   3.463  12.350  14.779 -0.2156  0.0076 -0.3700
23671W        W39805  18.173  16.874  14.795 -0.0892  0.0918  0.3204
23672W        W39806   3.640   0.969  14.209  0.0211  0.1680  0.0107
23673W        W39807  15.383   3.637  14.136 -0.2400  0.0109 -0.0575
23674W        W39808  16.744   9.281  13.067  0.2157  0.2384 -0.2448
23675W        W39809   9.518   5.524   1.730  0.0958 -0.1600  0.1310
23676W        W39810   0.219  15.035  12.260  0.2088  0.2324 -0.3129
23677W        W39811  11.000   5.260  10.650 -0.4226 -0.0959 -0.1451
23678W        W39812  11.095  13.402   0.560 -0.2903  0.0144 -0.1662
23679W        W39813   6.406   8.447   0.700 -0.0030 -0.0644  0.0611
23680W        W39814  17.394   6.010   0.364  0.0938  0.0327  0.0201
23681W        W39815  13.653  10.089  12.973  0.1700  0.3586 -0.1194
23682W        W39816  14.528   8.538  14.671  0.4270  0.0444  0.2351
23683W        W39817   5.655  16.954  14.879  0.1429  0.1060  0.0989
23684W        W39818  13.283   4.445  11.155 -0.5634  0.2906 -0.2863
23685W        W39819   2.065   8.738  11.073 -0.0913  0.3184  0.0999
23686W        W39820   9.951  16.137   4.483 -0.1722 -0.1896  0.1037
23687W        W39821  18.237  15.911  12.443  0.1681  0.2092 -0.0540
23688W        W39822  15.511   3.411   3.449  0.0397 -0.3388 -0.0941
23689W        W39823  16.318   9.740  13.455  0.2883  0.0256  0.3081
23690W        W39824   5.975   7.141   3.613  0.0128 -0.2412 -0.0825
23691W        W39825   2.097  15.293   1.628 -0.2417  0.0515 -0.3142
23692W        W39826  14.523   3.943  14.863 -0.2639  0.0185 -0.2618
23693W        W39827   7.207  13.005  11.099  0.1280  0.3192 -0.1883
23694W        W39828   4.846  13.307  14.741 -0.3153 -0.0270  0.1864
23695W        W39829  18.386  12.340   2.380  0.0333 -0.1025  0.1497
23696W        W39830   1.855  17.798  11.712 -0.0186  0.0372  0.7048
23697W        W39831   0.388   7.942  12.874 -0.3686  0.0343 -0.1842
23698W        W39832   5.543  17.792   0.595 -0.0302 -0.1156  0.0082
23699W        W39833  15.307  14.254   3.304 -0.1702  0.2173  0.0036
23700W        W39834  15.009   0.455  11.260 -0.0433  0.1558  0.5185
23701W        W39835  15.478  13.162   1.089 -0.3346 -0.0933 -0.0992
23702W        W39836   1.634  18.219   2.657  0.0343 -0.2581 -0.0427
23703W        W39837  17.755   6.061   4.692 -0.2067 -0.0660 -0.0127
23704W        W39838   1.802   6.488  14.368  0.1235 -0.1631  0.2627
23705W        W39839   4.998   5.250   3.034 -0.1017 -0.1324  0.1088
23706W        W39840  13.851   9.398  12.589 -0.1037  0.0436 -0.3606
23707W        W39841   1.328  12.493  10.890  0.1766 -0.0316  0.1264
23708W        W39842   6.774  10.652  11.777 -0.1133 -0.0894 -0.2089
23709W        W39843   4.799  15.529   3.775  0.1984  0.1666  0.4770
23710W        W39844   0.557  11.358   5.467  0.2847 -0.0221  0.0402
23711W        W39845  16.563  11.817  10.831 -0.4775  0.1529 -0.0490
23712W        W39846   1.751   5.256  14.908 -0.0635 -0.1826  0.1194
23713W        W39847  10.398  13.253   9.684  0.0306  0.0340  0.1658
23714W        W39848   2.801   3.092   2.676  0.1354  0.1831  0.1043
23715W        W39849   2.537   2.924  14.365 -0.1432  0.2302  0.2263
23716W        W39850   2.506  18.430   1.433 -0.2035  0.3465  0.4857
23717W        W39851   1.899  10.022   1.825  0.2527 -0.2544  0.0973
23718W        W39852   1.389   2.129  11.491  0.0856  0.0447  0.0970
23719W        W39853   1.593   4.123  11.143  0.3281  0.1421  0.2974
23720W        W39854  18.345   0.758   5.248  0.1717  0.2168 -0.2991
23721W        W39855   5.066  15.415   0.471 -0.0246  0.0532 -0.3007
23722W        W39856  16.494   7.649  13.540  0.1301  0.1154  0.1795
23723W        W39857  10.653   6.746   0.148  0.0778 -0.0654 -0.1601
23724W        W39858   1.550   9.224   4.964  0.0443  0.0420  0.0823
23725W        W39859   2.751   7.042   3.970 -0.0178 -0.0750  0.2560
23726W        W39860  17.890  10.059   2.404  0.4477 -0.3043  0.3767
23727W        W39861   5.333  11.513   3.308 -0.2943 -0.1724  0.2614
23728W        W39862  15.499   4.797   5.348 -0.1755 -0.1258  0.0387
23729W        W39863   0.278   1.789   0.669  0.3501  0.0512 -0.1276
23730W        W39864   0.777   9.554   9.965  0.0743  0.1026  0.2560
23731W        W39865   5.742  18.400   2.261 -0.0009  0.0921  0.2198
23732W        W39866   3.434   3.241   0.898  0.0848 -0.2258 -0.3428
23733W        W39867   2.486  13.159  12.973 -0.2712 -0.2155  0.2516
23734W        W39868  13.550   1.410   0.025 -0.2634 -0.1678 -0.0778
23735W        W39869  15.250   3.706  14.821  0.2132 -0.0029  0.2463
23736W        W39870   6.064   7.328  14.375  0.3560  0.0273  0.0588
23737W        W39871   9.627  15.105   2.513 -0.2485  0.1797  0.3545
23738W        W39872   4.870   8.688   1.319 -0.0027  0.1282 -0.1545
23739W        W39873   1.398   9.262  10.852 -0.0596 -0.0791 -0.2190
23740W        W39874  14.172   2.979   1.951 -0.1438  0.2193  0.0311
23741W        W39875   6.689   4.768   1.392  0.1630 -0.0312  0.1695
23742W        W39876   8.730   2.316  14.008  0.1835 -0.0604 -0.2860
23743W        W39877  12.549   3.095   1.126 -0.0027  0.0082  0.0906
23744W        W39878   3.515  15.938   0.856  0.2241 -0.0567 -0.0380
23745W        W39879  17.489  12.429   3.579 -0.2899 -0.1657 -0.3466
23746W        W39880  10.383  15.182  10.815 -0.0789 -0.0440  0.2065
23747W        W39881   0.236   0.400  11.885  0.1675  0.1237  0.1459
23748W        W39882   5.545   0.210  14.257  0.0470  0.4325 -0.1934
23749W        W39883  16.376  12.456  11.446  0.1304 -0.2261 -0.2794
23750W        W39884   0.716  16.216   1.958  0.1007 -0.1441  0.2426
23751W        W39885  14.720   7.495   0.141  0.2540 -0.3285  0.1159
23752W        W39886   5.732   7.294  10.542 -0.2545  0.2092  0.1348
23753W        W39887  17.061  13.375  14.901 -0.3991 -0.0398 -0.1722
23754W        W39888  18.940  13.025   2.673  0.1695  0.1462  0.0296
23755W        W39889  18.859  16.853   4.183  0.1657  0.0481  0.2686
23756W        W39890  12.432  10.134   1.140 -0.0604 -0.1655  0.0305
23757W        W39891  12.500  15.744   0.272  0.1136 -0.0577 -0.3167
23758W        W39892  13.655   2.697   3.447  0.1730 -0.3172  0.1142
23759W        W39893   2.469   4.442  12.991  0.0337  0.2320 -0.3194
23760W        W39894   0.581   0.655   3.473 -0.1206 -0.0664  0.4837
23761W        W39895  11.078   3.728  11.384  0.1552 -0.0544 -0.2262
23762W        W39896  17.875  12.722   0.725  0.1208  0.1968 -0.0297
23763W        W39897   2.915  13.917  12.469  0.0102  0.2948  0.1920
23764W        W39898  13.829  13.494  10.483 -0.0440  0.0055 -0.2070
23765W        W39899   6.869  13.894  13.177  0.1298  0.1543  0.1611
23766W        W39900  14.470  12.600  13.916  0.3874 -0.2049 -0.1424
23767W        W39901  14.702  17.896   5.505 -0.0643 -0.1173  0.1221
23768W        W39902  12.004   1.572   3.214 -0.2179 -0.0927 -0.1557
23769W        W39903   9.408   2.371   0.638  0.0148  0.3602  0.0328
23770W        W39904  16.884   4.027   0.405  0.1836  0.0859 -0.0276
23771W        W39905   2.184  12.292  12.546  0.2228 -0.0292 -0.2465
23772W        W39906  11.593  14.728  11.810  0.1948 -0.2299 -0.0853
23773W        W39907  11.441  10.560  13.531  0.2648 -0.3253 -0.0415
23774W        W39908   6.852   7.742  13.377  0.0743 -0.1840 -0.2269
23775W        W39909   1.023   2.764   0.704 -0.2660 -0.1574  0.4009
23776W        W39910  13.392  16.047  11.651 -0.3396  0.0728  0.1068
23777W        W39911  14.999  12.788  11.942 -0.3854  0.1124  0.1510
23778W        W39912  11.695   3.005   4.800 -0.2098  0.2984  0.0837
23779W        W39913   4.525   2.208   9.545 -0.1678  0.0624  0.0720
23780W        W39914   7.182  13.831  10.541 -0.1209  0.1405 -0.0584
23781W        W39915   4.873   9.426   1.845 -0.3054 -0.0632  0.2484
23782W        W39916  13.794   8.665   2.551  0.0666 -0.2817  0.1470
23783W        W39917  17.053  13.251  13.454 -0.2125 -0.0022 -0.0541
23784W        W39918   8.377   0.225  13.884 -0.1469 -0.1747  0.3780
23785W        W39919   5.429   6.713   1.226  0.0974  0.1737  0.2194
23786W        W39920  11.022   1.699   0.226 -0.1996  0.0866 -0.1034
23787W        W39921  15.111   7.823  14.801  0.1513  0.2346 -0.1019
23788W        W39922  18.295  14.869   3.817 -0.3732  0.1380 -0.0646
23789W        W39923  17.987   1.170   1.806  0.0303 -0.0953  0.0417
23790W        W39924  13.217  14.400   0.044  0.2691  0.0947 -0.3377
23791W        W39925   6.266   1.096   0.966  0.0071 -0.0257  0.1992
23792W        W39926  10.604   4.669   1.399  0.2492  0.2069  0.0680
23793W        W39927  11.278   2.040   3.096  0.1955  0.2741 -0.1830
23794W        W39928   0.246   3.861   2.476 -0.3423  0.5370 -0.2868
23795W        W39929   3.217  18.280  11.214  0.0458  0.1608 -0.0380
23796W        W39930  12.414   6.182  13.024  0.0599  0.1800  0.2286
23797W        W39931  17.279   4.335   5.727  0.0634  0.0035 -0.0263
23798W        W39932   0.365   2.250   2.424 -0.1838 -0.2310 -0.0001
23799W        W39933  10.732   2.747   1.744 -0.2270  0.1122 -0.0985
23800W        W39934  16.708   7.059  12.658  0.1165 -0.2975  0.1572
23801W        W39935  16.000   0.807   5.413  0.1376  0.2875  0.0977
23802W        W39936  10.040  18.201  12.071 -0.1774 -0.3990  0.1224
23803W        W39937  11.717   5.800  14.275 -0.4576  0.1197 -0.0436
23804W        W39938   3.909  11.984   1.203 -0.0217 -0.0877 -0.1188
23805W        W39939  15.348   2.303  13.983  0.1300  0.2306 -0.0239
23806W        W39940   6.486   8.994  14.716  0.0217 -0.2495  0.1515
23807W        W39941   9.893   8.788   3.385  0.1336  0.0464 -0.1131
23808W        W39942  16.033  17.254  13.822 -0.3083 -0.4788 -0.1907
23809W        W39943   8.017  11.809  12.650  0.2279  0.0508 -0.2406
23810W        W39944  18.792  16.440  13.235  0.3124  0.1918 -0.1998
23811W        W39945   9.930  18.511   1.630  0.0543 -0.0756 -0.0471
23812W        W39946   9.908   4.579   0.706  0.0583  0.0464  0.1328
23813W        W39947  10.122  13.166  15.121 -0.4061  0.2947  0.1372
23814W        W39948   5.902   4.933   3.438  0.1250 -0.0730 -0.0146
23815W        W39949  17.711   4.456  13.172  0.3276  0.0508  0.1524
23816W        W39950   8.409  17.781  11.213  0.2125  0.3142 -0.0197
23817W        W39951  12.923   0.905  10.626  0.1452 -0.2760 -0.0280
23818W        W39952   5.037   5.616  11.207 -0.1598 -0.0071  0.1467
23819W        W39953  18.191   4.765   0.577 -0.0461 -0.1647 -0.1668
23820W        W39954  11.925   4.299   2.267 -0.0747  0.0930 -0.2326
23821W        W39955   6.947  15.711   0.575  0.0590  0.0968  0.0108
23822W        W39956   1.147   3.471   3.009  0.1573  0.1031 -0.0622
23823W        W39957  15.330   2.373  14.510  0.1042  0.1037  0.1447
23824W        W39958   1.349   5.387   2.487 -0.0303  0.1393  0.1651
23825W        W39959  13.798  14.735  12.529  0.2292  0.0252  0.0940
23826W        W39960   8.897   4.757  11.315 -0.1080 -0.1131 -0.1836
23827W        W39961   1.299  11.579   4.453  0.0136 -0.2658  0.0523
23828W        W39962  17.246  11.151  14.917  0.0664  0.1212  0.0987
23829W        W39963   1.071   2.795   2.643  0.0720 -0.0078  0.1779
23830W        W39964   9.560   2.668  12.761 -0.0506  0.0836  0.0779
23831W        W39965   9.383   7.905   2.399  0.1053  0.0064  0.1154
23832W        W39966   2.920  16.114   2.156  0.0220 -0.0213 -0.0006
23833W        W39967   4.083  13.280   1.713 -0.1763 -0.4111  0.2861
23834W        W39968   4.931  13.286   3.817  0.1139  0.0031 -0.4023
23835W        W39969  12.924   2.773  12.236 -0.1657  0.1049 -0.2325
23836W        W39970   3.707   5.831   1.375 -0.1032 -0.0555 -0.1464
23837W        W39971   3.940  16.429   2.487  0.0386 -0.2279  0.0436
23838W        W39972  14.253  15.565  11.233 -0.2170  0.1551 -0.3295
23839W        W39973  13.092  15.552   3.577 -0.1868  0.0241  0.0252
23840W        W39974   5.816   2.286  13.114  0.0897  0.1206  0.3660
23841W        W39975  12.767  16.667   0.049 -0.0991  0.1186  0.1830
23842W        W39976  18.325  11.755  11.803 -0.1680 -0.0066  0.2668
23843W        W39977  13.759   7.274  12.622  0.0048  0.2638 -0.0077
23844W        W39978  13.526   0.045   4.621  0.1459  0.1017  0.2594
23845W        W39979   7.595   5.060   3.019  0.4336 -0.0344 -0.0681
23846W        W39980  16.063   9.198   0.840  0.4669 -0.2593 -0.1081
23847W        W39981  15.484  16.058  12.558 -0.3476 -0.1289 -0.3370
23848W        W39982   4.305   2.661  10.676 -0.2989 -0.1804 -0.0742
23849W        W39983  11.208  12.730   1.322  0.1453 -0.0156  0.3420
23850W        W39984   4.081  11.325  11.460  0.1466  0.1311  0.0104
23851W        W39985   6.342   9.694   3.542 -0.1995  0.2906 -0.0724
23852W        W39986  14.391  16.438  10.841 -0.1521 -0.1737 -0.1822
23853W        W39987   5.775  12.618  12.404  0.0569 -0.0934 -0.2895
23854W        W39988   6.462   6.462  13.644  0.0177  0.0558 -0.3515
23855W        W39989  17.519   8.709  12.869  0.1153  0.2159  0.0814
23856W        W39990  13.412  11.464   1.579 -0.1240  0.1940 -0.3525
23857W        W39991   8.274   4.993   0.611  0.0887 -0.0453  0.1268
23858W        W39992   5.293   1.617   4.088  0.2827  0.3991 -0.0188
23859W        W39993   9.542   6.844   2.009 -0.2432 -0.0964  0.1245
23860W        W39994   0.043  17.109  13.920  0.1699 -0.4660 -0.3425
23861W        W39995  17.149   8.673  13.221 -0.1092  0.0561  0.1270
23862W        W39996  16.081   6.342   4.045  0.1450  0.1040 -0.1503
23863W        W39997   8.681  15.411  14.128  0.0996  0.1819 -0.3585
23864W        W39998   6.200  18.341  10.665 -0.0684 -0.0749  0.0850
23865W        W39999   3.794  15.158  12.024  0.0379  0.2612 -0.0901
23866W        W40000  18.144  16.299  11.403  0.0142 -0.2566 -0.1577
23867W        W40001   1.392   5.443   0.674 -0.1881 -0.2422 -0.1595
23868W        W40002   7.055  10.947  10.164 -0.0834  0.1109  0.1888
23869W        W40003  14.429   4.434  11.945  0.3525 -0.0414  0.1096
23870W        W40004   8.140  13.310   3.685 -0.2498  0.1279  0.3624
23871W        W40005  18.194  17.351  14.330  0.3000 -0.1505  0.1477
23872W        W40006   9.943  15.830   1.452 -0.0810  0.1401  0.0609
23873W        W40007  13.266   4.960  11.176  0.2309 -0.0114  0.0130
23874W        W40008   2.551  18.812  11.103  0.0476  0.4781  0.3047
23875W        W40009  11.100   0.168  11.691  0.2484  0.0143 -0.3180
23876W        W40010   9.541   5.425   2.273  0.4709 -0.0250  0.2131
23877W        W40011  15.753   6.812  14.437  0.0315 -0.0717 -0.0447
23878W        W40012   0.520   0.096   3.589 -0.1580  0.0764  0.0495
23879W        W40013   8.858   5.900  14.479  0.1771 -0.1267 -0.2656
23880W        W40014   5.499   1.510  13.587  0.1288 -0.4249 -0.0983
23881W        W40015   5.014   0.621  13.291  0.3162 -0.0437  0.3919
23882W        W40016  16.887   7.936  15.208 -0.2762 -0.2743 -0.3634
23883W        W40017  16.423   0.045   0.433  0.3555  0.0979  0.1101
23884W        W40018  12.793  15.423   4.045  0.0184 -0.0710 -0.2209
23885W        W40019  18.324  13.252  15.253 -0.1846 -0.1174  0.2021
23886W        W40020   9.336  17.655   4.174  0.1065  0.0878  0.3535
23887W        W40021  12.154  12.914   0.070 -0.0301  0.3996  0.2398
23888W        W40022  12.511   9.780   4.495 -0.2032  0.0751 -0.0686
23889W        W40023   7.940  17.400  11.742 -0.0598 -0.1555  0.0337
23890W        W40024  10.224   7.816  14.773  0.0705  0.3720 -0.1380
23891W        W40025   6.230   1.408  10.773  0.1711  0.1529 -0.2166
23892W        W40026  11.404   8.832  11.777 -0.0056 -0.1134 -0.1139
23893W        W40027  11.680   9.019  12.201  0.1951 -0.0316  0.0488
23894W        W40028   0.791  11.543   5.038  0.2460 -0.0685 -0.2789
23895W        W40029  10.008   4.018  12.291 -0.0472  0.0316  0.0968
23896W        W40030   1.195   1.607   4.270 -0.0171  0.1106 -0.1399
23897W        W40031  15.366   2.461   1.446 -0.0040 -0.1414  0.0294
23898W        W40032  11.469   2.990  10.789 -0.0027  0.2335  0.2489
23899W        W40033   5.301   3.115  11.636 -0.0171 -0.1321 -0.1353
23900W        W40034  17.694   4.392  12.074  0.3137 -0.0956  0.3672
23901W        W40035  12.820  17.479   1.591 -0.0674  0.1075  0.3613
23902W        W40036   6.203   5.679   3.864  0.3573  0.0484  0.3009
23903W        W40037  15.738   6.185  12.401  0.3251 -0.0907 -0.0513
23904W        W40038   5.463  14.491  13.393  0.0732  0.0321  0.3490
23905W        W40039   6.392   0.457  14.670 -0.0127  0.1572  0.0207
23906W        W40040  17.039  17.217   4.247 -0.4280 -0.1354  0.3492
23907W        W40041   6.988  17.598  12.927  0.3139  0.0934  0.0526
23908W        W40042   4.008   6.262   3.005  0.2058  0.1219  0.3380
23909W        W40043  12.737  13.822   1.525  0.1264 -0.1518 -0.2707
23910W        W40044  13.462   6.916   3.017 -0.0881 -0.1613  0.0073
23911W        W40045   7.087   9.449   4.615 -0.0965  0.0089 -0.4091
23912W        W40046  12.972  12.100  12.745  0.2569 -0.2694 -0.0418
23913W        W40047  16.523  12.989   4.291 -0.0550  0.0028  0.0302
23914W        W40048   9.005   8.681   2.398 -0.3190  0.1554  0.1543
23915W        W40049  15.843   4.451  15.175  0.0147  0.0979 -0.1825
23916W        W40050   1.495  10.267  14.941  0.2384 -0.2164  0.3001
23917W        W40051   1.538  17.466   0.046  0.1586 -0.0958  0.0368
23918W        W40052   4.845  15.488  12.219  0.4469 -0.1693  0.2009
23919W        W40053  10.576   1.398   2.462  0.2709 -0.0668  0.0888
23920W        W40054  10.768   8.483  13.049 -0.2409  0.3452  0.4451
23921W        W40055  12.532  11.002   4.745 -0.2260  0.1780  0.1160
23922W        W40056   1.717  16.126   3.394  0.3568 -0.0712 -0.0121
23923W        W40057   2.821  18.244   5.549 -0.0835 -0.0713 -0.2616
23924W        W40058  18.168  16.229   5.751 -0.1632 -0.1525  0.2012
23925W        W40059   0.158   1.768   1.586 -0.4591 -0.1538 -0.0997
23926W        W40060  17.110   5.826  14.853  0.0127  0.5474  0.1070
23927W        W40061   4.103   9.162   0.842 -0.0114  0.1501 -0.1983
23928W        W40062   4.884   6.842   2.012  0.0998  0.2811  0.0428
23929W        W40063   4.349   2.677   1.321 -0.0224  0.1840 -0.0179
23930W        W40064  10.840   2.367  10.308  0.0534  0.1091 -0.1782
23931W        W40065  17.314  14.599  13.578 -0.1004  0.0408  0.1289
23932W        W40066   7.174   1.436  14.585 -0.1351  0.0355  0.0034
23933W        W40067  11.924   2.963   9.598  0.1400  0.1843  0.3774
23934W        W40068  15.566  13.686   2.352 -0.1249 -0.1889  0.2244
23935W        W40069   0.524  18.410  14.252 -0.1820 -0.0808 -0.3093
23936W        W40070   2.208  12.400   0.116 -0.1404 -0.1505 -0.2942
23937W        W40071   1.062  12.290   3.013 -0.0620  0.0341  0.1293
23938W        W40072   3.705  15.488   3.556  0.2502 -0.4118 -0.2952
23939W        W40073  14.669  13.441   5.588 -0.0383  0.1141  0.0695
23940W        W40074  12.565   3.571  12.300  0.0496  0.1731 -0.2701
23941W        W40075  13.864  10.101   0.240 -0.1506  0.0247  0.1010
23942W        W40076  12.344   7.693  11.577 -0.0237  0.1814 -0.0007
23943W        W40077  12.683  12.520  12.738  0.1272 -0.1846 -0.1286
23944W        W40078   6.963  16.395   1.377  0.0074  0.1514 -0.0644
23945W        W40079   0.749  10.782  14.673 -0.0344 -0.2442 -0.0559
23946W        W40080   3.580  18.002  13.792  0.1223 -0.0628 -0.1376
23947W        W40081  16.023  17.545   3.992  0.1472 -0.0647  0.0237
23948W        W40082  11.979   0.585   0.075  0.1278  0.0360 -0.0774
23949W        W40083   6.796   1.464   2.231 -0.0354  0.1464 -0.0817
23950W        W40084   9.755   1.337   3.126  0.1114 -0.1110  0.1159
23951W        W40085   9.375  12.296  13.460  0.1364 -0.0211  0.0388
23952W        W40086  12.301  18.840  12.295 -0.0784 -0.3705  0.1438
23953W        W40087   1.100   8.657  10.646  0.0472 -0.2378 -0.0187
23954W        W40088  13.810   8.590  12.947  0.0612 -0.2521 -0.0167
23955W        W40089  15.939  12.605  10.213 -0.3058 -0.0165  0.2835
23956W        W40090  15.584   4.367   5.583  0.2644  0.2782  0.0011
23957W        W40091   8.419  16.327   5.632 -0.1125 -0.0066  0.2597
23958W        W40092   6.358  12.272  14.056  0.0409  0.3164 -0.1826
23959W        W40093  12.409   6.078  11.964  0.1846 -0.0721  0.0618
23960W        W40094   5.803  17.943  12.493 -0.0111  0.2487  0.1513
23961W        W40095  16.206  14.181   4.014 -0.0502 -0.1178 -0.0512
23962W        W40096   8.435   3.506  14.702 -0.1148 -0.1145 -0.0988
23963W        W40097   0.089  12.953   1.615  0.2600 -0.0640 -0.1751
23964W        W40098  11.426  17.595  12.308 -0.1793  0.0466 -0.1895
23965W        W40099  13.212  13.415  13.799  0.0570  0.3805  0.1925
23966W        W40100  12.381   6.264  10.063  0.2285  0.1185 -0.2383
23967W        W40101  18.512  12.922  14.312  0.1760 -0.0571  0.0656
23968W        W40102  12.263   5.293  14.807 -0.4434 -0.3726  0.0844
23969W        W40103   8.908  12.732  14.945  0.0276  0.2737  0.3681
23970W        W40104  16.907   9.593   3.694  0.2844 -0.0548 -0.0444
23971W        W40105   5.759  12.342  11.957  0.2254 -0.0521 -0.1900
23972W        W40106  15.876  16.447   4.038  0.1730 -0.1381 -0.0884
23973W        W40107  16.008   6.670  13.031 -0.3229 -0.0760 -0.0763
23974W        W40108  13.380  15.898   3.778 -0.2522  0.1265 -0.3509
23975W        W40109  13.515  16.415  15.164  0.0744 -0.0377  0.0272
23976W        W40110  12.856  17.959   2.937  0.1197  0.3110  0.0426
23977W        W40111  12.129  17.837   1.639 -0.2351 -0.1863 -0.2633
23978W        W40112  17.844   9.678   0.415 -0.1696  0.1309  0.0238
23979W        W40113   1.037   1.964   1.638 -0.4645  0.0200 -0.2445
23980W        W40114  12.693   6.218  11.577  0.2069 -0.1245 -0.0426
23981W        W40115  13.370  18.165   3.226  0.0666 -0.1595 -0.1457
23982W        W40116  11.665  15.183   1.816 -0.2412  0.1431 -0.3672
23983W        W40117  18.498   2.298  12.165 -0.1260 -0.0097 -0.0114
23984W        W40118   8.211   5.576   1.486  0.0935  0.0319  0.0991
23985W        W40119   6.371   0.302  12.472  0.0736 -0.0673  0.1578
23986W        W40120  10.219  10.775  14.641  0.2309 -0.0978  0.1074
23987W        W40121   7.681  18.367  11.494  0.4085  0.3039  0.0235
23988W        W40122   4.406  14.115  13.831 -0.2912 -0.1642  0.0216
23989W        W40123  18.033   4.443   4.415 -0.2163  0.1756  0.1670
23990W        W40124   2.641  13.236  14.858  0.0662 -0.1302 -0.0425
23991W        W40125   2.311  15.354  11.957 -0.0124 -0.2997 -0.0446
23992W        W40126  16.412  15.664  13.017 -0.3175  0.0351  0.0361
23993W        W40127   6.052  14.502  13.121  0.1247  0.5924  0.0468
23994W        W40128   0.401   7.700  13.362  0.0516 -0.3214 -0.0549
23995W        W40129  15.199   2.368  13.376  0.0948  0.0745 -0.1285
23996W        W40130  11.065   6.488  13.872  0.1198  0.3071 -0.2991
23997W        W40131  11.892   5.537  13.799  0.0807 -0.0036  0.1964
23998W        W40132   7.660  10.311   5.002 -0.2098  0.0149  0.0621
23999W        W40133  14.589   7.712  14.831 -0.2148  0.2608 -0.1269
24000W        W40134   3.318   5.040   0.700 -0.1567  0.3529 -0.0165
24001W        W40135   2.440   9.632  13.130  0.1390 -0.1046  0.0973
24002W        W40136   5.549  11.737  12.931  0.0406  0.0717  0.1345
24003W        W40137   6.197  18.181  12.769  0.1736 -0.2147  0.0612
24004W        W40138   8.937   6.530   0.747  0.1917 -0.0311  0.1103
24005W        W40139  13.672  16.675   1.597 -0.2149  0.0176  0.0039
24006W        W40140  17.198  14.398   2.393  0.1174  0.0331  0.4237
24007W        W40141  16.648   0.868   4.125 -0.0279 -0.0672 -0.1960
24008W        W40142   6.279   9.494   3.997 -0.0651 -0.0619  0.1236
24009W        W40143  18.734   9.378   1.782 -0.1405  0.0594 -0.1524
24010W        W40144   6.047   6.451  12.469  0.0860  0.1649 -0.1996
24011W        W40145   1.208   0.826  11.037  0.3205  0.2378 -0.1014
24012W        W40146   4.617  17.831  14.259 -0.1943 -0.2018  0.0566
24013W        W40147  11.034   1.514  12.968  0.0512 -0.3688  0.1345
24014W        W40148   3.833  14.270   1.361  0.0821 -0.2700 -0.0513
24015W        W40149   8.861   1.801   3.187 -0.1808  0.2138  0.0589
24016W        W40150  14.629  18.688  12.976 -0.1361 -0.1033  0.0680
24017W        W40151  13.603   3.086  15.023  0.1262 -0.1805 -0.0119
24018W        W40152  17.624   5.251  11.145  0.0008 -0.3989  0.0058
24019W        W40153   4.224  18.614   3.923  0.1297 -0.1711  0.3806
24020W        W40154  11.998  11.453   4.128 -0.1237  0.1416 -0.1196
24021W        W40155   3.272   2.448  14.074 -0.0643 -0.0411 -0.0973
24022W        W40156   1.854   5.232   0.847 -0.0904  0.2247  0.0318
24023W        W40157  14.884   0.117   0.712 -0.0207  0.0611  0.1396
24024W        W40158   4.295   6.564   1.175 -0.2021  0.1079  0.0622
24025W        W40159   2.095  10.254   5.467 -0.2833 -0.0764 -0.1053
24026W        W40160   2.209   8.416  11.997  0.1266  0.2351 -0.0480
24027W        W40161  14.947   0.053   4.892 -0.0326 -0.1919 -0.0117
24028W        W40162  15.354   6.819   3.695  0.1479  0.1084  0.1974
24029W        W40163  17.629   8.179   3.182 -0.0119 -0.0598 -0.0332
24030W        W40164   8.467  17.158   1.532  0.1595  0.1534 -0.1070
24031W        W40165  17.226   9.027  10.861 -0.0839 -0.2686 -0.2119
24032W        W40166  15.258  15.897   3.769  0.2877 -0.0721  0.1457
24033W        W40167   9.882   0.684   2.115 -0.0567 -0.1813  0.4340
24034W        W40168  18.097   7.936  12.657  0.2032  0.0167  0.0683
24035W        W40169  17.455  14.314   1.408 -0.0811  0.0903 -0.4458
24036W        W40170  17.561  12.316   0.573 -0.0146  0.2444  0.5490
24037W        W40171  16.056  16.723  12.130 -0.2718 -0.2540 -0.1161
24038W        W40172  14.341   3.964  12.204 -0.3592  0.0947 -0.0183
24039W        W40173   8.653  15.184  10.708 -0.2048  0.0239  0.0428
24040W        W40174  17.476   0.651   5.207  0.2568 -0.0539  0.3382
24041W        W40175  11.126   9.136  14.906  0.1092  0.0265  0.2843
24042W        W40176  17.683  13.208  13.766 -0.1022  0.0512 -0.1631
24043W        W40177   7.760  12.311   0.456 -0.1601  0.0170  0.4612
24044W        W40178   1.562  18.409   2.151 -0.1282  0.0061 -0.1662
24045W        W40179  15.841  15.815   1.235 -0.0783  0.0383 -0.0346
24046W        W40180   6.734   9.623   0.141 -0.0347 -0.2634  0.0225
24047W        W40181  13.108  13.343   3.889 -0.1757 -0.0981  0.0819
24048W        W40182   2.231  15.672  12.769 -0.0998 -0.0219 -0.1188
24049W        W40183   9.049  11.305   4.881 -0.0966  0.1914 -0.4963
24050W        W40184  13.592   4.319   3.634  0.2307  0.0369  0.0070
24051W        W40185  14.391  11.406   5.006  0.1810  0.0999  0.1111
24052W        W40186   5.778   7.860  11.896 -0.0877 -0.2036  0.1349
24053W        W40187   9.650  18.028   5.240  0.0661  0.1704 -0.0504
24054W        W40188   8.477   3.882  12.328  0.0867 -0.1747  0.2591
24055W        W40189   2.716  15.947  12.559 -0.1561 -0.0615 -0.3661
24056W        W40190  13.355   2.375   1.177  0.1172  0.0928 -0.0248
24057W        W40191  14.924  11.547   2.609  0.0527 -0.0186 -0.1633
24058W        W40192   1.544  10.507   2.718 -0.1102 -0.1572 -0.4446
24059W        W40193  14.714  13.152  12.630 -0.0287  0.0527 -0.1129
24060W        W40194   9.642   1.972   0.819  0.0435  0.1143 -0.0579
24061W        W40195   7.604  17.300   5.177  0.0326 -0.2785 -0.0605
24062W        W40196   1.484   2.564   2.408 -0.2737 -0.0666  0.3203
24063W        W40197  12.298  10.649   3.417  0.1168  0.1244  0.3271
24064W        W40198   1.822   5.303  14.278  0.2450 -0.0982 -0.1859
24065W        W40199  15.411  15.266   4.250 -0.0755  0.1717  0.1295
24066W        W40200  18.732  17.934  13.985 -0.1935 -0.1151 -0.0128
24067W        W40201   8.343   2.333   2.057 -0.0130  0.0716 -0.1730
24068W        W40202   1.551   5.037   0.438  0.2369  0.0468  0.2397
24069W        W40203  18.862   7.978   1.580  0.2634 -0.1848 -0.1175
24070W        W40204   7.186   6.828  11.641 -0.0298  0.0108 -0.2846
24071W        W40205   7.491  10.546  11.002  0.1132 -0.1419 -0.0554
24072W        W40206   4.048   5.187  13.088 -0.2399  0.1859 -0.0911
24073W        W40207  14.166   4.809  11.452  0.0795  0.2895 -0.1835
24074W        W40208   1.859  16.761   2.433  0.2656 -0.1594 -0.2736
24075W        W40209  13.458  14.902   2.072 -0.1858 -0.0402 -0.0267
24076W        W40210   2.983  16.987   0.809 -0.2479  0.1393 -0.0790
24077W        W40211  13.034   1.682  14.012  0.0352  0.1149  0.1020
24078W        W40212   4.837   2.123   2.362 -0.0539 -0.1840 -0.3524
24079W        W40213   8.845   0.065   4.176  0.3093 -0.0775  0.0127
24080W        W40214   3.738   2.073   2.634  0.0133 -0.0417 -0.1208
24081W        W40215  12.225  15.497  11.746 -0.3376  0.0633  0.3356
24082W        W40216   3.030  17.161  11.878  0.0669  0.3126  0.2088
24083W        W40217  16.641  17.211   0.545 -0.0154 -0.1370 -0.1484
24084W        W40218   9.260  17.061   0.277 -0.0892  0.3240  0.3005
24085W        W40219   3.320   9.787   2.378 -0.0456 -0.0116  0.2445
24086W        W40220  15.066   3.250   3.569  0.2615  0.2002 -0.0981
24087W        W40221   9.451  11.178  15.014 -0.1138 -0.2266  0.2699
24088W        W40222   1.753   8.068  11.627 -0.4188  0.0339 -0.2092
24089W        W40223   5.511  14.689  10.427 -0.2093  0.0887 -0.0411
24090W        W40224  15.866   4.935  13.642 -0.0952 -0.1013 -0.1696
24091W        W40225   3.840  13.580   2.843  0.1503 -0.4247 -0.1858
24092W        W40226   7.771  14.798  14.312 -0.1821 -0.0729 -0.0338
24093W        W40227  18.431   1.446  14.550 -0.0916 -0.0078  0.0840
24094W        W40228  10.499  12.050  14.664 -0.0549  0.0634  0.0930
24095W        W40229   7.126   9.513   3.048  0.3254 -0.4178 -0.1234
24096W        W40230   5.610  13.743   4.022  0.1104  0.1542  0.2745
24097W        W40231   9.787  15.818   2.559  0.4126  0.3639 -0.0734
24098W        W40232   7.638   5.718  10.233 -0.0091  0.1812 -0.1419
24099W        W40233  18.619   8.311  13.891 -0.2431 -0.0304  0.1625
24100W        W40234  11.991   1.514  10.901  0.2713  0.1763 -0.1960
24101W        W40235  15.380  13.535   5.111  0.1349  0.0623  0.2736
24102W        W40236   7.211  16.777   1.218 -0.3561 -0.1098 -0.1766
24103W        W40237   9.302  17.947  13.164  0.0817  0.2352  0.4236
24104W        W40238  16.420  13.272   3.763 -0.0628 -0.0807 -0.0840
24105W        W40239   3.840  11.751  11.461 -0.0686 -0.1529 -0.2778
24106W        W40240  11.390   2.094  11.758  0.0815  0.0451  0.0724
24107W        W40241   3.488   8.757   1.983  0.1004 -0.0796  0.0369
24108W        W40242  13.961  18.182   1.567 -0.0465  0.2034  0.0700
24109W        W40243   2.907  18.971  10.344  0.1254 -0.1309 -0.1680
24110W        W40244   3.058  13.771  13.677 -0.0101 -0.1316  0.0119
24111W        W40245   6.829   3.759   1.740 -0.0713 -0.0380 -0.2989
24112W        W40246   1.825  17.796  10.267 -0.1701  0.0524 -0.1651
24113W        W40247   0.830  15.269  10.807 -0.0774  0.0893  0.2677
24114W        W40248   3.541  12.517   1.801  0.0369 -0.0154  0.2416
24115W        W40249  14.376  12.758  14.744  0.0257 -0.0812  0.3016
24116W        W40250   3.988  10.599   5.496 -0.2086  0.0476 -0.0426
24117W        W40251  13.876   7.940   0.455 -0.2132  0.2815 -0.0435
24118W        W40252  12.062  11.198   2.350 -0.0423 -0.0414  0.0214
24119W        W40253   9.228   2.187   4.246 -0.1381 -0.0583 -0.0060
24120W        W40254  13.293  14.654  12.686  0.1459 -0.0761 -0.1749
24121W        W40255   4.822  10.403  13.104 -0.0459  0.0912  0.1125
24122W        W40256   7.254   0.755   1.145 -0.2180  0.4457  0.2920
24123W        W40257   1.453  15.280  11.598  0.2690 -0.2967 -0.1428
24124W        W40258  16.968  13.198   0.602  0.1592 -0.0697 -0.2313
24125W        W40259  14.130  17.048   0.324 -0.1067  0.2368 -0.1253
24126W        W40260  10.571  18.736   1.405  0.1049 -0.1625 -0.2941
24127W        W40261  12.574   9.560  14.009  0.4251  0.1550  0.0149
24128W        W40262  18.253   3.219   1.137 -0.1510  0.0658 -0.2650
24129W        W40263  15.206   9.703  10.863  0.3315  0.1626 -0.0830
24130W        W40264   0.213  12.694   4.226 -0.1914 -0.0575  0.1403
24131W        W40265   5.433   6.639  14.845 -0.1657  0.0023 -0.0568
24132W        W40266  12.384   7.624   3.740  0.0387  0.1753  0.0720
24133W        W40267   3.062  14.136   0.007  0.2279  0.0807 -0.2254
24134W        W40268   3.015   1.193  14.948 -0.2795  0.1442 -0.1454
24135W        W40269   1.501  15.387  13.610 -0.1529 -0.0874 -0.0283
24136W        W40270   7.120  14.136   0.593 -0.0317 -0.0862 -0.1920
24137W        W40271  16.720   4.475   3.876  0.1691  0.1782  0.0820
24138W        W40272  10.417   4.904  10.283  0.3483 -0.0451  0.1936
24139W        W40273  11.512   0.854  13.423  0.1435 -0.1370  0.1350
24140W        W40274   8.169   1.667   1.281  0.0881 -0.0251 -0.1198
24141W        W40275  10.859   3.423  10.565  0.0708 -0.1782  0.2579
24142W        W40276   0.649   8.604   0.575 -0.0448 -0.0883 -0.0174
24143W        W40277   9.995  17.077  11.523 -0.1309 -0.2148 -0.0572
24144W        W40278  18.954   6.358   2.751  0.2178 -0.0972 -0.0777
24145W        W40279   9.018   9.918  13.909  0.1976  0.2152 -0.2429
24146W        W40280  10.099   9.092   0.004  0.1866 -0.2873  0.1261
24147W        W40281  15.313  18.885   2.165 -0.1064  0.0689 -0.1494
24148W        W40282   7.039  16.780  14.789  0.1359  0.1642  0.0737
24149W        W40283   0.014  18.986  14.858  0.4172 -0.0662  0.1800
24150W        W40284   4.459  18.915   3.590  0.2716 -0.0802 -0.0773
24151W        W40285   9.989   5.091   0.789  0.0938  0.1216 -0.3101
24152W        W40286  12.759   4.556  14.085  0.0943 -0.0281  0.0203
24153W        W40287   4.383   6.108   2.252 -0.1154 -0.0216 -0.2494
24154W        W40288   9.063   7.196  14.121  0.0182 -0.2982 -0.3024
24155W        W40289   8.953  16.705  13.714  0.1084  0.0305  0.2001
24156W        W40290   3.971  18.868  11.788  0.1685  0.2088 -0.0447
24157W        W40291  14.300  14.642  12.665  0.0899  0.0673 -0.0167
24158W        W40292   1.967   1.141   3.877 -0.0806 -0.0731 -0.0641
24159W        W40293  16.383  11.992  12.990 -0.1183  0.0232 -0.0103
24160W        W40294  14.433  18.370  14.894  0.3210 -0.2297 -0.0317
24161W        W40295  16.015  16.236  10.905 -0.0577  0.2091 -0.1263
24162W        W40296  16.730  12.889   2.856  0.1223  0.1252  0.1983
24163W        W40297   4.225  14.845  10.927  0.0160 -0.2402  0.0049
24164W        W40298  16.723   1.235   4.949 -0.0780 -0.0194 -0.2159
24165W        W40299   0.866  14.387   3.769  0.0957 -0.1761 -0.0027
24166W        W40300   2.352   9.380   1.434 -0.0602 -0.0491 -0.0831
24167W        W40301   1.980  15.741   2.477 -0.0848  0.0533 -0.2955
24168W        W40302   8.283   5.230   2.316 -0.0298 -0.0043  0.1498
24169W        W40303   6.952  16.453  10.352  0.0321 -0.3841 -0.2766
24170W        W40304   6.601   0.341  14.206 -0.1160 -0.0970 -0.2162
24171W        W40305   8.425  15.189   1.742 -0.0472 -0.3950  0.2663
24172W        W40306   7.444   2.790   5.427  0.0096  0.1981 -0.0765
24173W        W40307  12.652   6.324  12.446 -0.3649  0.2366  0.0877
24174W        W40308  11.004   7.279   3.634 -0.1187  0.0755 -0.1146
24175W        W40309  14.636  10.876  14.278  0.1221 -0.0921 -0.1370
24176W        W40310  13.252   8.537   0.800  0.3833 -0.2283 -0.0584
24177W        W40311  15.743   5.564   3.443  0.0159  0.1333 -0.0095
24178W        W40312   6.647  14.127   1.906  0.0796 -0.0240  0.0546
24179W        W40313   8.692   0.969   3.837 -0.0837  0.0408  0.1604
24180W        W40314   5.027   0.399  11.426  0.2449  0.2330 -0.0215
24181W        W40315   6.873   3.356   0.809  0.1530 -0.0632 -0.1462
24182W        W40316   4.035  14.154  15.273  0.0281 -0.2676 -0.1788
24183W        W40317   8.226   6.632   2.547 -0.4435 -0.1683  0.0621
24184W        W40318  10.548   9.927   2.352 -0.1130  0.0327 -0.0680
24185W        W40319  16.326   7.651   4.022  0.0414  0.4292  0.2621
24186W        W40320   2.656   4.709  13.760 -0.1389 -0.1029 -0.0175
24187W        W40321  12.900   5.272  14.500  0.2768  0.0857 -0.0239
24188W        W40322   1.232  17.085   0.022 -0.2038  0.0816 -0.0896
24189W        W40323  18.665   6.815   4.462  0.0952  0.2339 -0.1876
24190W        W40324  12.293   8.380  12.060 -0.1552 -0.3406 -0.1798
24191W        W40325  13.293   2.370  12.300  0.0129  0.0469  0.0384
24192W        W40326   6.062   3.470  12.719  0.1847 -0.0884 -0.0056
24193W        W40327   8.132  14.215   3.967  0.0945  0.0517 -0.1794
24194W        W40328  16.136  17.491   0.865 -0.1083 -0.2746 -0.1056
24195W        W40329  16.521  15.754   3.110 -0.0119  0.2321  0.1977
24196W        W40330  14.171  11.745   2.231  0.2944 -0.0556 -0.1619
24197W        W40331   1.992   3.408   1.281  0.4145  0.0414  0.0402
24198W        W40332  17.635  18.241  13.148 -0.0194  0.1599  0.0411
24199W        W40333  17.607  13.778   2.572 -0.1970  0.3487 -0.0841
24200W        W40334  15.612   3.144   4.609 -0.2612  0.1531  0.2575
24201W        W40335   9.630   7.170   1.584  0.1125 -0.2687  0.3056
24202W        W40336   8.351  15.416  11.196 -0.2838 -0.1374  0.2711
24203W        W40337  15.298  17.298  14.547  0.0840 -0.4323 -0.3651
24204W        W40338  18.848  16.193  11.181  0.2724  0.0147 -0.1082
24205W        W40339  15.667   7.122   1.688 -0.0959 -0.1972 -0.3615
24206W        W40340   3.348  10.531  11.499  0.1903 -0.1770  0.3934
24207W        W40341  13.695  12.457  14.000  0.2068 -0.1520 -0.0262
24208W        W40342  11.943   5.695   2.800 -0.0803 -0.0423 -0.0680
24209W        W40343   5.148  11.212   0.512 -0.0691 -0.0551 -0.1616
24210W        W40344  13.978   6.851  14.959 -0.0349 -0.1698 -0.1954
24211W        W40345   9.493  18.822   4.832  0.0420  0.3861  0.3008
24212W        W40346  10.384  12.687   2.851 -0.1141  0.0704  0.1986
24213W        W40347   7.520  11.833   0.354  0.1931  0.0597 -0.1782
24214W        W40348   2.276  14.997  14.163 -0.0064  0.0705  0.2178
24215W        W40349  10.071  18.451   3.441 -0.0375 -0.2594 -0.0545
24216W        W40350   1.157  13.817   0.947  0.0244 -0.1093  0.0246
24217W        W40351  13.492   0.747   0.348 -0.3315 -0.0864  0.2558
24218W        W40352  13.622   2.049   3.386  0.3942  0.2404 -0.1862
24219W        W40353  13.773  11.730  13.272  0.1104  0.0005  0.1190
24220W        W40354  10.021   2.967  13.804  0.0656  0.2321  0.0263
24221W        W40355   1.406  12.513   5.126 -0.0364  0.2216 -0.3350
24222W        W40356   5.814   1.555  12.685 -0.1507  0.0101 -0.0058
24223W        W40357   1.997   0.518   5.344 -0.0111  0.0837 -0.0677
24224W        W40358   4.867   8.501  13.285  0.2716 -0.0802 -0.0650
24225W        W40359   6.491   2.065  13.693  0.1980 -0.1760 -0.1576
24226W        W40360   1.498   5.656   3.629  0.3801 -0.1587  0.0068
24227W        W40361   1.263  14.785  12.884 -0.1382 -0.0056 -0.1584
24228W        W40362  15.537   7.550  12.174 -0.3166  0.1396 -0.1580
24229W        W40363  10.028   7.647  11.439  0.1746 -0.2089  0.1900
24230W        W40364  18.703  15.546   6.124  0.0062 -0.1899 -0.2812
24231W        W40365   3.104   4.305  13.693 -0.1070  0.0575 -0.5818
24232W        W40366  12.342  10.381  11.950  0.0372  0.1994  0.1335
24233W        W40367   9.180  18.968   2.505  0.6697  0.0416  0.1240
24234W        W40368  14.427  11.718  10.432 -0.4797  0.0325  0.4361
24235W        W40369   9.580  11.197   3.666 -0.1218 -0.0888  0.0875
24236W        W40370  17.724   4.781  14.912  0.3432  0.0335  0.0969
24237W        W40371  11.588   0.305  15.080  0.1592 -0.1729  0.3139
24238W        W40372  10.160   6.394   4.282  0.1592 -0.0025  0.2544
24239W        W40373  15.874   0.552   0.908  0.3320 -0.0200  0.2447
24240W        W40374   8.924   8.046   4.209 -0.1890  0.3291  0.5528
24241W        W40375   7.828   9.483   3.526  0.0274  0.1274  0.1886
24242W        W40376  11.667   3.760   5.203 -0.0889 -0.1259 -0.0947
24243W        W40377   2.822   7.105  14.851 -0.0127  0.0140 -0.0003
24244W        W40378   2.967   4.912  10.099 -0.1507 -0.1096  0.1829
24245W        W40379  11.061  16.225  11.999  0.1460 -0.2660 -0.3727
24246W        W40380  16.782  11.233   9.588 -0.0007  0.4333 -0.1860
24247W        W40381   7.567  14.574  13.785  0.0742 -0.0358 -0.0688
24248W        W40382   8.390   7.841  15.065 -0.5176 -0.1488  0.3759
24249W        W40383   2.007  17.164   3.643  0.0411 -0.0996 -0.1176
24250W        W40384   1.380   5.868   4.033 -0.0843  0.3346  0.2698
24251W        W40385   5.352  14.172  14.464  0.3881  0.0582  0.2611
24252W        W40386  16.370  14.083  15.085 -0.1093 -0.0443  0.1083
24253W        W40387  15.141   8.109   1.187 -0.2813  0.2197 -0.2521
24254W        W40388   2.988  12.178  14.780 -0.2542  0.1509  0.2137
24255W        W40389   0.762   3.909   5.262  0.0193  0.3146  0.2261
24256W        W40390   0.893  14.662   1.610 -0.0084  0.0791  0.1397
24257W        W40391   1.432  13.989   2.455  0.4901  0.0741 -0.2159
24258W        W40392   7.639   5.473   3.853 -0.1928 -0.1007 -0.1006
24259W        W40393  12.401   0.665  12.235 -0.0351  0.2309 -0.3901
24260W        W40394   4.532   5.997  14.136 -0.0764  0.1804 -0.0675
24261W        W40395  18.794   7.842   2.944  0.0294 -0.0108  0.1492
24262W        W40396   9.769   8.487  12.164  0.0090  0.1486 -0.1103
24263W        W40397   5.404  16.044   0.197  0.1554  0.0856 -0.2733
24264W        W40398  18.747   4.469  12.406  0.0840 -0.1909  0.3488
24265W        W40399   0.794   4.844  12.641  0.1004 -0.0325 -0.0960
24266W        W40400  17.496   6.147   4.144  0.0270  0.2218 -0.2063
24267W        W40401  13.745   7.477  14.028  0.0407  0.1812  0.1991
24268W        W40402   2.107   5.266   2.977 -0.1442 -0.0141  0.2449
24269W        W40403  11.404  18.929  11.196  0.0651 -0.0615  0.0103
24270W        W40404   7.040   0.487  15.191 -0.1442  0.0841  0.0541
24271W        W40405   0.082  16.055  12.071  0.0277 -0.1178  0.2937
24272W        W40406   5.084  10.066   3.686 -0.1791 -0.0682 -0.0648
24273W        W40407  11.387  16.486   0.244 -0.1308 -0.0212  0.1761
24274W        W40408   1.834  15.036   3.114  0.0293  0.3975 -0.1651
24275W        W40409   6.685   5.834   5.811 -0.0934  0.3001  0.0714
24276W        W40410   8.894   0.649   4.761 -0.0047  0.1725 -0.3509
24277W        W40411   1.838  15.692  15.222 -0.0207  0.0385  0.1753
24278W        W40412   4.577   3.354   1.482 -0.0923  0.0256  0.5251
24279W        W40413   7.149  18.183   0.645 -0.0168 -0.0213  0.0414
24280W        W40414   2.753   6.595  13.070 -0.1869  0.0416 -0.0229
24281W        W40415   6.916   5.788  11.843 -0.4934  0.0720 -0.1222
24282W        W40416   2.079   9.561  11.524  0.2968 -0.3442  0.0347
24283W        W40417  14.219  17.152   5.571  0.0035 -0.0760  0.0159
24284W        W40418   4.592   9.869   3.011  0.0890 -0.0965  0.3878
24285W        W40419   4.981  11.223  11.746  0.3275 -0.0471 -0.4837
24286W        W40420  10.879   0.100   1.568  0.0945  0.0120  0.0543
24287W        W40421   2.249  16.251  10.792  0.1776 -0.0353  0.0825
24288W        W40422  15.091  11.176   0.693  0.1175  0.1557  0.0929
24289W        W40423  18.090   2.089  14.808  0.0235 -0.2874  0.2657
24290W        W40424  12.803  10.039   0.800  0.1780  0.0193  0.1985
24291W        W40425  17.570   6.517  10.972  0.0616 -0.1411 -0.1014
24292W        W40426  17.371  11.609   3.440 -0.2262 -0.0487  0.0049
24293W        W40427  12.664  14.300  10.655 -0.0906  0.0261  0.0047
24294W        W40428   3.845   0.660  14.710 -0.2114 -0.1721 -0.0431
24295W        W40429   6.238   2.090   2.677 -0.3137  0.6460 -0.3712
24296W        W40430   8.458   9.589   0.770  0.1819  0.2667 -0.1415
24297W        W40431  10.332   1.705   1.809 -0.2345 -0.0009  0.2484
24298W        W40432   3.129   7.487  12.757 -0.1069 -0.2593  0.0578
24299W        W40433   3.034   5.537   1.653 -0.0965 -0.0482  0.2438
24300W        W40434   7.295  16.596  10.765  0.3149 -0.2296 -0.2071
24301W        W40435   2.319  11.966   0.304 -0.2500 -0.0738  0.0235
24302W        W40436   8.701  17.721  13.721  0.2107 -0.0965  0.0858
24303W        W40437   2.175  14.806   1.390 -0.0948  0.0739  0.0439
24304W        W40438  17.239   2.640  14.757  0.0198  0.2388  0.0970
24305W        W40439   3.942  13.666   5.899 -0.0570 -0.3766  0.4391
24306W        W40440  14.024   5.761  11.233  0.0785 -0.1868  0.0143
24307W        W40441  10.247  10.281   2.194  0.1033 -0.0084 -0.2093
24308W        W40442   7.534  15.953  10.529  0.1729  0.3162 -0.2181
24309W        W40443   0.857   4.039   4.731 -0.2510  0.0719  0.1920
24310W        W40444   2.600   6.340   1.074 -0.0507 -0.2046  0.0061
24311W        W40445   8.938   4.078   1.369 -0.1804 -0.3070 -0.1291
24312W        W40446  16.012  14.371   1.131  0.0749  0.2193 -0.1107
24313W        W40447   3.006  15.668  10.437  0.1523  0.1587 -0.0678
24314W        W40448  16.134  18.548   3.999 -0.2938  0.4656  0.1106
24315W        W40449  15.187  12.047   0.623  0.0502 -0.0616  0.1266
24316W        W40450   3.710  11.491   0.933  0.3443  0.1530 -0.1723
24317W        W40451  13.802   0.277  13.947 -0.0519 -0.2685  0.0721
24318W        W40452   1.234   9.992   3.040  0.3175  0.1031  0.2099
24319W        W40453   6.458   9.479  11.757  0.2294 -0.3103  0.0523
24320W        W40454  15.873   1.431  12.239  0.0337  0.2159 -0.0054
24321W        W40455  11.671  15.408  13.173  0.1423 -0.1515  0.4987
24322W        W40456  16.537   1.781   2.643 -0.0382  0.0965  0.1157
24323W        W40457  17.848  16.016  11.019 -0.0662 -0.3084  0.4840
24324W        W40458   3.595  11.213  14.793  0.2437 -0.1184  0.1019
24325W        W40459   0.337  11.499   1.514  0.0282  0.0120 -0.4614
24326W        W40460  15.811   3.174   4.089  0.5658 -0.1060 -0.1540
24327W        W40461   6.341  11.591   5.171  0.0938 -0.0760  0.1077
24328W        W40462  11.728  11.230   3.763  0.1312  0.1514 -0.1242
24329W        W40463  17.717  14.824   5.539  0.3957 -0.1485 -0.0764
24330W        W40464  17.582   9.540   5.841 -0.0774 -0.4504  0.2682
24331W        W40465  16.753  11.737  13.317 -0.2424 -0.0730 -0.2848
24332W        W40466  11.631   5.174   0.425  0.1455  0.0963 -0.0766
24333W        W40467  14.691  15.616   4.856 -0.0080 -0.1505 -0.3222
24334W        W40468   6.599   2.719  11.040 -0.1645  0.2015  0.0439
24335W        W40469   1.051  17.900  12.711 -0.5560 -0.0923 -0.2305
24336W        W40470   2.485  13.029  12.075 -0.0448 -0.0438 -0.2368
24337W        W40471   1.221  15.762  14.974 -0.1137  0.1549 -0.1051
24338W        W40472   0.884   9.968  14.781 -0.1391 -0.0997 -0.0459
24339W        W40473   0.918  14.422  12.761 -0.1411 -0.1950 -0.2194
24340W        W40474   8.533   1.209  11.695 -0.1641 -0.1474  0.0756
24341W        W40475   4.696   9.126   1.460 -0.0353  0.0381 -0.1298
24342W        W40476  11.835  12.195   3.920 -0.0970 -0.1031 -0.0582
24343W        W40477   4.502   9.278   5.460  0.3658  0.1115  0.1448
24344W        W40478   1.252   2.579   4.671 -0.1412  0.0063  0.0342
24345W        W40479  13.347  15.622  11.365 -0.0352  0.2598 -0.0972
24346W        W40480   7.573  13.191  15.032  0.0785  0.1062 -0.1560
24347W        W40481   4.838  14.366  14.108 -0.2361 -0.2057 -0.1585
24348W        W40482   1.561   9.541   1.086 -0.0796  0.0494  0.1396
24349W        W40483  14.416   9.224  10.689  0.0722 -0.2178 -0.1187
24350W        W40484   7.604   1.510  14.773 -0.1995  0.1649 -0.0559
24351W        W40485  15.359   2.726   2.805  0.0934  0.2614 -0.1225
24352W        W40486  12.024   2.540  13.108  0.0219  0.2485  0.0593
24353W        W40487  17.164  18.499  13.085 -0.3297  0.0835 -0.2019
24354W        W40488  17.259  11.166   3.780 -0.2236 -0.0086 -0.0011
24355W        W40489   1.289   6.889  12.154  0.1121 -0.0819  0.0865
24356W        W40490  13.076  13.834   3.208 -0.0476  0.0323 -0.2036
24357W        W40491   3.208  15.704   9.572 -0.1646 -0.1904 -0.1575
24358W        W40492   3.302  15.067  14.205 -0.1204  0.0580 -0.3351
24359W        W40493   5.244  13.996   2.917  0.1028  0.0853 -0.1312
24360W        W40494  15.619   1.071   0.181  0.3340  0.1665  0.1938
24361W        W40495  17.646   4.172  11.133 -0.1062  0.1326 -0.0307
24362W        W40496  16.365   4.566   2.974  0.0387  0.0553  0.1029
24363W        W40497   8.614  10.941  12.432  0.2012 -0.3342 -0.0712
24364W        W40498  18.004  10.442  12.880  0.0044  0.2056 -0.0344
24365W        W40499  10.893  12.924  12.463 -0.0644  0.0662  0.1615
24366W        W40500  17.264   8.053   0.433 -0.0957  0.3816 -0.0025
24367W        W40501   8.025   8.722   3.995  0.3658  0.0792 -0.3344
24368W        W40502   5.543  11.318   4.254 -0.0161 -0.3497  0.1177
24369W        W40503   0.208   1.874   4.744 -0.4079 -0.0118  0.2621
24370W        W40504  15.606   6.605  13.535 -0.0074  0.0477 -0.1943
24371W        W40505   9.129   1.009   1.170 -0.1593 -0.0095 -0.0160
24372W        W40506   8.880   5.508   0.886  0.1059  0.2988  0.1288
24373W        W40507   1.739  18.068  13.520  0.1663  0.0869  0.0871
24374W        W40508  15.461   2.931   0.805 -0.1327 -0.1200  0.0059
24375W        W40509  17.662   2.516   1.069 -0.2500 -0.0171 -0.1723
24376W        W40510   4.766   2.545   1.034 -0.3872 -0.0524  0.0701
24377W        W40511  10.304   8.206  12.903  0.0399 -0.4206 -0.0210
24378W        W40512   8.036   0.014  13.015 -0.0934 -0.0785 -0.2281
24379W        W40513  17.941   3.632  14.451  0.0094 -0.4964  0.0917
24380W        W40514   0.734  12.487  13.708 -0.0284 -0.1936  0.1496
24381W        W40515   2.764   7.985   1.863  0.0171  0.1951 -0.1267
24382W        W40516   1.587   3.257   5.859  0.2596  0.3098  0.2375
24383W        W40517   1.138  12.511   0.762  0.3429 -0.1814 -0.1452
24384W        W40518  13.367   2.020  14.172  0.0837  0.1153  0.1125
24385W        W40519   7.899   2.751  12.125 -0.1117 -0.3494 -0.2357
24386W        W40520   9.551   3.632   2.991 -0.0101  0.1418 -0.0118
24387W        W40521  16.863  15.567  12.595  0.0535 -0.0361 -0.4929
24388W        W40522   2.075   1.051   0.247 -0.3345  0.1176 -0.0387
24389W        W40523  17.630   4.038  14.431  0.1698 -0.2605  0.1516
24390W        W40524  17.698  15.487   1.164 -0.0025 -0.0954  0.0265
24391W        W40525  15.529   9.281  12.770 -0.1241  0.0478  0.2816
24392W        W40526   4.813   3.432  10.449  0.2693 -0.2201 -0.0049
24393W        W40527  18.816  10.129  11.395  0.1209 -0.2265  0.2479
24394W        W40528  18.590  17.677  12.424 -0.0337  0.0843  0.0617
24395W        W40529   9.238   6.442   1.212  0.1764 -0.0267 -0.3620
24396W        W40530  17.693  16.756   3.537  0.1276 -0.1540 -0.1502
24397W        W40531  11.953  14.182   0.582  0.3862 -0.0627  0.1690
24398W        W40532   2.651   7.321  12.524  0.1849  0.0036  0.0342
24399W        W40533  10.484  15.360  13.664  0.0304 -0.0394  0.1033
24400W        W40534   7.436  17.071   2.136 -0.3862  0.0022 -0.1567
24401W        W40535   1.567  12.348   9.764  0.0275 -0.2160 -0.3772
24402W        W40536  18.213   7.591   4.030 -0.2509  0.4550 -0.2945
24403W        W40537  15.249  17.028  10.648 -0.3306 -0.1461 -0.1988
24404W        W40538   3.078   5.560  11.770  0.0331 -0.0681  0.1758
24405W        W40539   9.784   0.540  13.957  0.0919 -0.1595 -0.0298
24406W        W40540   1.975   9.549   2.799 -0.0190 -0.0719  0.0178
24407W        W40541  18.177  17.985  12.109  0.1929  0.1277 -0.1420
24408W        W40542   4.377  14.840  11.930  0.1587 -0.1000 -0.0318
24409W        W40543   4.258  18.967  12.694  0.0410 -0.6012 -0.0841
24410W        W40544  13.487   1.354   4.678  0.1568 -0.1599  0.3997
24411W        W40545   7.477  17.371  12.886  0.1984 -0.4402  0.2548
24412W        W40546   5.824  15.443   4.654 -0.1376  0.2323  0.1933
24413W        W40547   0.062  12.837   0.914 -0.0640  0.1255 -0.1706
24414W        W40548   2.924   0.313   2.678  0.0529 -0.0807 -0.3149
24415W        W40549  18.243  13.054   1.152 -0.0195 -0.0436  0.1002
24416W        W40550   7.236   4.041   1.901  0.2376  0.0212 -0.2067
24417W        W40551   3.341  10.619   4.620 -0.0090 -0.0418 -0.0451
24418W        W40552   3.521  10.061   1.052  0.2926 -0.0558  0.0132
24419W        W40553   0.543   4.245  11.477 -0.3071 -0.0177  0.0357
24420W        W40554  16.515  10.097   2.378  0.3462  0.1545  0.0166
24421W        W40555  16.972   9.238   1.780  0.0162  0.1074  0.0610
24422W        W40556  12.980  17.341   4.294 -0.1022  0.1111  0.2109
24423W        W40557   9.982  15.100   3.744 -0.0326 -0.0718 -0.0263
24424W        W40558  15.023  17.191  12.780 -0.0361  0.1855 -0.0931
24425W        W40559   5.183   1.663  14.016  0.4556  0.2959  0.0418
24426W        W40560  12.409  16.919  12.236 -0.1183 -0.2197  0.3201
24427W        W40561  12.530  10.497  15.256  0.3309  0.0401 -0.0024
24428W        W40562  13.608   6.174   9.920  0.5400  0.0406 -0.1544
24429W        W40563  18.488   9.014   5.817  0.0999 -0.1181  0.2923
24430W        W40564   3.457   2.108   3.630  0.0200  0.2338 -0.0523
24431W        W40565  18.932  10.720  12.203  0.2524 -0.0934  0.1679
24432W        W40566   3.470  18.689   0.335 -0.2358 -0.3097  0.0678
24433W        W40567  14.930  14.131   4.012 -0.0509 -0.2299  0.2176
24434W        W40568   9.385   5.872   2.128 -0.2309  0.0255  0.2477
24435W        W40569   7.411  11.203   0.640 -0.3643 -0.0459 -0.0461
24436W        W40570   1.540   9.158  14.158  0.2233 -0.2288  0.2350
24437W        W40571  14.422  16.475  10.201  0.1346 -0.1932 -0.2503
24438W        W40572   5.881   3.579  13.293  0.0122 -0.0420  0.0026
24439W        W40573  17.671  13.803   4.002  0.2556  0.2409 -0.3234
24440W        W40574   5.468  15.025   0.291 -0.0571  0.0603  0.0652
24441W        W40575   9.378   1.043   2.982  0.1022  0.2925  0.1372
24442W        W40576   9.289  16.263  14.198  0.1460 -0.3204 -0.2517
24443W        W40577  10.776   5.878  12.025  0.0252  0.4078  0.0478
24444W        W40578   4.039  17.031  10.800 -0.0576 -0.0785 -0.0399
24445W        W40579  11.599  14.972  12.964  0.3670 -0.0220  0.1563
24446W        W40580  10.104  17.381  14.241 -0.0078 -0.0854 -0.0809
24447W        W40581   1.536   6.565   3.388 -0.0562  0.1548 -0.0838
24448W        W40582  17.260  16.931   5.060  0.0783  0.2763 -0.1790
24449W        W40583  11.632  13.836  12.842  0.0063 -0.2767  0.1985
24450W        W40584  18.931  11.196   4.401  0.1841  0.0635 -0.2882
24451W        W40585   9.619   5.447   0.806  0.0412  0.0319  0.2870
24452W        W40586   7.741   5.377   1.371  0.1735  0.0595 -0.2171
24453W        W40587  16.871  17.505   0.026 -0.0338  0.1100 -0.0007
24454W        W40588   8.767  17.472  11.549 -0.0802 -0.0567  0.0932
24455W        W40589  14.422   7.064   0.121 -0.1970  0.1390  0.4109
24456W        W40590  18.627  15.334  15.214  0.1428 -0.2963  0.0243
24457W        W40591   4.964   6.559   4.515  0.0793  0.3855  0.2213
24458W        W40592  11.803  11.790  10.430  0.0631  0.0321 -0.2364
24459W        W40593  14.601   5.377   5.609 -0.0147 -0.0990  0.0454
24460W        W40594   8.212   8.411   5.210 -0.5075  0.0415  0.0404
24461W        W40595  14.423  17.111  13.555  0.0508  0.3163 -0.1128
24462W        W40596   2.997  12.824  12.174 -0.1157 -0.2553  0.1678
24463W        W40597  15.291  10.602   0.006 -0.2940  0.2076 -0.1306
24464W        W40598  11.990   5.364   3.540 -0.1188 -0.2396 -0.2006
24465W        W40599   5.891  12.396   5.610 -0.0163 -0.1438 -0.1588
24466W        W40600   9.898  10.768   1.405  0.0062 -0.2496  0.4673
24467W        W40601   9.165   0.960  15.202 -0.0043 -0.2407 -0.2134
24468W        W40602   1.822  12.975  12.825 -0.1253 -0.1076 -0.2019
24469W        W40603   6.435   6.357   3.300 -0.2404  0.2180 -0.0896
24470W        W40604  18.208   0.374   2.368  0.2136 -0.0632  0.0959
24471W        W40605   3.624  17.816  12.462  0.1715  0.2477  0.2327
24472W        W40606   9.581  12.897  11.648 -0.1500 -0.0436 -0.2131
24473W        W40607  14.706  10.513   3.528 -0.2476  0.0934  0.1617
24474W        W40608  18.760  12.733  10.817 -0.1176  0.3107  0.1432
24475W        W40609  11.102   6.980  13.085  0.0756  0.0782 -0.2946
24476W        W40610  10.192  12.810  13.345  0.2220 -0.1106  0.1818
24477W        W40611  10.483  15.068  14.129 -0.0079 -0.0824  0.0734
24478W        W40612   0.798   1.217   5.757  0.0507  0.2252  0.1612
24479W        W40613   2.333   5.694   3.821 -0.0210 -0.1312 -0.0404
24480W        W40614  11.472  18.865   2.552 -0.2395  0.2427 -0.0136
24481W        W40615   3.590  16.857  12.982 -0.0841 -0.3279 -0.0540
24482W        W40616   7.662   2.834   3.159 -0.0767 -0.2001 -0.0042
24483W        W40617   4.148  12.317  15.109  0.1384 -0.1035 -0.4248
24484W        W40618  13.686   9.814  11.502 -0.4057  0.1403 -0.0991
24485W        W40619  16.062   9.897   2.681  0.2920 -0.1243  0.1068
24486W        W40620   5.117  17.621   1.689  0.2325 -0.2562  0.0742
24487W        W40621   5.487   6.447   3.885 -0.0364 -0.1632  0.1159
24488W        W40622   3.779   9.495  12.130  0.2514  0.0518  0.3426
24489W        W40623   2.894  17.351  11.446  0.1061 -0.2069  0.1491
24490W        W40624  18.584   0.823  11.639  0.4446 -0.0610 -0.0151
24491W        W40625   1.578   4.727   5.786  0.3598 -0.1882 -0.1531
24492W        W40626  17.116   6.405   3.256  0.0281 -0.2510  0.1047
24493W        W40627  12.894  15.964   3.982  0.4349  0.2029  0.1849
24494W        W40628   7.011   6.101  12.677  0.0750 -0.1762  0.1606
24495W        W40629  14.698   9.759   0.352 -0.1041 -0.0303 -0.3222
24496W        W40630  10.251   0.011  14.880  0.2625 -0.1903 -0.1422
24497W        W40631  12.951  13.904   3.717 -0.0539 -0.0648 -0.1700
24498W        W40632  15.826   5.010   1.388 -0.0340 -0.0602 -0.1246
24499W        W40633   7.146  12.868   1.756 -0.2781  0.3345  0.0676
24500W        W40634   3.173   5.364  13.286 -0.1848  0.1252 -0.0109
24501W        W40635   6.079  15.040  14.097 -0.1255  0.0173 -0.3800
24502W        W40636  18.404   2.352   4.431 -0.2157  0.1254  0.0377
24503W        W40637   5.042  15.177   3.403 -0.0283  0.1094 -0.1713
24504W        W40638   2.647  16.411   4.166 -0.1093 -0.0303  0.1033
24505W        W40639  17.065   4.810   2.436  0.0057 -0.0317 -0.2334
24506W        W40640   1.748  17.191  14.892 -0.0490  0.0545  0.1801
24507W        W40641   0.377   2.750   4.338  0.2341 -0.0568  0.3262
24508W        W40642  11.425  13.399  13.014 -0.1540 -0.0345  0.3245
24509W        W40643   5.984   7.725   2.369 -0.0217  0.1666 -0.0383
24510W        W40644   8.028   4.279  15.131  0.0583 -0.1483 -0.0962
24511W        W40645  17.845   7.508  14.459  0.1561  0.1399  0.3860
24512W        W40646  11.428  18.980   3.087  0.1716 -0.0831 -0.2410
24513W        W40647  18.335  16.122  11.003  0.0493 -0.2529  0.0263
24514W        W40648  15.638  15.264   4.880  0.1475 -0.3860 -0.0265
24515W        W40649  18.264   7.550  10.766  0.1009  0.1449 -0.0747
24516W        W40650  13.392  11.972  13.856 -0.0977  0.0353 -0.0656
24517W        W40651  11.253   0.458  13.790 -0.2235 -0.1433 -0.1436
24518W        W40652   9.078  13.860   2.419 -0.1244 -0.3679  0.3612
24519W        W40653   7.897   5.496  12.945 -0.0258  0.1887 -0.2998
24520W        W40654   2.363   5.973  13.081 -0.1604 -0.0117  0.1672
24521W        W40655  15.671   8.537   3.473 -0.1815  0.2249 -0.0182
24522W        W40656   2.949   4.331   2.329 -0.2063 -0.0154 -0.0600
24523W        W40657   3.910  17.064  13.953 -0.0628  0.0473 -0.0796
24524W        W40658   6.419   9.732  12.176  0.2718 -0.0555  0.0647
24525W        W40659  11.466   9.903   0.695 -0.0877  0.4368  0.1858
24526W        W40660   3.695   0.722   3.069  0.3663  0.5551 -0.1614
24527W        W40661   8.596  11.845  13.364  0.0542  0.1577 -0.1235
24528W        W40662  11.523  15.650   0.832 -0.3642 -0.1466 -0.0538
24529W        W40663  14.539   5.583   0.073  0.0989  0.5940  0.2258
24530W        W40664   9.162  15.238   0.141  0.0904 -0.0495  0.3563
24531W        W40665   7.555   1.074   4.968  0.1117 -0.0309  0.4607
24532W        W40666   1.750  18.446   0.983 -0.2259 -0.2600  0.4331
24533W        W40667   5.325   7.656  14.823 -0.1334 -0.1901 -0.0373
24534W        W40668   4.159   8.769   3.694 -0.2807  0.1710 -0.1034
24535W        W40669  12.300   4.912  13.160  0.2997  0.0887  0.0629
24536W        W40670   1.052   9.047   4.632 -0.1654  0.0324  0.4130
24537W        W40671   7.802   9.034  12.144 -0.0830  0.2337  0.0115
24538W        W40672  18.141  18.647  11.467  0.2092  0.0873  0.2755
24539W        W40673   6.645  14.425  14.441  0.1950  0.0802  0.1813
24540W        W40674  17.208  12.267  10.516  0.0213 -0.0220  0.0831
24541W        W40675  17.694  10.388   1.004 -0.1485  0.0517  0.0340
24542W        W40676   1.996  17.065  12.772  0.0938  0.3099 -0.2926
24543W        W40677   6.924   6.433  10.382 -0.2816  0.1221 -0.1750
24544W        W40678  12.570  14.004   3.333  0.0605  0.0107  0.0851
24545W        W40679   4.751   7.129  13.414  0.2409  0.0366 -0.0185
24546W        W40680  18.884   0.229  12.801  0.0484 -0.0076  0.0498
24547W        W40681  13.712   4.423  14.135  0.0120 -0.0712 -0.0655
24548W        W40682  14.528  13.042   0.431  0.2667  0.2182  0.0906
24549W        W40683   8.494  14.662   2.626 -0.2191 -0.2853  0.1555
24550W        W40684   0.016  11.850   3.041  0.0331 -0.1410 -0.0042
24551W        W40685   3.250  15.476  11.217 -0.1821 -0.0553 -0.3824
24552W        W40686   9.122   3.689   0.417 -0.0801  0.2609 -0.1277
24553W        W40687   3.722  10.630  14.573 -0.2427  0.0360 -0.0423
24554W        W40688  13.345  17.043  12.049  0.0453 -0.1356  0.0979
24555W        W40689   3.833  13.872   1.784  0.0372  0.3315 -0.0470
24556W        W40690  16.981   2.699   1.680 -0.1096 -0.3113 -0.1747
24557W        W40691   9.514   7.420  14.217  0.2410 -0.1253 -0.0117
24558W        W40692   7.767   6.409   1.465  0.0526 -0.0606  0.2177
24559W        W40693  18.973   3.591  14.544  0.0044  0.3874 -0.0273
24560W        W40694   4.052   2.120  12.767 -0.1434  0.0596 -0.0761
24561W        W40695   8.412  18.889  11.538 -0.3791  0.0572  0.0342
24562W        W40696   8.932   7.999  13.857 -0.2314  0.0204 -0.1102
24563W        W40697  11.669  10.322   2.956  0.4548  0.1358 -0.0979
24564W        W40698  16.147  13.626   4.162 -0.3032 -0.1746 -0.1558
24565W        W40699  10.261  11.626  11.779 -0.1125  0.1039  0.1751
24566W        W40700   4.495   4.251  14.070  0.4012  0.1801 -0.2733
24567W        W40701  17.599   5.214  14.617  0.1123  0.0520  0.1080
24568W        W40702   4.434  10.915   1.096 -0.0860 -0.3254 -0.2944
24569W        W40703  17.042   7.742  10.129  0.2469  0.0678 -0.0977
24570W        W40704  13.453  13.484  10.904  0.2362 -0.0847 -0.0980
24571W        W40705  18.621  17.463   0.843 -0.1391  0.0298  0.0756
24572W        W40706   6.461   1.461   4.431  0.0719  0.2892 -0.0704
24573W        W40707   4.933   9.434   3.336  0.1193  0.0717 -0.0111
24574W        W40708  13.990  15.361  12.146  0.2080  0.2293  0.1344
24575W        W40709  18.175  16.459   4.013  0.0427 -0.1186 -0.1426
24576W        W40710  16.115   7.546   4.613  0.0999 -0.3282  0.1940
24577W        W40711  18.531  15.305   1.571 -0.2409 -0.0258  0.2072
24578W        W40712  15.944   9.121  10.941 -0.2297  0.2552 -0.1403
24579W        W40713  13.672   0.565  11.931 -0.1713  0.1082 -0.1949
24580W        W40714   0.907   4.954  14.926 -0.0849 -0.1769  0.0219
24581W        W40715   9.319   1.638   3.228  0.1259 -0.0772  0.0556
24582W        W40716  12.761   1.985   0.378 -0.0591  0.0509  0.0119
24583W        W40717  11.331  16.754   3.384 -0.1891 -0.0608  0.1733
24584W        W40718  16.807   2.779  14.557 -0.0233  0.0476 -0.1263
24585W        W40719  16.051   1.336   0.492  0.0916  0.1003 -0.1312
24586W        W40720  15.333   6.777   1.908  0.1672  0.3550  0.0491
24587W        W40721   1.665   5.708  11.912  0.0629  0.2305  0.1689
24588W        W40722   4.461  16.106  11.758  0.1049  0.2167  0.4208
24589W        W40723  13.915  11.858  12.804  0.0407  0.2837  0.0745
24590W        W40724  15.832  11.639   1.541 -0.4582 -0.1804 -0.1141
24591W        W40725  15.237   0.364  12.708  0.2566  0.0917  0.0204
24592W        W40726  17.250  16.815  10.990  0.4301  0.2318  0.0684
24593W        W40727   6.291   7.402   5.112 -0.1284 -0.3219  0.2911
24594W        W40728  16.060  17.191   1.294 -0.0654 -0.1186  0.1796
24595W        W40729   4.603  16.339  11.350 -0.2593  0.0008  0.1255
24596W        W40730  14.347   4.466  13.643 -0.1358 -0.2618  0.1899
24597W        W40731  18.667   6.984   2.335  0.1399  0.1472 -0.4482
24598W        W40732  18.852   6.591  13.465 -0.0353 -0.0689 -0.4255
24599W        W40733  17.259  10.048  15.267  0.0976  0.0593 -0.0121
24600W        W40734  17.301  12.624  13.476 -0.1760 -0.0158 -0.3110
24601W        W40735  18.844  10.303  10.963 -0.1182 -0.1157 -0.3120
24602W        W40736   1.304   1.506   1.609  0.4881 -0.1315  0.0684
24603W        W40737  11.331  12.971   4.453 -0.0728 -0.0386  0.2300
24604W        W40738  11.553  18.115   1.667 -0.0318  0.0752  0.2452
24605W        W40739  14.356  16.699   5.042  0.0122 -0.2997  0.4292
24606W        W40740   3.883   1.736   3.925  0.1321  0.0748  0.4130
24607W        W40741   5.242   8.646   2.955  0.1174  0.1759 -0.0962
24608W        W40742   9.510  14.995  11.247  0.0334 -0.0818  0.3774
24609W        W40743   6.314  10.056   0.871 -0.0482 -0.0012  0.2833
24610W        W40744  12.288  18.036  12.584  0.1515 -0.0715 -0.1266
24611W        W40745  11.628   2.260  14.730 -0.0959  0.1916 -0.0370
24612W        W40746  11.100   6.106   4.957 -0.2305  0.0383  0.0809
24613W        W40747   9.562   3.468   5.259  0.1059  0.1550  0.0208
24614W        W40748   0.055   9.101   2.628 -0.0441  0.2525 -0.1143
24615W        W40749  11.576  12.018   4.391 -0.2180  0.1247  0.3110
24616W        W40750   2.423  15.561  11.540 -0.1651 -0.1582  0.1770
24617W        W40751   7.628  12.627  13.271 -0.1289  0.0813 -0.1014
24618W        W40752  14.563  12.555  11.911 -0.1353 -0.3393 -0.0930
24619W        W40753   0.492   8.088   0.978 -0.2731 -0.0047  0.2608
24620W        W40754   9.697  15.359  12.930 -0.2276 -0.0312 -0.0484
24621W        W40755  16.010   3.907   4.323 -0.1083 -0.0639 -0.1504
24622W        W40756   0.940  17.977   3.730  0.0293 -0.3645  0.4321
24623W        W40757   8.107  13.578  10.689 -0.2482  0.0923 -0.0265
24624W        W40758  17.108   1.780  12.298  0.0607  0.0567 -0.0913
24625W        W40759   0.223  10.520   1.461 -0.1180  0.0209  0.1260
24626W        W40760   8.075   1.511  14.174  0.0939 -0.1757  0.2108
24627W        W40761  13.231   4.305  14.383 -0.1429  0.2666  0.0734
24628W        W40762  18.793  18.429   4.260 -0.6480  0.2538  0.1354
24629W        W40763  18.437  17.464  11.793 -0.0585  0.3348 -0.0005
24630W        W40764  16.527  10.034  11.806 -0.1797 -0.2550 -0.0847
24631W        W40765  18.867   6.508  14.002  0.1912  0.0094 -0.0580
24632W        W40766   0.188  18.406   2.453 -0.0178  0.0826 -0.1821
24633W        W40767  17.344   4.295   1.250  0.3335  0.0312 -0.1880
24634W        W40768  15.842   6.648   0.047 -0.0290  0.2864 -0.2980
24635W        W40769   8.766   6.982   3.780 -0.1942 -0.1225 -0.1020
24636W        W40770   4.961  10.779   4.329 -0.1671 -0.0374  0.0623
24637W        W40771  13.232   6.436   3.210 -0.3074 -0.0581 -0.3340
24638W        W40772  14.591  15.002   3.687 -0.2980 -0.1921  0.0458
24639W        W40773  10.103   3.658   3.123  0.3088  0.2017 -0.0849
24640W        W40774   9.699  14.737   1.591  0.0399  0.0090  0.1921
24641W        W40775  18.413  12.458  12.644  0.1082 -0.0751  0.1653
24642W        W40776   2.729   5.002   1.840  0.2513  0.1955 -0.1782
24643W        W40777   3.577   5.746  12.566 -0.0128 -0.0793  0.0385
24644W        W40778  12.380  12.104  13.005 -0.2870  0.1596 -0.1517
24645W        W40779  16.470  16.564  12.924 -0.3692 -0.3578  0.0411
24646W        W40780   3.125  11.409  14.941  0.0058 -0.3556 -0.0955
24647W        W40781  17.459   3.142  14.897  0.0777  0.1805 -0.1340
24648W        W40782   2.089   4.989   4.763 -0.0781  0.0285  0.1893
24649W        W40783  11.861  18.608   0.137 -0.1839 -0.2055  0.2046
24650W        W40784   8.315   8.404  10.656  0.2074 -0.2254 -0.0793
24651W        W40785   6.238   7.295  10.669 -0.1071 -0.2303 -0.0181
24652W        W40786   8.613  16.315   0.786 -0.0408 -0.1207  0.2235
24653W        W40787  12.137  10.831   9.633  0.1175  0.2015  0.0115
24654W        W40788   0.313   4.320  11.037 -0.1030  0.2814 -0.0716
24655W        W40789   6.988  13.519   0.375 -0.0628 -0.3946 -0.3124
24656W        W40790  14.043   8.582  14.750  0.0536  0.0159  0.0566
24657W        W40791   8.616  16.064   2.910 -0.1082  0.0567 -0.1356
24658W        W40792  16.971  10.485   3.149 -0.1230  0.0446 -0.1121
24659W        W40793   1.900   6.781   0.750 -0.0537 -0.1822  0.2976
24660W        W40794   7.164  12.052   1.084  0.3073 -0.4068  0.0693
24661W        W40795   9.035  14.367  11.876 -0.0911 -0.0026  0.2366
24662W        W40796   1.393   8.296   5.405  0.0246  0.2373 -0.0007
24663W        W40797   5.293   2.242  13.171  0.3465  0.0217  0.1695
24664W        W40798  14.986   2.828  13.289 -0.0047 -0.0272 -0.0541
24665W        W40799   1.183   8.519   1.871  0.2697  0.3181  0.1714
24666W        W40800   2.367   2.571   4.757  0.5323 -0.0619  0.0554
24667W        W40801  10.883  12.843   3.187 -0.0396  0.2862  0.1495
24668W        W40802   3.204  13.212   3.437 -0.4594 -0.0135 -0.1373
24669W        W40803   4.524   0.663  10.881 -0.4261 -0.1198  0.0186
24670W        W40804  12.116   5.754   2.281  0.1470 -0.2508 -0.5279
24671W        W40805   2.341   6.803  11.515 -0.0007  0.2915 -0.1345
24672W        W40806   3.342   9.357   0.498  0.0275 -0.0902  0.0163
24673W        W40807  15.872   3.433   3.139  0.0770  0.2410  0.0589
24674W        W40808   6.341   2.339  12.380 -0.2115  0.0862 -0.2924
24675W        W40809   0.428   9.814   2.046 -0.3884 -0.0683 -0.0234
24676W        W40810  16.129   7.958   2.590  0.1010  0.0407 -0.0211
24677W        W40811  10.919  13.957   9.513  0.3418 -0.1818  0.2654
24678W        W40812   3.295  13.105   0.692 -0.2574  0.6387  0.1124
24679W        W40813  13.576  16.713   2.567  0.1349 -0.1390 -0.0661
24680W        W40814   9.312  11.390   9.816  0.2028  0.3012  0.2440
24681W        W40815  13.388   8.505   4.426 -0.0007  0.1939 -0.3593
24682W        W40816  13.673   4.569   1.057  0.3201 -0.1433  0.0935
24683W        W40817   8.914  15.785  12.523  0.1593  0.1685  0.2196
24684W        W40818   6.445  17.435   3.080  0.1380 -0.4656 -0.1518
24685W        W40819   2.340   4.768   5.251  0.2039  0.1149  0.2171
24686W        W40820   3.931   2.872   2.620 -0.1608 -0.1818 -0.2952
24687W        W40821   2.477   7.573   1.892 -0.2304 -0.3842  0.3710
24688W        W40822   6.886   7.669   2.898  0.1199 -0.2250 -0.0385
24689W        W40823   0.374   7.691   1.490 -0.1075 -0.2678 -0.0907
24690W        W40824   3.002   9.451   2.195  0.0407  0.0970  0.0144
24691W        W40825  12.472   2.163   3.244  0.1249 -0.0916  0.0951
24692W        W40826   7.739   0.193   1.834  0.4604  0.3296  0.0936
24693W        W40827   2.239  12.252   5.172  0.2182 -0.2433 -0.0077
24694W        W40828  14.384  18.937  13.358  0.1389 -0.0828 -0.0558
24695W        W40829  16.382   1.913   1.163 -0.0261 -0.5009 -0.1581
24696W        W40830  16.453  15.919   4.058  0.0494  0.2098  0.0415
24697W        W40831  14.337  15.850  12.765  0.3780 -0.2044  0.0361
24698W        W40832   1.627   6.737  15.266 -0.2030 -0.0994  0.1687
24699W        W40833   1.974   6.607  11.101 -0.4171 -0.1413 -0.0440
24700W        W40834   2.072   6.439   4.291  0.0946 -0.0134 -0.0689
24701W        W40835   3.957   1.785  13.826  0.0449  0.2019  0.1983
24702W        W40836  11.601   6.793   1.681 -0.0503  0.4078  0.0134
24703W        W40837   2.692  13.050   1.801 -0.0724  0.0903 -0.4414
24704W        W40838   0.897  15.737  14.596  0.1155 -0.1526  0.2488
24705W        W40839  17.949  14.459  14.486 -0.0938  0.2455  0.0409
24706W        W40840   8.988   2.669  14.942  0.1202 -0.0346 -0.3693
24707W        W40841  15.142   1.143   0.974  0.2093 -0.0015 -0.1420
24708W        W40842   2.568  10.371   0.698 -0.1958  0.0867  0.2386
24709W        W40843  18.468  15.217  14.744 -0.0065 -0.1883  0.3048
24710W        W40844  18.107  18.052  13.291  0.0812 -0.1069  0.3510
24711W        W40845  12.448  10.175   3.622  0.1721 -0.1032 -0.1268
24712W        W40846   5.689  11.993   4.934 -0.0256  0.2469 -0.1953
24713W        W40847  10.531   4.328   4.520  0.0406 -0.0006  0.4104
24714W        W40848   9.390  14.256   4.828  0.1169 -0.0627 -0.1441
24715W        W40849  13.326   4.656   0.065  0.2515 -0.2321  0.0336
24716W        W40850  11.882  13.440  11.502 -0.0495  0.0451  0.1748
24717W        W40851  10.020   8.127   0.482  0.1795 -0.1763  0.2434
24718W        W40852  15.401   9.062  14.327 -0.0128  0.0352 -0.2024
24719W        W40853   4.656  17.412   3.708 -0.0442 -0.0214 -0.0066
24720W        W40854  11.923  11.485  14.605 -0.2373 -0.2497 -0.0154
24721W        W40855   3.376   9.308  13.356  0.2085 -0.0906 -0.1548
24722W        W40856  13.652   6.150  13.667 -0.1285  0.0024  0.0048
24723W        W40857  13.699   0.759   1.221 -0.0634 -0.1707 -0.0836
24724W        W40858   6.328  13.182   2.954 -0.1211  0.0174  0.2337
24725W        W40859  11.260  12.270   1.608 -0.1225  0.1580 -0.2084
24726W        W40860   1.657   0.652   2.140  0.4381  0.1570 -0.4575
24727W        W40861  15.854  13.397  14.827  0.2345  0.0102 -0.0934
24728W        W40862  16.353   6.454   5.010  0.1204  0.0564 -0.1118
24729W        W40863   8.159  16.997  13.326 -0.1334 -0.0829 -0.0415
24730W        W40864   3.984  18.697  11.288 -0.0486 -0.1489 -0.0544
24731W        W40865   3.614  15.988   4.295  0.0737  0.0367 -0.0841
24732W        W40866   3.823   8.925   1.228 -0.0140  0.0190  0.1268
24733W        W40867  14.323   9.865   0.077  0.0493 -0.3417 -0.1285
24734W        W40868  14.255   8.948  15.189  0.4363  0.2842 -0.0521
24735W        W40869  12.412  11.989  10.525 -0.0134 -0.0761 -0.0908
24736W        W40870   1.363   4.973   0.905 -0.2364  0.2183 -0.1787
24737W        W40871   7.074  18.088  15.210 -0.0023  0.2078  0.0016
24738W        W40872  15.704  10.049   4.884  0.4416  0.1591 -0.3421
24739W        W40873   9.428   0.326   5.733  0.1959 -0.3008 -0.1236
24740W        W40874   1.345  13.238  12.848 -0.4767  0.0244 -0.1164
24741W        W40875   9.378  14.753  14.085  0.0312 -0.0906 -0.0631
24742W        W40876  11.103   5.862   0.143  0.1751  0.0293  0.0504
24743W        W40877  16.585   7.935   5.260  0.1067  0.2667  0.0665
24744W        W40878   0.278   8.545   0.907 -0.0737  0.0682  0.4636
24745W        W40879   3.507  14.864  14.685 -0.2609  0.0287  0.0590
24746W        W40880   0.524  12.935   2.148 -0.0874 -0.2070  0.0299
24747W        W40881  11.209   8.501   0.416 -0.2287 -0.0867  0.0951
24748W        W40882   8.979  18.227   2.969  0.4567 -0.1857  0.2129
24749W        W40883  14.676  12.482   0.426 -0.1331  0.3668  0.2150
24750W        W40884   6.836  18.225   1.706 -0.2304  0.0985  0.0572
24751W        W40885  18.446  10.412   1.719  0.0498 -0.1284 -0.3117
24752W        W40886  13.873  13.249   4.899 -0.2284  0.2637 -0.0266
24753W        W40887  15.483   2.234  12.230  0.0937 -0.1044  0.3560
24754W        W40888   1.698   5.161   2.772  0.4232 -0.1900 -0.0300
24755W        W40889   8.590  10.258   1.532  0.0505 -0.2680 -0.0028
24756W        W40890  14.890   5.383   4.410  0.5587  0.2163  0.2257
24757W        W40891   3.299  15.423  13.200 -0.2288 -0.0474 -0.0169
24758W        W40892   4.295   6.680  12.742 -0.3096  0.0732 -0.2330
24759W        W40893   2.613  15.934  14.666 -0.1201  0.1689 -0.0136
24760W        W40894   3.123  12.588  14.392  0.2207  0.1608 -0.3016
24761W        W40895  17.465  10.008  13.000  0.1439 -0.0773  0.0169
24762W        W40896   3.978  10.109   3.997  0.2695 -0.1806 -0.0932
24763W        W40897   0.823  17.407   4.426 -0.1265  0.1088  0.0283
24764W        W40898   3.925   4.344  11.891  0.2961  0.3302  0.0891
24765W        W40899   9.594  11.629  14.606 -0.2568 -0.0465  0.2403
24766W        W40900   6.666  14.630   1.841 -0.0385 -0.1676 -0.3612
24767W        W40901  17.384  18.593   4.373  0.2469  0.0444 -0.0822
24768W        W40902  12.366  11.007   2.716  0.3993  0.0082 -0.0174
24769W        W40903   4.460   2.969   2.771 -0.1203 -0.1575 -0.4736
24770W        W40904  16.558   9.275   2.353  0.0196 -0.0027 -0.1955
24771W        W40905  13.375   7.821  10.813 -0.2240  0.3426  0.0377
24772W        W40906   0.954   6.743   5.219 -0.2423 -0.1095  0.1235
24773W        W40907  10.381   0.652  11.010  0.0886  0.0701  0.0433
24774W        W40908   4.757   1.257   2.031  0.1888 -0.1089 -0.1003
24775W        W40909  15.445   2.730   4.862 -0.1988 -0.0887  0.0865
24776W        W40910  11.573   1.704  15.193  0.1538 -0.2368 -0.3763
24777W        W40911  18.390   2.202   3.867 -0.2075  0.1812  0.0966
24778W        W40912   2.241  10.636  12.257 -0.2673 -0.0720  0.2059
24779W        W40913   2.010   4.225  11.982 -0.2782 -0.1149 -0.0315
24780W        W40914   4.307   0.507   3.310 -0.0189  0.1990  0.0536
24781W        W40915   7.868   0.921  11.405 -0.1560 -0.2125 -0.0552
24782W        W40916  10.101   1.772   3.180 -0.1464 -0.0908  0.1764
24783W        W40917   1.086  13.321  13.750 -0.2311  0.0006  0.0147
24784W        W40918   8.498  11.497  12.552 -0.2488  0.0016  0.3067
24785W        W40919  14.565  17.163   5.211  0.1398  0.4350  0.0520
24786W        W40920  16.771   5.260  11.294  0.0463  0.0547 -0.1882
24787W        W40921   0.779  12.747  11.733  0.0204  0.2052  0.0046
24788W        W40922   6.520  16.831   5.943  0.0468 -0.0471  0.0208
24789W        W40923   7.477   7.135  10.419  0.1408 -0.0863 -0.0946
24790W        W40924   9.792   6.217  12.902 -0.0112  0.3261  0.0695
24791W        W40925   8.977   3.883   3.626  0.0206  0.0258 -0.1865
24792W        W40926   5.423  10.997  11.793  0.1665  0.1041 -0.2231
24793W        W40927   1.869   5.885  13.232 -0.0731 -0.2328 -0.0193
24794W        W40928  14.019   5.319  12.193  0.0127 -0.1722  0.1324
24795W        W40929  11.896   0.333   2.473  0.0595  0.0396  0.0418
24796W        W40930  16.212   6.680  10.796 -0.1146  0.1162  0.3663
24797W        W40931  14.796   4.801  11.991  0.0877  0.2634  0.1482
24798W        W40932   4.004   0.400   4.563  0.0034  0.1107  0.0083
24799W        W40933   5.182  10.452   4.698 -0.2166 -0.0722  0.0580
24800W        W40934   4.313   4.254   0.532 -0.0907  0.0588 -0.2522
24801W        W40935   3.582   2.873  10.909 -0.0592  0.0253  0.1675
24802W        W40936   2.200   2.938   3.433 -0.2895  0.2684  0.0154
24803W        W40937   6.309   0.326   3.391 -0.1410  0.2842  0.3498
24804W        W40938  18.579  16.210   5.372  0.1156 -0.1884  0.3475
24805W        W40939   4.659  16.964   2.967 -0.2313  0.1725  0.0098
24806W        W40940  18.166   2.464   1.464  0.0376  0.0173 -0.0872
24807W        W40941   9.791  16.082  10.762  0.0048  0.3100  0.3425
24808W        W40942   4.755  12.163  13.200 -0.1200 -0.1658 -0.1119
24809W        W40943   8.963   1.849   0.120  0.0971 -0.1584  0.1831
24810W        W40944   2.515   1.657  15.113  0.2450 -0.0802  0.1402
24811W        W40945   7.324   0.564  11.041  0.0382  0.1894  0.0335
24812W        W40946  14.486  18.172  12.393 -0.2448 -0.0961 -0.1375
24813W        W40947  13.604  12.503   1.890  0.1071  0.0326 -0.1455
24814W        W40948   4.439   7.944   4.349  0.3319 -0.1875 -0.1194
24815W        W40949   1.240  11.115   2.998 -0.2680  0.1180  0.0537
24816W        W40950  15.505  10.869   0.611  0.1418 -0.0035  0.1316
24817W        W40951   6.717  11.240  14.662 -0.1751  0.2595 -0.3888
24818W        W40952  10.744  15.738   4.557 -0.0833 -0.0358  0.1656
24819W        W40953  15.035  11.434  11.131  0.6130  0.2106 -0.1214
24820W        W40954  15.698  13.097   1.627 -0.2608  0.1814  0.3016
24821W        W40955  14.917  14.787   1.393  0.0569  0.1077 -0.0387
24822W        W40956  18.544   2.341   1.849  0.0533 -0.0358  0.0105
24823W        W40957  10.513   0.899   0.505  0.0852  0.4568  0.0328
24824W        W40958   4.942   2.656   0.393 -0.1958  0.3514  0.0192
24825W        W40959  13.756   4.773  10.086 -0.4502  0.0168  0.0841
24826W        W40960   5.990   9.975   2.059 -0.2314 -0.1478 -0.1521
24827W        W40961  15.051   7.670  13.130  0.0507  0.0144 -0.0194
24828W        W40962  16.197   4.000  11.449 -0.1843 -0.1232 -0.0802
24829W        W40963   2.174  12.408   1.023 -0.1426  0.2110 -0.0603
24830W        W40964  14.824  18.876   1.188 -0.1992  0.0531  0.1054
24831W        W40965   0.843  13.645  10.138 -0.0440  0.1911  0.0204
24832W        W40966  14.564  14.212  13.278  0.1503  0.0626  0.1388
24833W        W40967   1.615  12.240  14.715  0.0846  0.1422  0.0776
24834W        W40968  18.758   5.730   0.864 -0.1381 -0.0124 -0.2761
24835W        W40969   8.901   5.820  11.005  0.0289  0.2644 -0.0937
24836W        W40970  17.639   8.203  12.763 -0.0169 -0.0457 -0.1160
24837W        W40971   8.854   7.079  10.317  0.0924  0.1257 -0.0672
24838W        W40972  13.733  16.729  14.867  0.0133  0.1224 -0.0632
24839W        W40973   0.976   5.930  13.455 -0.0152  0.0493  0.1842
24840W        W40974   7.147  10.736   1.299  0.1246 -0.1341 -0.2059
24841W        W40975  16.594  19.007  15.256  0.3278 -0.0913 -0.1383
24842W        W40976  13.397  12.982   3.155  0.0026  0.0790  0.0205
24843W        W40977   2.665  16.286   2.630 -0.2826 -0.3454  0.0573
24844W        W40978  11.247   6.268   2.377  0.1746  0.0344  0.0285
24845W        W40979  17.903   1.507   2.286 -0.3870  0.2330  0.0738
24846W        W40980   6.533   4.786  11.957  0.3830 -0.1350  0.1555
24847W        W40981  18.422   8.969   3.507  0.2814  0.3623  0.2304
24848W        W40982  12.053   9.193  14.869 -0.2360 -0.2327  0.2072
24849W        W40983  17.770   8.891  13.248  0.0549 -0.1238  0.2572
24850W        W40984  18.134  14.866  14.679  0.0777 -0.1210 -0.0670
24851W        W40985   1.037  15.254  11.870  0.1284  0.4597 -0.2347
24852W        W40986   8.305   2.046   5.144  0.0130  0.1618  0.0074
24853W        W40987  13.805   2.936  13.911  0.1254  0.0151  0.0901
24854W        W40988   5.614   3.525   1.796 -0.0465  0.0657  0.1789
24855W        W40989   4.242  18.420   2.275  0.1801  0.2286 -0.0418
24856W        W40990  10.610  16.419  10.641  0.1344 -0.0276  0.0149
24857W        W40991   9.863   6.390  13.382 -0.0062 -0.0244 -0.0605
24858W        W40992  18.762  18.678  12.413 -0.0338 -0.1093 -0.0615
24859W        W40993  16.850   8.459   3.444  0.0486 -0.2128 -0.2759
24860W        W40994  11.439  13.076  10.496 -0.0210 -0.1373  0.0529
24861W        W40995  12.336  16.431   3.507  0.1724 -0.1104 -0.2262
24862W        W40996   1.992  17.352  11.501  0.3043 -0.1854 -0.0610
24863W        W40997   5.733   7.389  14.824 -0.1363  0.0783 -0.3438
24864W        W40998  11.967   5.898   1.784  0.0835 -0.0257  0.0426
24865W        W40999   0.966   1.182  10.689 -0.0889 -0.0328 -0.0260
24866W        W41000   9.164   2.385  11.802 -0.0638 -0.0056  0.0036
24867W        W41001   1.767  17.579   1.833  0.0702  0.1783 -0.0934
24868W        W41002  17.618   5.437   0.331 -0.3630  0.0918  0.1735
24869W        W41003  10.328   9.774  11.829 -0.1751  0.5138 -0.1886
24870W        W41004   2.541   9.990  13.426  0.2840  0.1496 -0.0502
24871W        W41005  14.870  15.500   3.532 -0.1091  0.1060 -0.2872
24872W        W41006   8.710  17.953  12.082  0.2951  0.1576 -0.2029
24873W        W41007  14.163   2.055   5.033  0.3497  0.0916 -0.0983
24874W        W41008   1.722   3.260   4.545 -0.0320 -0.1671  0.0020
24875W        W41009   7.848  14.904   4.325 -0.1242 -0.2603 -0.1733
24876W        W41010  15.792   3.600   4.818 -0.0265  0.0135  0.1618
24877W        W41011   0.981   5.018  14.290  0.3618  0.0593  0.0842
24878W        W41012  18.269   6.045  12.203 -0.2345 -0.0437 -0.0496
24879W        W41013  10.337  11.317  13.084  0.0381  0.0286 -0.1526
24880W        W41014   5.697   7.693   4.445  0.2395  0.0892 -0.0431
24881W        W41015   9.183  12.635  13.154  0.0403 -0.0381  0.0688
24882W        W41016   6.432  10.972  12.716  0.0209 -0.1418  0.3582
24883W        W41017  13.819   0.760  13.038  0.1557 -0.2858 -0.0936
24884W        W41018  18.329  10.878  11.437 -0.0598  0.1947  0.0151
24885W        W41019  11.285  11.059   3.508  0.0348  0.0381 -0.0636
24886W        W41020   7.016  11.353  13.445 -0.4764 -0.0992 -0.1246
24887W        W41021  13.784   8.353   4.731  0.1163 -0.0844  0.2933
24888W        W41022  10.518  18.070   2.534  0.4082  0.0212 -0.3163
24889W        W41023  18.763   8.786  14.869  0.0528 -0.0472  0.1824
24890W        W41024  12.375  13.491  11.635 -0.2905 -0.0771 -0.1722
24891W        W41025   0.795   9.469  13.909 -0.0728 -0.0914 -0.2297
24892W        W41026  15.347   0.316   9.913  0.2530  0.0206  0.1054
24893W        W41027   8.989  10.246  14.951  0.2083 -0.0840 -0.1053
24894W        W41028  12.787  16.201   1.653 -0.0314  0.2089  0.0407
24895W        W41029   8.354   2.465  12.387 -0.1275  0.1571 -0.2065
24896W        W41030   8.318   6.208   3.411  0.0466 -0.1850 -0.1349
24897W        W41031  16.872   5.158   1.319 -0.2043  0.1379 -0.0099
24898W        W41032   2.830  15.875   3.652 -0.4051 -0.0475  0.0116
24899W        W41033  13.917   6.908   0.740  0.0056 -0.2290 -0.0026
24900W        W41034  14.718   6.263  13.446 -0.1946  0.0978  0.0191
24901W        W41035  15.981  16.726  12.969 -0.2115 -0.0993  0.2176
24902W        W41036  18.495  15.781   6.569 -0.1788  0.1441  0.2387
24903W        W41037  17.062   2.508   2.566 -0.0889 -0.1042  0.0736
24904W        W41038  11.204   2.723   2.060 -0.1580 -0.3922  0.1219
24905W        W41039   6.856   0.565   2.367 -0.0248  0.1828 -0.1569
24906W        W41040   3.859  11.712  12.383  0.1121  0.0316 -0.2302
24907W        W41041  14.619   6.164   3.904 -0.1858  0.1804  0.1479
24908W        W41042  13.953  10.811   0.125  0.0962 -0.0401  0.0306
24909W        W41043   9.517   2.566  15.077  0.1352 -0.1874 -0.1809
24910W        W41044  13.602  10.855   2.960 -0.2242 -0.2236 -0.1637
24911W        W41045   4.264  13.349  14.930  0.0865 -0.3594 -0.3213
24912W        W41046   4.728   5.664  14.485 -0.1988 -0.0242 -0.0424
24913W        W41047   3.352   0.144   2.488 -0.0662  0.3407 -0.0709
24914W        W41048  15.928  10.995  12.347 -0.0381 -0.0782 -0.0306
24915W        W41049   5.655  16.986  10.507 -0.1869  0.1112  0.4370
24916W        W41050   1.463   3.495  14.179  0.0190 -0.1680 -0.1729
24917W        W41051   9.594  15.532  13.621 -0.3180  0.0763 -0.0152
24918W        W41052  13.555   2.067  13.730 -0.1450  0.0038  0.2468
24919W        W41053   8.000  14.045   5.331 -0.0881  0.2082 -0.0883
24920W        W41054  14.042  17.601   3.487  0.0260  0.4432 -0.0082
24921W        W41055   6.767  17.270  11.018 -0.1752 -0.0739  0.1003
24922W        W41056  13.624   2.930  11.138  0.0672  0.1861 -0.0974
24923W        W41057  11.660   6.522   0.540 -0.0025  0.1089 -0.1292
24924W        W41058   7.717   8.683  11.534  0.0804 -0.4302  0.3221
24925W        W41059  17.649  17.930   4.254  0.0628  0.3328 -0.2459
24926W        W41060  15.594  10.258  12.585  0.0188 -0.1239 -0.0242
24927W        W41061  10.924  10.782   3.730 -0.0643 -0.1070  0.1280
24928W        W41062   8.006  15.476   1.617  0.2032  0.0009 -0.0626
24929W        W41063  17.281  15.229  13.639 -0.2294  0.0588 -0.1623
24930W        W41064   8.142  12.253  11.338  0.1156  0.1735  0.0206
24931W        W41065  15.030   6.317  12.554 -0.0338  0.0676 -0.2649
24932W        W41066   5.429   4.153   3.073 -0.1252  0.0171 -0.0035
24933W        W41067   0.140   7.355   3.613  0.0218 -0.0786 -0.1603
24934W        W41068  15.939  14.635   4.344 -0.1408  0.1600  0.5696
24935W        W41069   7.969  18.266   2.370 -0.2160  0.0698  0.0399
24936W        W41070  14.527  17.060   2.257 -0.0734 -0.1541 -0.1464
24937W        W41071  17.172   8.698   3.959 -0.1733  0.0367 -0.0141
24938W        W41072  18.419  17.286   1.340 -0.3203  0.0585 -0.1569
24939W        W41073  13.617  16.723   3.837  0.0160  0.0804 -0.0511
24940W        W41074  13.340   3.044  12.092  0.2154  0.0592  0.1050
24941W        W41075  14.653   3.755  12.919  0.1464  0.0536 -0.3930
24942W        W41076  13.734   2.459  14.056 -0.1778 -0.0230 -0.2444
24943W        W41077   7.907   6.185   4.636 -0.1994 -0.0042  0.0831
24944W        W41078   5.404  12.969  14.085  0.2221  0.1405 -0.0729
24945W        W41079   9.729   8.416   3.064 -0.2098 -0.0603  0.1170
24946W        W41080   1.147   9.744  11.706  0.1156  0.0042 -0.1971
24947W        W41081   7.740  14.141  14.604  0.2016  0.0016 -0.0068
24948W        W41082   6.613  11.597  10.544  0.3592  0.2854  0.0786
24949W        W41083  10.186   1.676  13.541  0.0637  0.2209  0.0522
24950W        W41084   3.029  17.669  11.806 -0.0137 -0.1115  0.0279
24951W        W41085  16.843  17.819  11.729 -0.0767  0.0909 -0.1136
24952W        W41086  16.796  18.212  14.728  0.1897  0.0146  0.2036
24953W        W41087   6.262  16.128   0.302  0.0305 -0.3052  0.2114
24954W        W41088   9.640   1.903  12.376  0.0346 -0.0789  0.0035
24955W        W41089  18.535  18.636  13.838  0.0264 -0.0460 -0.4298
24956W        W41090   5.960   8.098  14.026  0.5832 -0.0079 -0.1684
24957W        W41091  15.372   0.497   4.107 -0.0873 -0.1298 -0.5769
24958W        W41092   6.553   8.283  13.426  0.2289  0.0206  0.3026
24959W        W41093  14.813  15.323  12.996 -0.2466 -0.2195 -0.0778
24960W        W41094  16.134  14.896  11.727  0.0610  0.2431 -0.0942
24961W        W41095  10.167   1.216   1.922  0.0756  0.1354 -0.1000
24962W        W41096   4.998  12.229  11.711  0.1051 -0.0105  0.0052
24963W        W41097   7.950   7.574   3.596  0.2144  0.1805  0.3225
24964W        W41098  18.244  17.652  13.807  0.1095 -0.2953 -0.3464
24965W        W41099  11.725  18.970  13.621 -0.0941 -0.3310  0.0673
24966W        W41100   3.592   5.578   1.929  0.2178  0.2683 -0.1423
24967W        W41101  13.190   6.666  12.341 -0.0468  0.5196  0.0933
24968W        W41102  17.584   9.538   4.471 -0.2543 -0.1182 -0.1578
24969W        W41103  13.723   4.957  11.737 -0.0893 -0.0420 -0.1987
24970W        W41104   8.006  17.736  14.128 -0.3803  0.3752 -0.3348
24971W        W41105  18.437   8.544  11.694  0.1688 -0.1649  0.0860
24972W        W41106   9.821  11.393  13.802  0.0424  0.1105 -0.0639
24973W        W41107   8.582  13.767   4.708 -0.0638  0.1603 -0.4892
24974W        W41108   5.185  14.375   3.665 -0.0904  0.2224  0.0026
24975W        W41109  14.028  17.030  14.540 -0.0847  0.0348  0.1066
24976W        W41110   6.722   0.926   1.187  0.2161 -0.3663  0.1496
24977W        W41111   6.723   4.509   0.849  0.3184 -0.1198 -0.1000
24978W        W41112  16.139   1.615   2.360 -0.5277 -0.0987 -0.1486
24979W        W41113  14.939  17.944  13.305 -0.0360  0.0825  0.1128
24980W        W41114  16.056  15.795  10.698  0.1570  0.0258  0.0497
24981W        W41115  18.326  13.666  14.561  0.2512 -0.1706  0.0353
24982W        W41116   2.447   9.048  14.184  0.1335  0.2620 -0.2154
24983W        W41117   3.809   1.403   0.823 -0.2035  0.0890 -0.0659
24984W        W41118  17.736   0.738  13.664 -0.3548  0.0801 -0.1862
24985W        W41119   1.240   9.297  12.113 -0.0149 -0.0956 -0.0627
24986W        W41120  12.643  12.370   2.679  0.0790  0.1623  0.0023
24987W        W41121  12.668   2.592   5.468 -0.2568  0.1108  0.0140
24988W        W41122   9.378  11.230  11.246  0.1021  0.0546 -0.1362
24989W        W41123   9.256  13.582   1.407 -0.1204  0.0489  0.0219
24990W        W41124   9.193   1.259   2.364  0.0845 -0.0671 -0.0119
24991W        W41125  17.179   4.010  15.160 -0.0858  0.3554  0.1322
24992W        W41126  12.473  13.485  11.164  0.0653  0.0311  0.1664
24993W        W41127   7.623  13.064   3.744 -0.2365 -0.2813  0.3709
24994W        W41128  14.011   0.132   5.418  0.1314  0.0178  0.0515
24995W        W41129   0.054  10.397   2.885 -0.1685  0.0478 -0.0883
24996W        W41130  16.822  12.931  14.770 -0.1640 -0.0952 -0.0424
24997W        W41131   5.665   0.475  13.871 -0.1554  0.1993  0.2755
24998W        W41132  13.844  18.551  14.592  0.0001 -0.0118  0.0918
24999W        W41133  14.451   2.845  11.218  0.0676 -0.1415 -0.0566
25000W        W41134  10.652  13.462   4.642 -0.5153 -0.0966  0.0556
25001W        W41135  15.465  14.490  13.080  0.2895  0.0209  0.0793
25002W        W41136   5.664  15.782   3.507 -0.0399  0.0052  0.3837
25003W        W41137  17.879   7.776   3.355 -0.0862  0.1319  0.2176
25004W        W41138  12.142   0.341   0.555  0.0939  0.0307 -0.2319
25005W        W41139  14.375  15.482   1.686 -0.1665 -0.3791 -0.1457
25006W        W41140  14.957   5.224  11.162  0.2355 -0.1297  0.4714
25007W        W41141  13.844  12.082  13.662  0.3372 -0.0684  0.0150
25008W        W41142  14.620  18.619   2.869 -0.0111 -0.0633 -0.1373
25009W        W41143   3.201  16.232  12.360  0.2071 -0.1528 -0.0341
25010W        W41144   1.566  18.415  14.872  0.0493  0.0969  0.1085
25011W        W41145   3.091   8.446   2.981 -0.0395  0.3792  0.0514
25012W        W41146   9.699   0.650  14.566  0.1440 -0.0871  0.2606
25013W        W41147  12.484   7.117   0.274  0.4887 -0.1066  0.2434
25014W        W41148  10.464   7.012   3.698  0.2402 -0.0207 -0.3307
25015W        W41149   9.445   3.438   2.030  0.1166  0.2772 -0.0633
25016W        W41150   3.443  10.066  15.040  0.3841 -0.3049 -0.0050
25017W        W41151   2.958  17.419   0.060  0.1968  0.2266  0.0266
25018W        W41152  12.926   3.916  12.453 -0.1723 -0.5745 -0.1523
25019W        W41153  17.800  11.388   3.605 -0.1060  0.1490 -0.3222
25020W        W41154   0.307   8.009   5.346  0.1820 -0.0315  0.2516
25021W        W41155   0.967  17.794  11.363 -0.2236  0.1238  0.0300
25022W        W41156  15.166   6.878  14.767 -0.0679 -0.0528 -0.5987
25023W        W41157  18.535   1.187  13.893 -0.0757 -0.0728 -0.2795
25024W        W41158  12.301   1.746  10.639  0.0273 -0.1003  0.0152
25025W        W41159   4.716   3.291   4.390 -0.1150  0.1912 -0.1413
25026W        W41160  15.768  17.508  11.774  0.0276  0.1165  0.0924
25027W        W41161   2.228   2.591  13.478 -0.0841  0.2798  0.2230
25028W        W41162   8.707   4.892  14.324 -0.1310  0.0654  0.1834
25029W        W41163  12.794  11.653  12.818  0.0809  0.1163 -0.1230
25030W        W41164  10.994   2.850   4.838 -0.1841 -0.0475  0.2151
25031W        W41165   6.638  17.342  13.113  0.0659  0.3665  0.2693
25032W        W41166  16.332   3.045  14.453 -0.3446  0.3000 -0.5238
25033W        W41167  10.003  13.336  10.869  0.1395 -0.2498  0.1511
25034W        W41168   5.957  15.977  12.699  0.1564  0.1760  0.0757
25035W        W41169   1.861  12.500  12.940  0.1729 -0.1037 -0.0155
25036W        W41170   8.201  11.618  13.070 -0.1469 -0.1107 -0.0214
25037W        W41171  11.240  13.663  10.776 -0.2527  0.0415 -0.0790
25038W        W41172  15.773   0.820  14.544  0.0507  0.1052 -0.1068
25039W        W41173  10.390   1.323   0.943 -0.1484  0.1695 -0.2050
25040W        W41174   9.719   7.789   3.690 -0.1683  0.1081  0.1362
25041W        W41175  18.830  15.037   2.379 -0.1475  0.1108  0.2307
25042W        W41176   0.335   3.523  12.870  0.0557 -0.0961  0.2170
25043W        W41177  10.063  12.045  11.609  0.2293 -0.1436 -0.4045
25044W        W41178   0.349  18.083   0.796  0.0694 -0.1053  0.1849
25045W        W41179   3.068  15.047  11.438  0.4419 -0.1102 -0.0739
25046W        W41180  14.507  12.962  11.654 -0.2360  0.2385  0.0244
25047W        W41181   3.895  10.768   9.678 -0.1467 -0.5362  0.0461
25048W        W41182   8.635  15.431   4.633 -0.1946 -0.0491  0.2674
25049W        W41183   5.829   9.093   1.724 -0.0422  0.2165  0.0226
25050W        W41184  10.759   4.150   1.821  0.1698  0.1136  0.0768
25051W        W41185  11.704   5.498   1.854 -0.1348 -0.0157  0.1412
25052W        W41186  12.693   9.192   1.897 -0.2230  0.3686 -0.4599
25053W        W41187  18.786   6.808  15.246  0.2234 -0.0222 -0.4080
25054W        W41188  12.748   9.509  13.537  0.3298  0.1270 -0.0926
25055W        W41189   1.030   3.082  14.683  0.0712  0.0273  0.3760
25056W        W41190   8.588   6.737  12.711 -0.0482  0.2418  0.2273
25057W        W41191   0.587   5.223   0.965 -0.2821  0.0453  0.2389
25058W        W41192  10.665   4.594   2.962 -0.2248  0.2294 -0.2202
25059W        W41193  15.041  18.503  11.606 -0.0868 -0.1424  0.0404
25060W        W41194  12.940  15.711   2.003 -0.1296 -0.1814 -0.4050
25061W        W41195   5.048  17.018  12.488 -0.1556 -0.3211 -0.0728
25062W        W41196  15.408   6.467  14.517 -0.3904 -0.0099  0.1031
25063W        W41197   9.836   1.454   4.718 -0.4072 -0.1659  0.0057
25064W        W41198  16.623  18.139   0.389  0.1995 -0.2745 -0.0584
25065W        W41199   3.589  13.169  10.234  0.1818 -0.1034 -0.1305
25066W        W41200  10.323  18.216   3.039  0.0631 -0.3722  0.3573
25067W        W41201  11.161   5.374   3.037 -0.2086 -0.2389  0.0591
25068W        W41202  15.214  15.544  11.778  0.0011  0.2320  0.0438
25069W        W41203  16.945   5.362   3.918 -0.1066 -0.1809 -0.4086
25070W        W41204  11.142   4.708  12.301  0.0309 -0.4674  0.1466
25071W        W41205  12.129  11.020   1.364 -0.0257 -0.1721 -0.0255
25072W        W41206  18.630   9.922   1.732  0.3628 -0.2582 -0.1570
25073W        W41207  13.251  18.264   4.829 -0.1362  0.2718 -0.2197
25074W        W41208   3.948   2.210   4.195 -0.0196 -0.0368  0.3191
25075W        W41209   8.058  17.895  10.890 -0.0494 -0.0568 -0.6297
25076W        W41210  18.257  12.302   5.205 -0.3534  0.1237  0.1415
25077W        W41211   0.613  10.876  11.042  0.3380  0.1687  0.0700
25078W        W41212  12.337  15.273   3.699 -0.3426  0.0450  0.0340
25079W        W41213  17.851   9.824   1.127 -0.2337  0.1547 -0.2289
25080W        W41214  18.524   9.498   1.345  0.2415 -0.1462  0.0793
25081W        W41215  11.822   8.463  11.926 -0.2121  0.1138 -0.2656
25082W        W41216  15.498  14.228  14.530  0.0363  0.1339  0.1143
25083W        W41217   0.749  15.546  14.049  0.0490 -0.1476 -0.0621
25084W        W41218   4.703   0.307  13.565  0.1802 -0.0210  0.0654
25085W        W41219  14.248   4.345   1.954  0.0692 -0.2225  0.0193
25086W        W41220  17.923  10.308   4.396  0.5095 -0.0709 -0.1206
25087W        W41221   3.328   9.590  15.014 -0.2723 -0.0068 -0.2058
25088W        W41222   8.570  13.958  11.196  0.5271  0.3026 -0.0442
25089W        W41223   5.388   9.417  13.718  0.3552  0.0213 -0.1738
25090W        W41224  17.539  14.663  11.467  0.1454  0.2787 -0.0196
25091W        W41225  10.795   8.763   1.276 -0.1357 -0.0232  0.6172
25092W        W41226  11.638   0.576   1.114  0.0068  0.0934  0.3237
25093W        W41227   6.285   7.253   4.609  0.2046 -0.3237  0.3055
25094W        W41228  15.875  11.513   2.538 -0.4104 -0.4904 -0.0764
25095W        W41229  13.321   4.080   4.177 -0.1097  0.1283 -0.0760
25096W        W41230  10.385   4.281   2.655  0.1532  0.0751  0.1326
25097W        W41231  14.779   4.173  13.577 -0.3522  0.4483  0.0421
25098W        W41232   1.714  11.410  10.920 -0.1581 -0.1483  0.1156
25099W        W41233   4.021  13.302   5.527  0.1516 -0.1063 -0.0581
25100W        W41234  16.389   9.287   4.997  0.0378  0.0100 -0.2662
25101W        W41235   5.088   8.528   4.783  0.0832  0.2167  0.0817
25102W        W41236   0.999   6.976   2.095 -0.2303 -0.2761 -0.2164
25103W        W41237  13.156  17.060   0.287  0.0013 -0.0158  0.1247
25104W        W41238  17.371   6.458   0.716 -0.1696 -0.0245 -0.1372
25105W        W41239   1.146  13.944   0.240  0.2811 -0.0157  0.0956
25106W        W41240   8.601   2.931   0.118  0.0088 -0.1002  0.1307
25107W        W41241   2.456  12.632   3.632  0.0984  0.2543  0.0345
25108W        W41242   9.155   6.284  10.794  0.0381  0.0098  0.2463
25109W        W41243   7.800  11.393   0.457 -0.0590  0.1825 -0.1671
25110W        W41244   8.602   6.622   0.339 -0.1024 -0.1047  0.1280
25111W        W41245  10.048   6.466  10.254  0.3079 -0.2182 -0.1752
25112W        W41246  18.897   6.864   2.781 -0.0733 -0.2499 -0.1960
25113W        W41247  14.656   8.804   4.534  0.0311 -0.0787  0.1670
25114W        W41248   8.002  11.019  13.178 -0.1804 -0.1307  0.3305
25115W        W41249  16.705  13.619   0.570 -0.0553 -0.0357 -0.0649
25116W        W41250  18.960   8.350  14.695 -0.0487 -0.2049  0.2766
25117W        W41251  14.071  18.436  12.034  0.4929  0.1205 -0.1907
25118W        W41252  14.203  10.347   1.082 -0.2048 -0.2534 -0.0627
25119W        W41253  15.880   4.426   3.400  0.0605  0.0489  0.0358
25120W        W41254  11.449  16.924  11.148 -0.1915 -0.2088  0.5059
25121W        W41255   7.789  17.557   4.192  0.4619 -0.0427 -0.3739
25122W        W41256   4.612   8.419   2.068  0.1896  0.0953  0.0522
25123W        W41257   5.704   1.541  12.186  0.0337 -0.0162  0.0602
25124W        W41258  15.190  12.447   2.736  0.1843  0.0409  0.2489
25125W        W41259   0.200   0.783  10.918 -0.4156 -0.0585  0.1476
25126W        W41260   2.512  15.980   1.779  0.0955 -0.1331  0.2606
25127W        W41261  14.517  14.514   3.821 -0.0289  0.0781 -0.1619
25128W        W41262   6.078  10.532   3.638  0.0051  0.2655 -0.0000
25129W        W41263   8.272   8.797  11.353 -0.1120  0.2609 -0.1830
25130W        W41264   9.376   1.448   4.799  0.2457  0.3213  0.2138
25131W        W41265   9.917   9.515   1.737 -0.2046  0.2941 -0.1318
25132W        W41266  11.688   3.764  10.840 -0.1279 -0.1178  0.0126
25133W        W41267  11.128   8.800  15.271 -0.4112  0.1103  0.0170
25134W        W41268   3.554  12.013  11.093  0.2469 -0.2341  0.2593
25135W        W41269  18.420   4.598  12.774 -0.1852  0.0469 -0.2631
25136W        W41270   4.942  13.808   0.623 -0.1264  0.1983  0.1298
25137W        W41271   3.955  14.715  14.387 -0.0366  0.1770 -0.0301
25138W        W41272  17.260   5.033  10.882  0.2345  0.1790 -0.0097
25139W        W41273  15.427  16.713  10.280  0.2003 -0.0361  0.0439
25140W        W41274   2.504   8.121  13.899  0.2448  0.0342 -0.0882
25141W        W41275  12.749   0.025   0.778  0.0497 -0.0752  0.0731
25142W        W41276   8.658   9.832  13.514 -0.0007 -0.2791  0.2127
25143W        W41277  11.166  15.186   5.616  0.2944  0.0913 -0.0622
25144W        W41278   5.061   5.334  10.617  0.2957 -0.1653 -0.2686
25145W        W41279   2.373  15.478   2.517 -0.1703  0.0677 -0.0226
25146W        W41280  10.714   4.375  14.774 -0.1274  0.4212 -0.1437
25147W        W41281  10.854  16.806  14.108  0.1425 -0.0007 -0.0503
25148W        W41282   2.926   4.856   4.441 -0.0720 -0.2419  0.2445
25149W        W41283  13.985   0.860   0.820 -0.0452  0.2219  0.0843
25150W        W41284  11.150   3.476  11.916 -0.3270 -0.0242 -0.0679
25151W        W41285   5.218   2.862  11.196 -0.1949 -0.1682 -0.1872
25152W        W41286   6.291  14.750   5.020  0.0707 -0.1197  0.0939
25153W        W41287  10.101  18.714  13.651 -0.1667  0.0416  0.0059
25154W        W41288   5.610   3.251   4.026  0.0259  0.0903 -0.1096
25155W        W41289   7.369   1.257   9.313 -0.2554 -0.1236 -0.0071
25156W        W41290   1.818  17.993  12.305 -0.0989  0.2772 -0.0255
25157W        W41291   2.849  18.598   1.040 -0.1741  0.2621  0.2789
25158W        W41292   0.121  13.500  14.768 -0.2017  0.0977 -0.2584
25159W        W41293   6.504  11.390  11.439 -0.0644  0.2140 -0.1030
25160W        W41294   8.066  13.137  11.325  0.0069 -0.2072  0.2855
25161W        W41295  13.078  11.794  10.406 -0.2351  0.2733 -0.1504
25162W        W41296   2.849  16.011   0.299 -0.1780 -0.2126 -0.1879
25163W        W41297  13.103  18.628  14.392 -0.1235  0.3205  0.3231
25164W        W41298  16.368  17.480  12.519 -0.0531  0.3400  0.0068
25165W        W41299   0.318   4.714   5.259  0.2217 -0.0987  0.3539
25166W        W41300  13.675   1.242   1.504  0.0695 -0.0341 -0.0486
25167W        W41301   3.828   0.125   3.143 -0.2522  0.0851  0.2222
25168W        W41302  10.090  13.346   1.569  0.0238  0.1704  0.0399
25169W        W41303  18.583   8.186   2.569  0.0968  0.0602 -0.0110
25170W        W41304   0.775   1.679  15.035  0.1216 -0.1012  0.1632
25171W        W41305  15.438  15.354  11.372  0.0663  0.3438  0.0307
25172W        W41306  11.038  17.527  11.920 -0.1092 -0.0018  0.1244
25173W        W41307  14.037  14.535  10.168  0.1931 -0.2794  0.0413
25174W        W41308  16.484  17.994  14.128  0.0688  0.0171  0.1805
25175W        W41309   8.853   5.078  13.539  0.2066  0.1571  0.0668
25176W        W41310  13.715   2.476   2.396  0.0377 -0.0021 -0.0167
25177W        W41311  15.688   6.191  11.401  0.0529  0.2019  0.1748
25178W        W41312  16.466  16.660   4.786 -0.2289  0.0445  0.2980
25179W        W41313   2.211   3.554   0.682 -0.1344 -0.0367  0.0665
25180W        W41314   3.614   2.012   2.148 -0.1853 -0.2809 -0.1285
25181W        W41315  18.832   0.229   4.406 -0.1641 -0.1279 -0.1872
25182W        W41316   5.938   8.327   2.933 -0.1394  0.1873  0.1516
25183W        W41317   2.754   8.173  10.737 -0.0915  0.2050 -0.0628
25184W        W41318   9.691   4.246  13.780  0.2515 -0.2451  0.1628
25185W        W41319   5.972  16.192  14.415 -0.1804  0.0911 -0.2118
25186W        W41320   9.638  10.679   1.794 -0.0382  0.1660  0.2322
25187W        W41321   1.147   9.132   3.625  0.1650 -0.0322 -0.2020
25188W        W41322   6.546   4.026  12.589  0.1066  0.1764 -0.0098
25189W        W41323   7.609  13.572   3.696 -0.1373 -0.1023 -0.0386
25190W        W41324  13.703  17.966  10.151  0.0095  0.1425  0.3248
25191W        W41325   9.727  10.593   9.840  0.2006 -0.2386 -0.2341
25192W        W41326  18.104   4.159   3.957  0.3036 -0.1367  0.0734
25193W        W41327   3.450  10.847   2.197  0.0940 -0.0206 -0.0216
25194W        W41328   7.897   8.026   3.773 -0.0998  0.0535  0.1511
25195W        W41329  18.667  17.559  14.331 -0.0579  0.0970 -0.4445
25196W        W41330   4.459   8.430   4.131  0.1800  0.0471  0.0079
25197W        W41331   1.848  12.598   4.387 -0.0338 -0.3992  0.0713
25198W        W41332  13.336  17.615  14.875 -0.1946  0.3248 -0.1366
25199W        W41333  13.671  12.541   9.928 -0.0365  0.1670  0.2636
25200W        W41334   9.403  12.005   5.779  0.3549 -0.2961  0.1622
25201W        W41335  12.535  10.587  10.237  0.1024  0.1240 -0.0434
25202W        W41336  12.575  11.418   2.422 -0.0779  0.1590 -0.0567
25203W        W41337   4.714   9.866  14.290 -0.0953 -0.2469 -0.0507
25204W        W41338  12.197  14.083   2.870 -0.1608 -0.2265  0.1733
25205W        W41339  12.399  17.822   2.557  0.1598 -0.1394 -0.0466
25206W        W41340  17.942  15.939   4.762 -0.2961  0.1294  0.2189
25207W        W41341  15.489  11.589   1.894  0.0868  0.1742 -0.2038
25208W        W41342  15.825   0.062   0.881  0.1247 -0.3387 -0.0446
25209W        W41343   7.090   9.448  14.463  0.0906 -0.3768 -0.1883
25210W        W41344   8.464  16.101  11.814 -0.6336 -0.1293 -0.1260
25211W        W41345   3.683   0.264  12.063  0.0017  0.2398  0.1163
25212W        W41346   2.409  18.761  13.495 -0.3487  0.2138 -0.2291
25213W        W41347  12.273  18.542  12.660 -0.0604  0.2343  0.0030
25214W        W41348   7.564  10.274   3.210  0.1159  0.3332  0.2432
25215W        W41349  15.243  17.242  11.877  0.2385  0.4699 -0.4403
25216W        W41350  13.333   2.798   2.292  0.0898 -0.0226 -0.3422
25217W        W41351  12.350  18.489   4.014  0.1896 -0.0660  0.1341
25218W        W41352  15.147   2.758   5.294  0.0446  0.0289  0.0184
25219W        W41353  12.590   3.751  13.743 -0.0865 -0.0209  0.1010
25220W        W41354   5.618   4.456  11.310  0.4441  0.0557 -0.2252
25221W        W41355   2.177  10.490   0.417  0.0928 -0.1524 -0.0891
25222W        W41356  15.730   7.565   2.416  0.3451  0.2133 -0.2720
25223W        W41357   3.465   9.599   9.875  0.0406  0.3520  0.4243
25224W        W41358   1.209   6.893   4.306  0.0627  0.0167  0.1935
25225W        W41359   4.003  11.795   0.634  0.0555 -0.1802  0.5098
25226W        W41360   9.063  16.638   0.732 -0.0255  0.4236 -0.2722
25227W        W41361   1.139  16.748   3.014 -0.0895 -0.3466 -0.1418
25228W        W41362   7.470  17.426   0.726  0.0385 -0.2477  0.4418
25229W        W41363  14.822  10.418   5.200 -0.3890 -0.0770  0.1284
25230W        W41364  12.426  10.281  11.474 -0.0877 -0.1833 -0.2503
25231W        W41365   2.997   7.234   3.533  0.0677 -0.2157 -0.0520
25232W        W41366   5.894   8.740  14.792 -0.1556  0.1768 -0.2011
25233W        W41367  12.440   7.490  14.181  0.0719 -0.0129  0.3656
25234W        W41368   8.791  18.630  11.802  0.1100 -0.0564 -0.0404
25235W        W41369   3.137   8.670  11.224 -0.2590 -0.2318 -0.1819
25236W        W41370  18.421   1.394   4.070 -0.0025 -0.2069  0.0520
25237W        W41371  12.549  12.251  12.126 -0.4185  0.2858 -0.1747
25238W        W41372   2.753   2.545  13.165 -0.2404  0.2579 -0.0286
25239W        W41373  17.269   2.688  11.890  0.1783  0.2783 -0.2419
25240W        W41374  12.159   7.318  13.319 -0.1086  0.0488  0.1166
25241W        W41375   1.482   1.308  11.071 -0.1100 -0.2439 -0.0107
25242W        W41376   3.324  15.997   3.443  0.1681 -0.1992  0.0548
25243W        W41377  15.257   9.459  14.553 -0.2305 -0.0278  0.1456
25244W        W41378  14.571  13.062   1.033  0.2093 -0.0856  0.0294
25245W        W41379  12.221  12.314   3.052 -0.3163  0.1378  0.2206
25246W        W41380  10.769   8.757  14.833  0.1898 -0.0399 -0.1842
25247W        W41381  14.629  15.318  13.946 -0.0064 -0.0788 -0.2609
25248W        W41382  14.156   3.546   3.249 -0.2211  0.2482 -0.0786
25249W        W41383  14.444   4.511  15.002 -0.3470 -0.4042 -0.0130
25250W        W41384   2.903   3.978  10.644 -0.2389  0.1675 -0.0274
25251W        W41385  11.187  12.512  12.457  0.0367 -0.3845  0.0497
25252W        W41386   5.989   9.081  10.967  0.2412  0.3963  0.0809
25253W        W41387   1.380   9.982  14.481  0.0250 -0.2480  0.1361
25254W        W41388   6.289  14.130   2.228 -0.3129  0.0074 -0.0182
25255W        W41389   5.203  15.352  10.693  0.0864  0.1307 -0.1743
25256W        W41390  14.756   7.800   1.959 -0.2407 -0.1358  0.0567
25257W        W41391   4.859  14.216   3.247  0.0937  0.1337 -0.1157
25258W        W41392  13.189  10.164   1.875  0.0883 -0.0291  0.1044
25259W        W41393  10.441  10.815   3.515 -0.0776 -0.0164  0.1571
25260W        W41394   4.225   0.807   1.650  0.0854 -0.1436 -0.0507
25261W        W41395   6.331  15.433   1.436  0.1471 -0.1291 -0.1841
25262W        W41396   3.988  17.842  14.391  0.1349 -0.0257  0.4775
25263W        W41397  15.393   4.429   2.053  0.0954 -0.4020  0.4369
25264W        W41398   8.985   0.869   4.262  0.0074 -0.1437 -0.0699
25265W        W41399   2.648   7.351   2.615  0.3519  0.0749  0.3783
25266W        W41400  12.300   4.364   3.261 -0.0249  0.0593 -0.0004
25267W        W41401  10.235  17.325   4.259  0.1874  0.2388 -0.1452
25268W        W41402   9.874   5.781   1.979 -0.1966  0.0271 -0.2694
25269W        W41403   2.157   9.313   0.120  0.3589 -0.0936 -0.3659
25270W        W41404  11.909  18.128   1.299 -0.0125  0.0177 -0.1984
25271W        W41405   1.841   5.429   4.849 -0.0231 -0.1965  0.0273
25272W        W41406  10.565   0.893   4.265 -0.0910 -0.0424  0.1825
25273W        W41407   0.436  17.534  15.090  0.0860 -0.2390 -0.0176
25274W        W41408  14.532  17.942   1.036  0.4055  0.3421  0.0349
25275W        W41409  13.327   4.404   3.224  0.2565 -0.0276  0.1945
25276W        W41410   0.062  11.297  13.006  0.1443  0.1085  0.3005
25277W        W41411   3.964  12.485   2.082 -0.0306 -0.1166  0.2158
25278W        W41412   4.642   6.539  12.306 -0.0632 -0.1380  0.0697
25279W        W41413   5.954   8.581  10.857 -0.0845 -0.0030  0.2063
25280W        W41414   2.368  18.778   0.043  0.1351 -0.1665 -0.1520
25281W        W41415  16.421   5.730   1.221 -0.0025 -0.2819 -0.0037
25282W        W41416   2.375  17.819   1.401 -0.1569 -0.0442  0.1685
25283W        W41417   0.842  16.234   9.987  0.1193  0.1432 -0.0516
25284W        W41418  14.898   2.279  12.964  0.1058 -0.0976 -0.1941
25285W        W41419   0.914   7.762  13.652  0.1042  0.1792  0.3212
25286W        W41420   6.309  17.019   3.542  0.1175  0.2345  0.0162
25287W        W41421   6.750  14.679  14.980 -0.0538  0.0371 -0.2147
25288W        W41422   3.751  17.910   3.037  0.0692 -0.5595 -0.0131
25289W        W41423   4.823  11.643  14.949 -0.1869  0.1210  0.3708
25290W        W41424   8.720  11.518  10.932  0.1758  0.2369 -0.1198
25291W        W41425  17.628  11.481   2.474  0.0819  0.1366 -0.3611
25292W        W41426   5.829  11.706   4.356  0.0186  0.0973  0.1150
25293W        W41427   1.151  18.729   3.161  0.1043  0.1215 -0.0074
25294W        W41428   7.586  16.401  11.671  0.1658 -0.2729  0.2405
25295W        W41429  10.694  12.456  13.893 -0.0111 -0.1417  0.0729
25296W        W41430  16.323   5.451  12.864  0.0999  0.0497  0.0493
25297W        W41431  15.138  12.335   4.790  0.0630  0.3737  0.1726
25298W        W41432  12.781  17.659   1.031  0.2244 -0.0748  0.0556
25299W        W41433   4.261  14.251  10.158 -0.1635 -0.0778 -0.1942
25300W        W41434  18.092   6.965   4.897  0.0963 -0.1909 -0.0669
25301W        W41435  15.886  10.231   3.162 -0.0462  0.0719  0.0834
25302W        W41436   3.478  12.112   1.488 -0.1066 -0.1348 -0.3980
25303W        W41437   2.989  14.420   2.437  0.1944 -0.1053 -0.3552
25304W        W41438   8.502   0.216   5.755  0.0827  0.2508 -0.0463
25305W        W41439  14.984   2.640  13.790 -0.2007 -0.5471 -0.0736
25306W        W41440   1.973   3.950  14.799  0.0308 -0.1482 -0.0757
25307W        W41441   8.081  15.218   2.071  0.0299  0.0591 -0.2213
25308W        W41442  16.702   4.485  14.658  0.2508 -0.2731  0.0972
25309W        W41443   2.802   6.267  10.713 -0.0413  0.0568 -0.0170
25310W        W41444  14.484   9.503  11.125 -0.2865 -0.0150 -0.0440
25311W        W41445  18.780  11.818   1.725 -0.2477  0.3910  0.0716
25312W        W41446   4.191  15.603   4.710  0.1378  0.1234 -0.0617
25313W        W41447  15.947  16.357   5.898 -0.1281  0.2085 -0.1866
25314W        W41448   9.281  12.810  13.622  0.1426  0.1324 -0.0163
25315W        W41449   1.573   8.551   4.062 -0.2042 -0.3679  0.3634
25316W        W41450   1.754   5.267   3.279 -0.2017  0.0094 -0.0650
25317W        W41451   7.569  14.494   2.631 -0.0611 -0.2291 -0.0701
25318W        W41452  16.119   5.172   2.768 -0.1568 -0.2969 -0.0448
25319W        W41453   4.616   6.262  12.705 -0.0073  0.0519 -0.1353
25320W        W41454  10.987   2.440  13.687 -0.0778  0.0160 -0.0300
25321W        W41455  15.675  15.106  12.563 -0.0463 -0.1945 -0.1154
25322W        W41456  14.623  15.510  12.538 -0.3297 -0.0997  0.0338
25323W        W41457   9.616  15.287   3.430 -0.4624  0.2912  0.0374
25324W        W41458   9.684  10.527  13.181 -0.1591 -0.0806  0.0455
25325W        W41459   7.993   3.376   2.197 -0.1202  0.2468 -0.3059
25326W        W41460   8.317  10.684  13.727 -0.1099  0.1957 -0.2128
25327W        W41461  14.318   5.225  11.162  0.2250  0.1425 -0.0891
25328W        W41462  17.605   9.734   2.665  0.1561  0.1347  0.1884
25329W        W41463  12.843   5.572   5.610 -0.1935 -0.2481 -0.4118
25330W        W41464  16.221   2.289   0.849  0.1101  0.0785  0.0055
25331W        W41465  13.754  10.116  13.545 -0.0017  0.0465  0.1475
25332W        W41466  13.467   4.069   2.425  0.0156  0.0743 -0.0178
25333W        W41467  15.232   5.734   5.601  0.0306  0.0802 -0.1267
25334W        W41468   1.443  11.067  11.173  0.3830 -0.1738 -0.1590
25335W        W41469  18.679   9.281  15.003 -0.1751 -0.3466 -0.2231
25336W        W41470  11.095  17.152  14.325 -0.0919  0.3991 -0.1727
25337W        W41471   9.128   3.752   2.245  0.1312 -0.3793  0.0994
25338W        W41472  13.681  17.901  11.881 -0.3354  0.1404 -0.2143
25339W        W41473  11.950   2.432   2.369  0.0696 -0.1681  0.1150
25340W        W41474   9.826   3.636  12.718  0.0498 -0.2275  0.1900
25341W        W41475  17.841  16.634  11.778 -0.1441  0.1589 -0.0121
25342W        W41476   1.629   8.681   1.625  0.0312  0.3327  0.2192
25343W        W41477   3.688  11.037   0.039 -0.2383 -0.1330 -0.1938
25344W        W41478   5.273  18.741   0.952 -0.2210  0.0347 -0.3151
25345W        W41479  12.127  11.880  13.894  0.1107  0.1239 -0.2650
25346W        W41480  12.276  11.033   0.190 -0.2511  0.2035  0.0656
25347W        W41481   0.613   0.145  11.550 -0.0901 -0.0364 -0.2867
25348W        W41482   3.833  10.552   2.434 -0.1913  0.2237  0.1758
25349W        W41483  16.024  17.571  10.594  0.1588 -0.2392 -0.3595
25350W        W41484   1.811   2.738  11.012 -0.0163  0.2975  0.1704
25351W        W41485  10.593   0.991  10.561 -0.1170  0.4036 -0.0659
25352W        W41486   3.007   3.912   4.092  0.2712  0.0289  0.3236
25353W        W41487   0.567   6.353   5.629  0.1981  0.0716 -0.0728
25354W        W41488  17.590  12.701  10.437  0.2083 -0.3138 -0.1105
25355W        W41489  13.600   9.118  11.232 -0.1748 -0.1224  0.0642
25356W        W41490  17.185  11.438  13.558  0.1582 -0.0323 -0.0528
25357W        W41491  15.197  15.127  12.573 -0.1325 -0.0122  0.2338
25358W        W41492  13.033   8.991  13.534 -0.1722  0.2258 -0.0994
25359W        W41493   3.774  18.132  12.826  0.1348 -0.0295  0.0489
25360W        W41494   6.244  16.500  11.914  0.0252  0.3385  0.0769
25361W        W41495  12.541   1.319  10.717  0.4626  0.1942 -0.0473
25362W        W41496  14.469   6.224  12.006  0.2133 -0.2554  0.0221
25363W        W41497  14.839  14.573  10.384  0.3214 -0.0757 -0.0794
25364W        W41498  14.763   3.469   3.068  0.0994  0.1397  0.0087
25365W        W41499  12.227   6.969   1.589  0.5507 -0.1571 -0.2618
25366W        W41500   4.256   8.139   9.942  0.0384  0.1892 -0.0420
25367W        W41501  15.708   1.944   4.370 -0.0359 -0.3242 -0.0205
25368W        W41502   8.654  12.393  14.669  0.1436  0.2175 -0.0722
25369W        W41503   4.811   1.838  10.419  0.1137  0.1796 -0.1529
25370W        W41504  11.983   8.986  12.648  0.2279 -0.1303 -0.4126
25371W        W41505   1.916   4.745   3.817 -0.0696  0.0268  0.1650
25372W        W41506   0.675   0.304  13.684 -0.1933  0.0753 -0.0634
25373W        W41507  15.870   0.055  13.899  0.1985  0.1011 -0.2314
25374W        W41508   1.119  15.544   4.603  0.1146 -0.2955  0.3346
25375W        W41509  14.864  14.022  12.934  0.1621  0.0005  0.0562
25376W        W41510   2.316  14.483   5.257 -0.0873 -0.0896 -0.0279
25377W        W41511   1.583  16.804   5.636  0.3777 -0.1859  0.4746
25378W        W41512  13.988   3.110   0.803 -0.0278  0.1697  0.0003
25379W        W41513  13.600  13.492   5.227  0.3667 -0.0805 -0.2270
25380W        W41514  13.071  16.072   1.275 -0.1751 -0.1759  0.3807
25381W        W41515   5.397  10.227   5.030 -0.3149 -0.0049  0.0412
25382W        W41516   7.310  11.964  14.340 -0.2683 -0.1580  0.1056
25383W        W41517  12.715  17.241  13.940 -0.0945  0.1875  0.0599
25384W        W41518  13.279  10.232  13.731  0.0041  0.0198 -0.0870
25385W        W41519  12.408  14.473   2.310 -0.0941 -0.2500  0.1483
25386W        W41520   3.629  16.557  11.879  0.1026 -0.0824 -0.0293
25387W        W41521  10.483   1.390  13.765  0.1276 -0.1274  0.1113
25388W        W41522  14.700  10.096   4.854 -0.3484 -0.0157 -0.1001
25389W        W41523   1.078  15.645  11.523 -0.3577  0.1160 -0.2089
25390W        W41524   4.519  14.976   5.182 -0.0393  0.0707 -0.0495
25391W        W41525   8.522  18.757   1.682 -0.2031 -0.1801 -0.1894
25392W        W41526   8.917   3.730   4.956  0.0667 -0.1016 -0.2089
25393W        W41527   8.439  10.189   3.409  0.0199 -0.1386  0.0816
25394W        W41528  12.135   4.534   5.719  0.1860  0.1432 -0.2845
25395W        W41529  10.560  12.811  11.992 -0.1212 -0.4000  0.0230
25396W        W41530  16.260   8.867   4.669 -0.0176  0.3720  0.0085
25397W        W41531   4.089   0.383  12.975  0.3158  0.0191  0.0607
25398W        W41532  12.351  10.120  10.428  0.0861 -0.0022  0.0025
25399W        W41533  10.100   3.900  11.315  0.2570  0.1558 -0.3384
25400W        W41534  11.074  13.338   3.524 -0.0589 -0.1638 -0.2930
25401W        W41535  18.483  16.248  12.875  0.0298  0.0619 -0.0345
25402W        W41536   1.373   4.217  12.824 -0.1774 -0.0329  0.1710
25403W        W41537   9.435   1.613  14.101  0.1169  0.0035 -0.0235
25404W        W41538  10.530  17.136  11.194 -0.0318  0.2254 -0.0036
25405W        W41539  11.554   5.776  14.768 -0.2442  0.0409  0.1275
25406W        W41540   6.535  14.861  14.065 -0.0926 -0.0641 -0.1493
25407W        W41541   3.906  12.720   3.206  0.1260  0.1248 -0.3824
25408W        W41542  16.570   2.845  14.045  0.4419  0.0514  0.1921
25409W        W41543   7.917   7.466  10.554 -0.2153 -0.0181 -0.1581
25410W        W41544   4.513   3.542   0.903 -0.0863 -0.2321  0.0209
25411W        W41545  15.380  18.713  14.681 -0.4351  0.0213 -0.3951
25412W        W41546   9.062  17.243   4.125  0.1560  0.1196  0.3356
25413W        W41547  14.151  18.450  13.102 -0.1043 -0.0021  0.0704
25414W        W41548  10.406   5.390   9.708 -0.2196 -0.0709  0.1394
25415W        W41549   9.509   4.262   1.330 -0.2642  0.4081 -0.0914
25416W        W41550  12.687  10.512   2.551 -0.0384 -0.1243 -0.1150
25417W        W41551  17.096  11.422   0.089 -0.0519 -0.1458 -0.0983
25418W        W41552   7.693   8.342   4.079 -0.0283 -0.1243  0.1461
25419W        W41553   5.884   9.635   3.309 -0.1042 -0.0875  0.2118
25420W        W41554   2.200  15.611   5.649 -0.0222  0.0095  0.2759
25421W        W41555   6.252   7.680  11.066 -0.3042 -0.1553 -0.1439
25422W        W41556   1.118   1.967  14.795  0.0143 -0.1765  0.1453
25423W        W41557  16.515  14.933  14.372  0.1057  0.2937  0.0822
25424W        W41558   9.897  12.993   0.683 -0.2926  0.0034  0.2283
25425W        W41559  17.746   9.192  12.432 -0.0978 -0.3275 -0.0408
25426W        W41560   4.709  10.602   1.938  0.1209 -0.1325  0.1954
25427W        W41561   2.001   8.176   4.931 -0.1570  0.2711  0.0608
25428W        W41562   9.044   5.687  14.061  0.3577  0.3268 -0.2709
25429W        W41563   1.368   3.395   1.957 -0.0263 -0.1453  0.0822
25430W        W41564   4.365   1.749   1.876 -0.0780  0.0726 -0.3016
25431W        W41565  13.065   2.880  10.960 -0.2534 -0.3286  0.0641
25432W        W41566   5.111  11.339  10.683  0.0275  0.2238  0.2985
25433W        W41567  10.739   0.711   1.184 -0.3095  0.0991  0.0768
25434W        W41568  14.083   6.894  13.088 -0.1636  0.0471 -0.0150
25435W        W41569  10.437   7.937  11.639  0.1942  0.0633 -0.0671
25436W        W41570   5.228   9.926   4.587 -0.0548  0.0257  0.0862
25437W        W41571   4.353   1.921   4.028 -0.0435  0.0408  0.0122
25438W        W41572  12.985  17.865  13.150 -0.1132  0.1336 -0.4236
25439W        W41573   9.488  18.050  14.070 -0.1710 -0.3153  0.5088
25440W        W41574  17.287  15.559  11.300 -0.0303  0.1387  0.1202
25441W        W41575   1.598  18.890  12.892  0.0463  0.4309 -0.2577
25442W        W41576   1.153   6.661   1.753 -0.2489 -0.3400 -0.0737
25443W        W41577  10.017  18.842  13.193 -0.0092  0.0063  0.3554
25444W        W41578  18.699   8.212   3.974 -0.0644  0.2746  0.1263
25445W        W41579   8.828  11.326   0.482 -0.2085  0.2423  0.0271
25446W        W41580  11.653   0.545   4.792  0.1206  0.1392  0.1865
25447W        W41581   7.154  12.123   0.457 -0.1622  0.2169  0.0616
25448W        W41582   4.001   5.303  11.382  0.2751  0.1703  0.0783
25449W        W41583   1.898   9.100   3.062 -0.0443  0.2847 -0.0247
25450W        W41584   4.345   0.233   0.968 -0.0225  0.2753  0.2086
25451W        W41585   9.506  18.514   2.497 -0.0993  0.0101  0.0465
25452W        W41586  18.560   6.142   2.967 -0.0929 -0.0021  0.1772
25453W        W41587   5.546   4.554   2.002  0.0282  0.2845 -0.1541
25454W        W41588   0.447   1.607   1.118 -0.0325  0.2836 -0.2229
25455W        W41589  15.473   8.568  15.137  0.0652  0.0598 -0.1713
25456W        W41590  12.837  10.627   4.700  0.1217  0.3394 -0.1746
25457W        W41591  14.081  12.938   0.770 -0.0557  0.2913  0.1147
25458W        W41592  18.937  16.096   5.044  0.1800  0.0547  0.4203
25459W        W41593   0.720   3.292   3.245 -0.0303  0.1829  0.2287
25460W        W41594  11.664  13.107   1.831 -0.0563 -0.1096 -0.3141
25461W        W41595   6.005  16.787  10.742 -0.0457  0.0407  0.0030
25462W        W41596   1.089   1.983  15.283  0.1063 -0.1657 -0.2319
25463W        W41597   3.349  16.731  14.426  0.0607  0.2946 -0.1195
25464W        W41598   3.029   2.861  13.424  0.0231 -0.0285 -0.0596
25465W        W41599  10.692   8.577  12.025  0.0712  0.0227  0.0419
25466W        W41600  10.207   8.047   3.653  0.0201  0.1353  0.3762
25467W        W41601   4.985   1.878  13.622 -0.0642 -0.3577  0.3930
25468W        W41602   5.610   0.756   4.086  0.1040 -0.3239  0.0382
25469W        W41603   3.619   7.396   2.613  0.1160  0.1222 -0.0115
25470W        W41604  16.774  16.540  13.649 -0.3178 -0.1131 -0.1003
25471W        W41605   2.885  13.502   3.749  0.1507  0.1717  0.0600
25472W        W41606   6.565  18.273   4.885 -0.0518 -0.1588 -0.1939
25473W        W41607   3.064   2.750   0.139  0.1278 -0.0929  0.0644
25474W        W41608  18.522  17.071   5.521 -0.3839  0.0547  0.1924
25475W        W41609   3.434  10.491   0.702  0.0386  0.0255  0.0222
25476W        W41610   2.146  16.475   0.342 -0.1823 -0.1358 -0.1231
25477W        W41611   7.263  12.802  15.202 -0.2254 -0.1798  0.4120
25478W        W41612  15.209  15.265   1.553  0.1333  0.3588  0.0194
25479W        W41613   5.545  10.247  11.071  0.0103 -0.0405  0.0091
25480W        W41614   7.788   2.204   9.694 -0.3047  0.1045  0.1684
25481W        W41615   6.149   4.521   3.303 -0.2291  0.0427 -0.0029
25482W        W41616  10.450   6.849   4.474  0.4512 -0.2252  0.2246
25483W        W41617  14.327   2.221  14.269  0.1897 -0.1318 -0.3046
25484W        W41618  18.082  12.428   5.662  0.1566  0.0986  0.2257
25485W        W41619   6.497   5.171   1.681 -0.3273  0.2759 -0.2784
25486W        W41620   8.361   4.870  14.759  0.0558  0.0085  0.5541
25487W        W41621   7.574  13.659   3.015 -0.1278  0.0030  0.2124
25488W        W41622  18.629   2.109   1.305  0.0396 -0.1051  0.1459
25489W        W41623  13.151  18.879   2.949  0.1998 -0.2344 -0.0947
25490W        W41624  12.642  13.689   9.077 -0.1531  0.1153  0.0120
25491W        W41625  14.979  11.949  12.914  0.1610  0.0208  0.3167
25492W        W41626   0.297  17.763   4.723 -0.0638 -0.2640  0.1165
25493W        W41627   8.105  10.691  14.198  0.0303  0.0520  0.0568
25494W        W41628   6.725   3.787  12.961  0.1041  0.3074 -0.3989
25495W        W41629   6.604  12.666  14.285 -0.1153  0.0358  0.2290
25496W        W41630   1.782   1.700  10.730 -0.3448 -0.3495 -0.1056
25497W        W41631   3.360  17.436  11.285 -0.2021  0.0167  0.0956
25498W        W41632   7.243   5.410   3.023  0.1197  0.2639 -0.1978
25499W        W41633   3.354  14.157  13.680 -0.0266  0.1091 -0.3974
25500W        W41634  14.895  12.609  13.618  0.1074  0.0635 -0.1654
25501W        W41635   0.747  17.491   3.472 -0.1848 -0.2970  0.2269
25502W        W41636   2.923  18.300   1.651 -0.3591  0.3153 -0.0786
25503W        W41637  16.490  11.447   3.357 -0.0174 -0.0549  0.1834
25504W        W41638   0.258   0.984   4.225  0.0147  0.0594 -0.0860
25505W        W41639   0.767   0.260   4.205  0.0605  0.1821 -0.4182
25506W        W41640   8.399   2.055  11.679 -0.2422 -0.1815  0.3428
25507W        W41641   3.492  16.901   1.606  0.0948 -0.0617 -0.1211
25508W        W41642  12.692   0.325  14.731  0.1585  0.0534  0.1281
25509W        W41643  18.697   1.889   2.399 -0.2239  0.2854  0.3709
25510W        W41644   7.414   2.701   2.606 -0.2019 -0.0878  0.1513
25511W        W41645   2.094   6.744  10.554 -0.1005 -0.2046  0.1247
25512W        W41646  13.454  11.272   2.584 -0.0747 -0.4383 -0.1042
25513W        W41647   3.932   4.922  15.133  0.1608  0.3496  0.1656
25514W        W41648   5.998   2.062   4.242  0.2787  0.1600  0.2110
25515W        W41649  10.171   2.139   3.471  0.1781 -0.1586  0.2722
25516W        W41650   9.994  15.250   4.223  0.0200 -0.2612 -0.1844
25517W        W41651   2.867  11.954  11.480  0.0786  0.0505 -0.2593
25518W        W41652   3.340   4.885  15.099  0.0094  0.3035 -0.2379
25519W        W41653   8.965  12.303   5.046 -0.0443 -0.2254  0.0312
25520W        W41654  14.271  16.536  13.632  0.2641  0.1317  0.1685
25521W        W41655  13.887  15.372  10.581 -0.1205 -0.3477  0.3110
25522W        W41656   1.181   1.844   5.167  0.2485  0.0258 -0.1177
25523W        W41657   6.273   3.245   1.142  0.0800 -0.3772 -0.1060
25524W        W41658   8.614  10.744   1.677 -0.0256 -0.0020 -0.1428
25525W        W41659   3.101   2.672   0.944  0.1820  0.0075 -0.1441
25526W        W41660   4.649   7.985   3.328 -0.3058  0.1493 -0.1992
25527W        W41661  13.530  13.188   2.000  0.2371 -0.2404  0.2988
25528W        W41662   6.196   8.542  13.104 -0.2104  0.0054 -0.1065
25529W        W41663  12.876   6.700  12.734 -0.1903  0.0030  0.0694
25530W        W41664   6.661   4.735   1.931 -0.2577  0.2462  0.0399
25531W        W41665  16.050  18.537  13.397  0.0304 -0.2848  0.2437
25532W        W41666  16.502  14.119  14.607  0.2356  0.2363 -0.0326
25533W        W41667   6.177   3.842  11.854 -0.0212 -0.2958 -0.1010
25534W        W41668   5.956   3.910   1.040  0.0032  0.0414 -0.0484
25535W        W41669   6.189   1.509   0.742  0.3417 -0.0889 -0.0549
25536W        W41670   2.668   7.841   9.662  0.1588  0.0966 -0.0758
25537W        W41671  14.380   2.226   1.342  0.3374  0.5487  0.3105
25538W        W41672   3.431  10.185  14.408 -0.1002  0.0418  0.1199
25539W        W41673  15.953   3.127  12.538  0.2006 -0.0662 -0.3330
25540W        W41674   1.207   4.459   1.012  0.1754  0.1036  0.0556
25541W        W41675   2.512  12.829  11.058 -0.4685 -0.0477  0.0806
25542W        W41676   7.064  10.837   3.037 -0.1173 -0.0706  0.0560
25543W        W41677  12.359   2.301  11.561  0.4633  0.0128 -0.2305
25544W        W41678   6.994  16.263  13.475 -0.3046  0.0483  0.0970
25545W        W41679   7.232   5.379  14.282  0.1034 -0.2099 -0.0390
25546W        W41680  12.981   8.892  12.840 -0.1960  0.2549  0.0399
25547W        W41681  15.156  13.548   1.513  0.5506 -0.1836  0.1377
25548W        W41682   6.871   3.578  11.579  0.1866 -0.0012 -0.0813
25549W        W41683   2.135  18.251  12.579  0.0560  0.0684  0.1337
25550W        W41684  16.638   7.860   1.683 -0.1711 -0.1441 -0.1618
25551W        W41685  18.767  16.011  14.230  0.1948 -0.0583 -0.3396
25552W        W41686  16.740   3.864  14.342  0.0769  0.0135  0.1110
25553W        W41687   7.179   8.586   0.305 -0.1572  0.0395  0.0643
25554W        W41688  10.843  18.440  10.587  0.2131  0.0352  0.0945
25555W        W41689   9.144   5.185   5.025 -0.1717  0.0453  0.1024
25556W        W41690   8.600  16.349  14.604 -0.4124  0.0661  0.0992
25557W        W41691  14.295  13.630   0.168 -0.3004  0.1606 -0.0907
25558W        W41692  12.129  17.578   4.459 -0.1702 -0.2652 -0.0459
25559W        W41693  16.364   6.866  12.175  0.0624  0.1726  0.2026
25560W        W41694   6.285  17.815   4.593 -0.0531  0.1677  0.1059
25561W        W41695   5.672   5.556  13.913 -0.2904 -0.0797  0.0526
25562W        W41696   5.055   8.182   9.249 -0.0492 -0.0688  0.1752
25563W        W41697   9.276   0.697   5.016 -0.0712  0.1143  0.0832
25564W        W41698  16.401   3.425  10.637 -0.0767 -0.3329  0.1286
25565W        W41699   4.741   2.835   4.580  0.0030  0.1555  0.0779
25566W        W41700   4.623  12.041   2.351  0.0541  0.2829  0.1509
25567W        W41701  13.437  17.735  13.079  0.0171  0.1518 -0.2917
25568W        W41702  12.730  15.095   0.677 -0.2235 -0.0285  0.1268
25569W        W41703   4.652   5.015   4.162 -0.1485 -0.1585 -0.1843
25570W        W41704  17.585  15.674  14.860  0.0377 -0.0389  0.0668
25571W        W41705  10.469   7.331  14.765  0.1955 -0.4305 -0.0773
25572W        W41706   4.224  10.117  11.550 -0.3779 -0.2010  0.1487
25573W        W41707  18.700  12.119   0.377  0.2014 -0.1071  0.0769
25574W        W41708  15.711   5.314  11.187 -0.0481  0.0832 -0.1426
25575W        W41709   1.605  17.544   4.945 -0.1718 -0.2045  0.0284
25576W        W41710  14.718   6.038  15.180 -0.0982  0.3362 -0.2176
25577W        W41711  18.834   3.566   0.547 -0.1147  0.2863  0.1037
25578W        W41712  16.968  10.687   0.530 -0.3146  0.0093  0.0980
25579W        W41713   2.153  15.804  12.270 -0.1546  0.1433 -0.0120
25580W        W41714  15.233  16.576   9.741  0.2977  0.1638  0.3944
25581W        W41715  18.248  13.101   3.929  0.1058 -0.0224  0.1723
25582W        W41716  10.680  10.784  14.719 -0.0573 -0.0516 -0.3641
25583W        W41717  12.546   8.236  11.590  0.1757 -0.3782  0.3329
25584W        W41718  14.157  11.165  12.071 -0.0582 -0.2512  0.1218
25585W        W41719   5.887  11.329  11.791  0.1173 -0.1895 -0.3025
25586W        W41720   5.744  14.567  12.060  0.0818  0.1232  0.0703
25587W        W41721  18.524  10.897  10.935 -0.2291 -0.1883 -0.2915
25588W        W41722   4.296  17.334  11.371  0.1464  0.1112 -0.1325
25589W        W41723   4.896   4.010   3.693  0.3647  0.0572 -0.1398
25590W        W41724   4.329  14.584   3.444 -0.0405  0.3282 -0.3929
25591W        W41725  13.314   7.789   0.447 -0.0784 -0.2694  0.2447
25592W        W41726  17.764   4.895   5.073 -0.6849 -0.0148  0.0639
25593W        W41727   6.855  17.159   4.171 -0.2822 -0.4676 -0.1204
25594W        W41728   4.040  10.314  12.444 -0.0245 -0.1561  0.0147
25595W        W41729   5.410  11.585   4.695 -0.1656  0.0835  0.0708
25596W        W41730  10.519   2.556  13.777  0.1406  0.1960 -0.4653
25597W        W41731   7.640  11.814   5.300 -0.0694 -0.2390  0.1043
25598W        W41732   2.213  15.528   4.015  0.1365  0.2357 -0.1802
25599W        W41733  11.142   7.053  11.037 -0.2081 -0.3279 -0.0612
25600W        W41734  16.881   8.552   2.942  0.1230 -0.1184 -0.1229
25601W        W41735   0.653   1.963   4.989  0.1081 -0.3430  0.0776
25602W        W41736   3.899  14.734   4.403  0.3466  0.1476  0.1204
25603W        W41737   8.732   1.155  13.496 -0.0132  0.1915  0.2014
25604W        W41738   1.878   0.213   1.943  0.3261 -0.1383 -0.1268
25605W        W41739  14.110  18.134  14.533 -0.0790 -0.1681 -0.1315
25606W        W41740  15.669  12.624   1.811  0.0706  0.0046  0.3088
25607W        W41741   0.905   7.410   0.177  0.1109 -0.1290 -0.3869
25608W        W41742   0.173  14.923   3.778  0.0871 -0.0044  0.0506
25609W        W41743  15.136   0.908  15.144  0.3035 -0.0290  0.1176
25610W        W41744  14.521  10.814   2.772 -0.0918 -0.3334 -0.4764
25611W        W41745   7.213  18.996  15.049 -0.0691 -0.0705 -0.1812
25612W        W41746  13.678   6.651   5.334  0.2606 -0.0927 -0.1601
25613W        W41747  16.557  12.800  12.967  0.0598 -0.0025  0.0898
25614W        W41748   9.208   4.373  12.638 -0.2670  0.2334  0.3683
25615W        W41749  13.297   5.377   3.127 -0.1168  0.1864  0.2888
25616W        W41750   3.479  12.197  11.534  0.1284  0.3106 -0.1449
25617W        W41751   2.704   0.878   5.099 -0.1847  0.1637 -0.3536
25618W        W41752   5.430   9.423   0.806 -0.3966 -0.0510  0.0293
25619W        W41753  13.035  11.630   3.416 -0.0429  0.1091  0.0490
25620W        W41754  15.471  12.971  11.802 -0.2112 -0.0825  0.1903
25621W        W41755  13.750   7.872  14.382 -0.2079 -0.2341  0.0371
25622W        W41756  15.506  11.068  11.435 -0.0824  0.2178  0.0605
25623W        W41757   6.371   3.683   3.353 -0.0172  0.3238  0.2750
25624W        W41758  12.569  15.761  12.037 -0.1187  0.2683  0.1576
25625W        W41759   7.723  16.248   0.811  0.1982 -0.3809 -0.1490
25626W        W41760   6.935  18.347   3.430  0.1464  0.1137  0.0670
25627W        W41761  16.087  11.515   4.414 -0.1207 -0.2580 -0.1889
25628W        W41762   8.721   0.629  14.544 -0.1732 -0.3033 -0.0671
25629W        W41763   5.769  14.152   3.057  0.0580 -0.1204  0.0903
25630W        W41764   4.714   4.509   3.563  0.3535 -0.0383  0.0337
25631W        W41765  17.559   3.634   3.374 -0.3524  0.0103  0.0942
25632W        W41766   2.562   9.336  11.676  0.1380  0.4012  0.2270
25633W        W41767   1.157   6.126  14.931 -0.3895  0.4026 -0.1052
25634W        W41768   2.192   2.963   1.541  0.0433  0.1724 -0.3680
25635W        W41769   2.723  11.658  13.243  0.1069  0.1833 -0.3135
25636W        W41770  17.352  18.393   2.744 -0.1230  0.0206 -0.1737
25637W        W41771   2.888  17.062   2.944 -0.4421  0.2020 -0.1193
25638W        W41772   5.122   4.080   5.015 -0.0455  0.0236 -0.0391
25639W        W41773   7.857   6.089  14.681 -0.3649 -0.1841  0.1144
25640W        W41774   5.583   9.183   2.655 -0.1579 -0.0615 -0.1256
25641W        W41775   2.979  15.471   1.720 -0.1533  0.2339 -0.2641
25642W        W41776  15.258   7.203   4.067  0.1621 -0.0708 -0.1155
25643W        W41777  10.353   0.145   0.450 -0.1762 -0.1538 -0.0002
25644W        W41778  12.074  14.083   5.236 -0.0636  0.1337 -0.0176
25645W        W41779   7.389  15.357  11.120  0.0468  0.0838 -0.1303
25646W        W41780   2.911   8.026   0.112 -0.0368 -0.0483 -0.0100
25647W        W41781  13.173   7.913   4.371  0.0667  0.0458  0.0513
25648W        W41782  14.649   5.151  15.099  0.1110  0.3555 -0.1670
25649W        W41783   5.956  14.204   5.427  0.1868  0.0825 -0.0776
25650W        W41784   2.541   7.377   0.603  0.3157 -0.3627 -0.0416
25651W        W41785   7.579   5.017  12.955 -0.2539  0.2027 -0.2263
25652W        W41786  18.415  16.930   3.951 -0.0564 -0.0020  0.4797
25653W        W41787   1.280  15.683   3.413  0.0847  0.1156 -0.2315
25654W        W41788   9.261   1.228   5.285 -0.0283 -0.1807  0.3454
25655W        W41789  17.786  13.279   4.847 -0.2029  0.0018  0.0667
25656W        W41790  12.825   4.402   3.113  0.1402 -0.2252 -0.2916
25657W        W41791   5.395   1.671   2.454 -0.2383 -0.3991 -0.1246
25658W        W41792  12.394  15.446  12.827  0.2536  0.0525 -0.4786
25659W        W41793  17.385  16.786   0.630 -0.0548 -0.2712 -0.2543
25660W        W41794   9.314  14.118   2.822 -0.1756 -0.0362  0.0916
25661W        W41795  17.775   5.851   0.669 -0.1827 -0.1139 -0.1214
25662W        W41796   9.944   6.023   5.654 -0.1200 -0.0579  0.0935
25663W        W41797  12.985   1.020   3.933  0.0050  0.0956  0.4983
25664W        W41798  13.492   9.911   5.075 -0.0528  0.0332  0.0560
25665W        W41799   4.404   2.745   2.304  0.3088  0.2533  0.1072
25666W        W41800   0.155   7.974   2.030  0.3082  0.0935 -0.0438
25667W        W41801  12.778  18.245   4.594  0.1723  0.5641  0.0496
25668W        W41802   3.386  11.737   3.843 -0.0260  0.0962  0.3159
25669W        W41803   9.520   6.226  14.606 -0.1063 -0.0698 -0.0817
25670W        W41804  18.162   4.090   5.064 -0.2681  0.0445 -0.0602
25671W        W41805  17.274  18.744  11.387  0.0082 -0.0530 -0.0201
25672W        W41806   3.684  10.807  12.412 -0.2632 -0.0148  0.0051
25673W        W41807   4.376  18.387   4.336 -0.1081  0.1437  0.0172
25674W        W41808  13.354  15.415   2.087 -0.0128 -0.0225 -0.3629
25675W        W41809  13.272  12.965  13.995 -0.0001 -0.0176  0.1146
25676W        W41810   1.286   3.034   4.476  0.0028  0.0124 -0.2962
25677W        W41811  11.285   7.315   3.188  0.4342 -0.0424  0.0003
25678W        W41812  12.600   2.766  10.842 -0.1305 -0.2777 -0.2616
25679W        W41813   0.157   0.673   3.149 -0.0356 -0.1458 -0.0807
25680W        W41814  14.812   0.326   5.906 -0.0540 -0.0355 -0.1162
25681W        W41815  10.161  16.017  14.315 -0.0138  0.0144 -0.3894
25682W        W41816   2.695  15.278   5.590 -0.4028  0.0517 -0.0855
25683W        W41817   2.074  10.015   3.477  0.2222 -0.1602  0.1149
25684W        W41818   6.632   7.389   0.602  0.1191  0.1360 -0.1037
25685W        W41819  10.560   8.758   5.515  0.3802 -0.0047  0.2030
25686W        W41820  10.355  10.642   1.167 -0.1552  0.0633  0.0178
25687W        W41821   1.644   7.492  11.388 -0.1145  0.2684 -0.2521
25688W        W41822  10.688  16.871   1.388  0.1494  0.1786  0.2100
25689W        W41823  11.530   7.786   3.023 -0.0765 -0.1123 -0.0380
25690W        W41824   5.987   8.181   3.460 -0.1168  0.0937 -0.0832
25691W        W41825  17.339  11.662   4.053  0.0502  0.0613  0.0388
25692W        W41826  16.088   8.618  13.114 -0.5059  0.1203 -0.2172
25693W        W41827  10.952   9.508   9.815  0.0147 -0.0386  0.2170
25694W        W41828  14.221   9.658  12.407 -0.2833  0.2825 -0.0171
25695W        W41829  12.986  17.281  11.562 -0.3266  0.1450 -0.0899
25696W        W41830  18.251  11.359  11.381 -0.1546 -0.5752 -0.0460
25697W        W41831   9.142  11.469   3.921  0.1528 -0.2071  0.0949
25698W        W41832   4.165   2.198   5.017 -0.1757 -0.0470  0.2470
25699W        W41833   9.814   2.737   2.623  0.2640 -0.0994 -0.1650
25700W        W41834  11.953  11.130  14.975 -0.0325 -0.0229 -0.0094
25701W        W41835   7.204  17.424  10.582  0.1914  0.1772  0.1232
25702W        W41836   2.637  12.067   1.773 -0.2948  0.0606 -0.1062
25703W        W41837  16.251  18.100   5.381 -0.0277 -0.3103 -0.1600
25704W        W41838  10.686  10.042  11.687  0.0637 -0.4231  0.2330
25705W        W41839  10.373   4.636  10.855  0.0938  0.1946 -0.1986
25706W        W41840   7.168   8.354  14.102 -0.1791  0.0090 -0.3811
25707W        W41841   9.373   5.412  14.387  0.3159  0.2796 -0.1183
25708W        W41842   9.658  18.062   4.144 -0.2834  0.3606  0.0267
25709W        W41843  12.190  11.019  14.576 -0.0469  0.2337  0.0008
25710W        W41844   8.493  17.568  13.268 -0.1623  0.2440 -0.0904
25711W        W41845   7.490  13.626  14.689  0.0101  0.3376  0.1386
25712W        W41846   4.348  10.405   1.013  0.2487  0.0612  0.0909
25713W        W41847   9.964   2.922  11.507  0.2611  0.0097 -0.1314
25714W        W41848   7.179   4.459   0.536 -0.1402 -0.1722 -0.2047
25715W        W41849   5.622   3.897  10.572  0.3891  0.2528 -0.2453
25716W        W41850   0.095  12.858   4.700 -0.0741  0.3779 -0.1064
25717W        W41851  16.268   0.557   9.655 -0.1084 -0.0798 -0.0668
25718W        W41852   2.165   9.815  14.434 -0.0011 -0.0846 -0.1855
25719W        W41853   6.052  12.588   2.585  0.1718 -0.2350  0.0101
25720W        W41854  11.972  12.954  14.559 -0.2097 -0.1995 -0.0704
25721W        W41855  12.781  10.946   4.293  0.1521  0.2394 -0.2178
25722W        W41856  11.699  10.783  11.279  0.0302 -0.3503 -0.0236
25723W        W41857  10.955  17.223   2.503  0.0789 -0.0435  0.1047
25724W        W41858   5.366  17.442  12.587  0.3875 -0.1373 -0.0741
25725W        W41859  12.624  18.954   0.283  0.2283 -0.1386 -0.4195
25726W        W41860   4.982   8.162   2.919  0.2605 -0.2214  0.0162
25727W        W41861   7.117  17.760   1.493 -0.1865  0.1714 -0.2168
25728W        W41862   9.272  16.243  10.716 -0.1248 -0.2035 -0.2190
25729W        W41863   7.628   7.081   0.745 -0.1516  0.1549 -0.0516
25730W        W41864   8.094  13.470  12.698 -0.1087 -0.0997  0.0406
25731W        W41865  11.596  18.104  12.199  0.1922 -0.1361 -0.0279
25732W        W41866  12.995   9.657  11.929  0.0193 -0.0075 -0.1263
25733W        W41867  15.744   7.034   4.562 -0.1742 -0.2034  0.0205
25734W        W41868   4.534  15.038   2.087 -0.0914 -0.2105  0.0353
25735W        W41869   0.057   2.992   0.593  0.0037  0.0909  0.1308
25736W        W41870  12.969   9.463   4.591 -0.0971 -0.0510 -0.2512
25737W        W41871  11.885   3.653   3.029  0.1754  0.1407  0.0151
25738W        W41872   4.654   2.947  14.500 -0.0631 -0.3531  0.1286
25739W        W41873   0.902  18.321   3.364 -0.3108 -0.1238 -0.3432
25740W        W41874  12.988   8.756  12.299 -0.0645  0.1746 -0.0164
25741W        W41875  14.619   7.192   3.241 -0.1293  0.0164  0.1911
25742W        W41876  10.903   1.119  12.531  0.1517  0.0028  0.0868
25743W        W41877  16.504  14.642   2.511  0.0079 -0.1728  0.0789
25744W        W41878  18.659  13.802  12.176 -0.0473  0.0750 -0.2932
25745W        W41879   1.454   8.864   2.213 -0.1557  0.2587  0.1209
25746W        W41880  15.739  12.449  10.717  0.0409  0.1186  0.1959
25747W        W41881   7.215  10.485   4.102  0.0378 -0.0010 -0.1432
25748W        W41882  16.234   1.038   0.028 -0.2621 -0.4073 -0.2421
25749W        W41883   2.100  10.903   1.946  0.1207 -0.3335  0.1324
25750W        W41884  17.844   8.184  12.245  0.1814  0.2499 -0.0625
25751W        W41885   9.211  18.593   1.918 -0.2373 -0.1699  0.1381
25752W        W41886   9.135   2.577   1.030 -0.0216  0.1650 -0.0193
25753W        W41887   1.905  14.329   5.611  0.2820  0.0035  0.0621
25754W        W41888  12.582   4.608  10.622  0.1044  0.2521 -0.0041
25755W        W41889   2.531   4.453   1.991 -0.3887  0.1600  0.3736
25756W        W41890   6.273   5.756   1.989 -0.0284 -0.1863 -0.0719
25757W        W41891   0.939  18.144   2.791 -0.0850  0.2804 -0.0711
25758W        W41892  17.145  18.083  13.373 -0.3818 -0.0501 -0.0700
25759W        W41893  10.592  10.686   2.099 -0.2734  0.0647 -0.2258
25760W        W41894  14.990   5.588  15.042  0.1209  0.1805  0.2016
25761W        W41895  14.794   0.020  13.806  0.0514  0.1576 -0.1346
25762W        W41896   4.184   0.106  13.841  0.1110  0.2338  0.1221
25763W        W41897   0.837  11.168  10.718  0.1629  0.3682 -0.2320
25764W        W41898   6.646   1.083   2.874 -0.0731 -0.0729  0.1827
25765W        W41899   6.903  14.466   1.009  0.1479 -0.1216 -0.2255
25766W        W41900   2.806   1.719  11.137  0.3222 -0.2198  0.0670
25767W        W41901  16.765   9.218   2.797 -0.4779 -0.2690  0.0554
25768W        W41902  17.475  15.463  11.861 -0.1796  0.1523 -0.1756
25769W        W41903   4.453   7.538  12.606  0.2385 -0.0613 -0.2311
25770W        W41904   2.803  16.395   1.636  0.2106  0.1256 -0.0609
25771W        W41905  10.258   0.918   5.620  0.0159 -0.0263  0.1034
25772W        W41906   3.093   9.412   2.732  0.0339  0.3899 -0.4485
25773W        W41907   1.311   9.139  15.019 -0.4018 -0.0997  0.4285
25774W        W41908   0.337   7.257  12.109 -0.1657  0.5868 -0.0676
25775W        W41909   6.944   4.944   2.327  0.0329 -0.2578 -0.0794
25776W        W41910   3.446  15.012   5.296  0.1229 -0.3061 -0.0637
25777W        W41911  17.743  15.136  13.806 -0.1068  0.3886  0.1719
25778W        W41912   8.843   5.831  12.564  0.3157 -0.0520  0.0931
25779W        W41913  14.083   4.872  10.899 -0.2474  0.0783 -0.0530
25780W        W41914  16.489  11.402  11.464 -0.1396  0.1426 -0.0237
25781W        W41915  17.059   3.237  14.462 -0.0307  0.2542  0.0745
25782W        W41916  14.228  14.936  14.591  0.1509  0.0005  0.0529
25783W        W41917  12.726  13.097   3.189 -0.0411 -0.3286  0.0858
25784W        W41918   6.480   5.795   3.464 -0.2554  0.1520  0.0341
25785W        W41919   0.280   0.598   9.459  0.0698  0.0789 -0.0654
25786W        W41920   3.504  14.083   0.224  0.0257 -0.3262 -0.1099
25787W        W41921  14.574  10.578   1.814  0.3521  0.0654  0.3255
25788W        W41922  18.952   1.352  13.542 -0.1615 -0.1869 -0.0225
25789W        W41923   9.922  18.844   1.232  0.0867 -0.3108 -0.0252
25790W        W41924   7.448   7.247  11.317  0.0080  0.0008  0.0120
25791W        W41925  15.223   8.049   3.862 -0.1148  0.1319 -0.0245
25792W        W41926  14.266   2.977  12.715 -0.4357  0.1098  0.0184
25793W        W41927  10.100  17.313   5.635  0.3329  0.3073 -0.0411
25794W        W41928   9.615   0.412   5.258 -0.3417 -0.1373  0.1256
25795W        W41929  10.917   7.304  14.989 -0.2983 -0.0792  0.1176
25796W        W41930  16.105   0.714  11.138 -0.1154 -0.3103 -0.0980
25797W        W41931  14.290   0.443   0.198  0.3726  0.0424 -0.0114
25798W        W41932  12.552   0.466   2.236  0.1788  0.2794  0.0264
25799W        W41933   4.850  18.500  13.798  0.0600 -0.0625 -0.2821
25800W        W41934   5.712   5.448   9.132  0.0375 -0.0947  0.3101
25801W        W41935  18.484   7.563  12.596 -0.0745  0.2727 -0.0872
25802W        W41936  18.314   7.634   4.931 -0.3530  0.4660 -0.2846
25803W        W41937   2.028   8.364   1.848  0.0168 -0.2647  0.2249
25804W        W41938   3.512   9.150  10.775 -0.1450  0.0294  0.3899
25805W        W41939   5.275  12.585   2.821 -0.1922  0.0732 -0.0689
25806W        W41940   1.799   1.734  13.250  0.0928 -0.0550  0.1656
25807W        W41941  14.672   1.528  10.909 -0.0605 -0.3866  0.0861
25808W        W41942   3.622  15.628  12.863  0.1785  0.0306 -0.0373
25809W        W41943   2.917   9.980  15.269 -0.0882 -0.1121 -0.2481
25810W        W41944   5.440  17.153   0.095 -0.0357 -0.2302 -0.1400
25811W        W41945  12.947  10.222   5.097 -0.1550  0.1272 -0.0888
25812W        W41946   8.909  17.311   3.327  0.4197 -0.0527 -0.0640
25813W        W41947  16.414  14.275   5.204  0.1386  0.0694  0.3420
25814W        W41948   1.324  15.944   4.936 -0.2980  0.0690  0.0362
25815W        W41949   3.209   8.551   3.806 -0.0761 -0.2201  0.1074
25816W        W41950   1.590  12.907   4.706 -0.0011  0.4563 -0.3020
25817W        W41951  10.674  18.422  14.238 -0.1276  0.0781 -0.1624
25818W        W41952  13.486   7.027  13.604 -0.0378 -0.0307 -0.0583
25819W        W41953   0.186   0.341   2.198  0.0511  0.3428 -0.1360
25820W        W41954  15.097  18.768   5.660  0.1126 -0.0504  0.1394
25821W        W41955   6.672  11.815   3.021  0.0772 -0.1852 -0.0342
25822W        W41956   0.374  10.764   0.289  0.2873 -0.1590 -0.0951
25823W        W41957  16.038   8.950  12.741 -0.1526  0.1682  0.1630
25824W        W41958   4.657   1.475  13.380 -0.0428  0.0433 -0.0129
25825W        W41959  10.849   9.372   3.754 -0.3889 -0.1265  0.2179
25826W        W41960   2.474  18.217   4.094  0.1699  0.0378 -0.1336
25827W        W41961  17.965  11.015  11.056  0.1772  0.0161  0.0535
25828W        W41962   0.458  17.912   0.296 -0.1833  0.1183 -0.1212
25829W        W41963   7.768  14.721  10.028  0.1783 -0.3247 -0.1242
25830W        W41964   3.111   8.530   1.162  0.2489  0.1151  0.1831
25831W        W41965  12.482   4.686   1.358 -0.1498  0.0143 -0.2086
25832W        W41966   2.391  14.937   3.867  0.0570 -0.0436 -0.1410
25833W        W41967   3.912   5.102  12.409  0.0867  0.2644  0.1118
25834W        W41968  15.432  10.995   1.221  0.0473 -0.1086  0.0048
25835W        W41969   9.319   9.917   0.476 -0.2422 -0.0322 -0.0082
25836W        W41970  11.895  16.771   2.405  0.1425 -0.0939 -0.2328
25837W        W41971  12.946  17.225  15.143  0.3154 -0.1958  0.2610
25838W        W41972   7.124  13.620   0.912 -0.0948  0.0393  0.0703
25839W        W41973   7.834   1.240  12.490  0.2438  0.4367 -0.1446
25840W        W41974   1.453  11.057   1.232 -0.2049 -0.0054 -0.2541
25841W        W41975   0.213   8.798  15.174  0.1423  0.0582  0.0026
25842W        W41976   5.422  17.504   9.619  0.3329  0.1968 -0.1754
25843W        W41977   8.102   8.662  12.024 -0.1889 -0.0979 -0.3043
25844W        W41978  15.230  18.594   4.994 -0.2333  0.1000 -0.2490
25845W        W41979  11.017   2.161   0.520 -0.1701  0.2679  0.0845
25846W        W41980  17.877  11.120   1.733 -0.2785  0.0190  0.0837
25847W        W41981  10.805  17.758   2.812  0.4047  0.1455  0.1130
25848W        W41982   2.837   3.241   3.305 -0.0838  0.2095  0.0784
25849W        W41983  11.539   0.720   4.204 -0.0792  0.0330 -0.1333
25850W        W41984   2.303   1.405  11.583 -0.2796  0.0426 -0.0271
25851W        W41985  15.567   4.076  14.360 -0.1067  0.1532 -0.0508
25852W        W41986  11.875  14.221   2.262 -0.1675 -0.1208 -0.3169
25853W        W41987  10.628   8.167   3.810  0.1399 -0.2591  0.1201
25854W        W41988   1.961  18.009   0.148 -0.1267 -0.0620  0.0462
25855W        W41989  18.274  11.172   3.929  0.0168 -0.0979 -0.2422
25856W        W41990   8.172  11.262  11.619 -0.2507  0.0799  0.2069
25857W        W41991   6.005  11.429  10.838  0.3696 -0.0184 -0.0627
25858W        W41992  11.256  16.950  14.749  0.1551 -0.0069 -0.0048
25859W        W41993  13.736  12.757  12.767  0.2475  0.0924  0.4708
25860W        W41994  17.565   7.239   2.915 -0.3724  0.2632 -0.2784
25861W        W41995  11.929  14.449   4.722 -0.1898 -0.1753  0.2575
25862W        W41996  15.225   7.488   2.699 -0.2153  0.0289 -0.0222
25863W        W41997  11.426  10.840  11.956  0.0582 -0.0627  0.0290
25864W        W41998  10.791   7.772   1.094  0.1175 -0.3102  0.0236
25865W        W41999   1.977  11.777  10.662  0.1446 -0.1048  0.2657
25866W        W42000  17.598  11.756  10.777  0.0751 -0.3860  0.0088
25867W        W42001   2.509   9.836  10.768 -0.2765  0.1697  0.0663
25868W        W42002  13.931   1.223   4.464  0.3927 -0.0648 -0.0976
25869W        W42003   0.936  18.823  10.727 -0.2216  0.0941  0.1998
25870W        W42004  14.178   7.719  14.613  0.0161 -0.0790  0.0168
25871W        W42005  17.016  10.779  14.657 -0.1544 -0.1129 -0.0801
25872W        W42006  14.512  11.599   1.866 -0.1886  0.1323 -0.1701
25873W        W42007  15.846  14.075  15.120  0.2748 -0.0654 -0.0155
25874W        W42008   8.836   3.567   5.679  0.2173  0.0532 -0.2593
25875W        W42009  13.422   5.910   3.089 -0.2446  0.2365 -0.0483
25876W        W42010   1.877  13.212   0.823 -0.1303  0.1752  0.1167
25877W        W42011  17.651   9.923   4.242  0.0385 -0.1144 -0.2624
25878W        W42012   4.702   3.160  10.025  0.0028 -0.0666 -0.0640
25879W        W42013   2.491  17.170   2.651  0.0360  0.0513 -0.0677
25880W        W42014   8.462  14.263   3.315  0.3613 -0.2245  0.2063
25881W        W42015   5.914  12.255   3.470 -0.2040 -0.0474  0.0285
25882W        W42016   4.685  16.853   4.350 -0.0640  0.1624  0.1001
25883W        W42017   4.180   5.205   2.548  0.3664  0.1322 -0.2456
25884W        W42018   3.005   8.965  14.332 -0.1396 -0.0228 -0.1438
25885W        W42019  18.751   7.680  14.668 -0.0940  0.0625 -0.0204
25886W        W42020  13.341  14.544   2.476  0.2931 -0.1772 -0.1024
25887W        W42021   4.772   4.864  14.685 -0.4369  0.0219 -0.0272
25888W        W42022  10.668   6.457   4.186 -0.0344  0.0519 -0.0646
25889W        W42023   4.296  17.814   0.033  0.3638 -0.3055  0.0460
25890W        W42024   2.258  12.332  14.258 -0.2938 -0.1130 -0.0073
25891W        W42025   3.244   3.713  10.872 -0.0545 -0.0526 -0.0878
25892W        W42026   9.699   8.505  11.055 -0.0116  0.3278  0.1144
25893W        W42027  13.084  13.535  11.810  0.0743  0.0497  0.0624
25894W        W42028   7.579   5.980  12.019 -0.1389  0.0505  0.1821
25895W        W42029   5.972   6.207   3.961 -0.0798 -0.2118 -0.3856
25896W        W42030   7.865   0.750   1.947  0.1065 -0.2422  0.1507
25897W        W42031  10.559   7.106   1.785 -0.2350 -0.1748 -0.0065
25898W        W42032  16.308  11.850   2.053  0.1054 -0.1927  0.1652
25899W        W42033   3.599   9.728  14.154  0.2294 -0.2126  0.0296
25900W        W42034   7.382  16.294   4.049  0.3271 -0.0729 -0.1636
25901W        W42035   8.751  11.488  13.052 -0.1690  0.0945 -0.2307
25902W        W42036   9.772  12.978  12.204 -0.0130  0.2562 -0.4078
25903W        W42037  16.773   0.769   5.134 -0.0223 -0.0308  0.1193
25904W        W42038  18.160   1.972  12.069  0.0279  0.1583 -0.2541
25905W        W42039   5.701  15.725  13.557 -0.0170  0.0680  0.0121
25906W        W42040   8.124  17.483  15.047  0.1702  0.0659 -0.0392
25907W        W42041  14.409   9.222  12.776  0.1842 -0.5612  0.4179
25908W        W42042   9.016   3.265  10.435  0.0531 -0.2656 -0.2198
25909W        W42043  18.547  10.731   2.382  0.0639 -0.1289 -0.1291
25910W        W42044  12.213  11.538  10.284  0.0477  0.0428  0.1267
25911W        W42045   2.062  13.693   2.514  0.2147  0.2185 -0.1757
25912W        W42046  18.481  10.987   2.810 -0.1497  0.0461  0.1349
25913W        W42047  13.181   4.234  10.718  0.0554  0.0364 -0.2562
25914W        W42048  18.281  17.931  14.259 -0.1890  0.1195  0.0504
25915W        W42049  14.844   8.523   1.229  0.0925  0.0246  0.1394
25916W        W42050   1.831   4.646  11.668  0.0811  0.2902 -0.0511
25917W        W42051   4.079  15.836   0.882 -0.0279 -0.0420 -0.0116
25918W        W42052  18.985  18.829  13.660 -0.1719  0.2209  0.0707
25919W        W42053  11.040  16.760   0.452  0.2179 -0.1212  0.0768
25920W        W42054  17.151   2.852   3.997 -0.3051  0.0942 -0.2720
25921W        W42055   9.318   9.975   3.092  0.0143  0.1858  0.1036
25922W        W42056  12.688  12.523   3.187 -0.0598 -0.1893 -0.1475
25923W        W42057  16.205  15.104  13.828  0.1803  0.0434  0.2767
25924W        W42058  16.338   0.113   3.233  0.1137  0.4772  0.1201
25925W        W42059  13.567   7.890   4.671 -0.0671 -0.1915  0.0306
25926W        W42060   8.369  18.745  12.553 -0.1041 -0.2757 -0.2984
25927W        W42061  11.598  16.928   5.348  0.0543 -0.2436  0.0406
25928W        W42062  18.471   8.672   3.100 -0.0407 -0.2439  0.0389
25929W        W42063   1.670  12.958   2.022 -0.0958 -0.2550  0.1015
25930W        W42064  17.347  11.147   1.818  0.3275  0.0121  0.2750
25931W        W42065   7.426  16.572  12.507 -0.0049  0.0210 -0.2501
25932W        W42066  10.087  11.443  12.341  0.3042  0.2570 -0.2458
25933W        W42067  16.048  12.841   3.985  0.1220  0.0036 -0.0141
25934W        W42068  13.271  10.893   3.765 -0.2030  0.0496  0.1114
25935W        W42069   4.631   4.052   5.089  0.1202 -0.0034  0.1569
25936W        W42070  13.504   3.702  14.681 -0.3833 -0.1670  0.0866
25937W        W42071   0.907  18.008  10.214 -0.1316 -0.1556 -0.0528
25938W        W42072  18.581  10.452   3.025 -0.1815 -0.1743 -0.0969
25939W        W42073   6.865   5.279  13.142  0.3317 -0.1758  0.1520
25940W        W42074  17.286  13.599  10.424 -0.0120  0.0027  0.0939
25941W        W42075  15.223  14.044   5.075  0.0388  0.0366  0.0888
25942W        W42076  18.489  16.800  13.457 -0.3248  0.2652  0.0929
25943W        W42077  10.091   6.869   1.285  0.0796  0.1911 -0.1882
25944W        W42078   3.212  15.441   3.555  0.0667 -0.1570 -0.0604
25945W        W42079  18.790   1.912   5.015 -0.0599 -0.2540 -0.2475
25946W        W42080  12.463   5.352   0.629  0.0537  0.0578  0.0856
25947W        W42081  13.013  11.653  12.373 -0.1592 -0.0424  0.0032
25948W        W42082   6.785  12.501   2.808  0.3259 -0.0939  0.2506
25949W        W42083   7.724  14.813   1.180 -0.0329 -0.0079 -0.0469
25950W        W42084  18.012   8.479  13.058 -0.3095  0.2453  0.2123
25951W        W42085   3.495   0.870  14.974 -0.1365  0.0474  0.0944
25952W        W42086  15.486  12.244  12.948  0.1485 -0.0876 -0.0410
25953W        W42087  13.959   4.592  13.334 -0.1930 -0.2753 -0.1293
25954W        W42088  18.890  14.702   1.565  0.1788 -0.1074  0.0524
25955W        W42089   3.071  12.521  15.223  0.3259  0.0695 -0.1477
25956W        W42090  12.872  12.270  11.273  0.2080  0.0778 -0.1109
25957W        W42091  16.698   3.948  14.853  0.2613 -0.2223  0.3865
25958W        W42092  11.524  14.481  10.799 -0.0090  0.1591 -0.0308
25959W        W42093   1.129  17.329   4.871 -0.2860  0.1904  0.1099
25960W        W42094   4.322   6.015  15.276 -0.0647  0.2089  0.0534
25961W        W42095  12.272   0.194   3.250 -0.1008 -0.1531  0.0843
25962W        W42096   1.663   1.025   2.472 -0.0963 -0.0073  0.0943
25963W        W42097  18.414   3.498  11.681  0.1841  0.2789 -0.2666
25964W        W42098   2.296  14.870   0.132 -0.0466  0.1302 -0.0329
25965W        W42099   9.748  15.779  12.578 -0.0607 -0.0327 -0.2947
25966W        W42100   7.329   9.870  12.604  0.0274  0.1181  0.2217
25967W        W42101  10.933  16.371   3.244 -0.3017 -0.0341 -0.1152
25968W        W42102   9.267  14.879   5.209  0.0542  0.0591  0.2827
25969W        W42103  18.217  13.998  14.913  0.1080  0.0613  0.1064
25970W        W42104  13.386   4.742   3.571 -0.1707  0.2273  0.0796
25971W        W42105  15.391   5.466  12.468 -0.0315  0.1760  0.0936
25972W        W42106  16.659  14.040   4.185 -0.2056  0.1645 -0.0759
25973W        W42107  18.152   7.159   5.703 -0.1745 -0.1090  0.0265
25974W        W42108  17.425  15.851   3.607  0.0694  0.0811  0.1801
25975W        W42109  11.779  11.726   3.777 -0.0621 -0.2983 -0.0720
25976W        W42110  16.618   7.958  14.764 -0.0764  0.1028  0.1728
25977W        W42111  11.084  15.009   3.893 -0.0722  0.0775 -0.1399
25978W        W42112  11.225   8.000   4.647  0.0278  0.0547 -0.0275
25979W        W42113   4.131  14.963  13.361  0.0579  0.0060 -0.1525
25980W        W42114   0.478   4.895  13.255 -0.0041  0.0911  0.1174
25981W        W42115   1.354   9.727  14.948 -0.1081  0.0930 -0.3173
25982W        W42116   4.179   5.126   2.020  0.0991 -0.2299  0.2086
25983W        W42117  11.451   0.929   3.036 -0.0723 -0.0997  0.0903
25984W        W42118  14.584  11.237  11.810 -0.0642  0.1617  0.2792
25985W        W42119  19.002  14.527  12.313 -0.3370  0.1065 -0.3719
25986W        W42120  13.153  14.351  10.379  0.0504 -0.2398 -0.1876
25987W        W42121  16.460   1.559   5.309  0.0109  0.2681  0.2337
25988W        W42122   1.972   0.684   3.250  0.1878 -0.2188  0.2817
25989W        W42123   5.409   4.268  14.445 -0.0065 -0.0539  0.3578
25990W        W42124  17.429   9.441  10.833 -0.0272  0.1584  0.1522
25991W        W42125   4.323   3.080  11.494 -0.2460  0.0144  0.2358
25992W        W42126  12.358  17.406   0.677 -0.5002 -0.2247 -0.2060
25993W        W42127  11.651  15.984  10.638  0.0772 -0.0121 -0.0803
25994W        W42128  11.957  15.242  10.358  0.2089  0.3938 -0.0035
25995W        W42129   2.807   6.058  12.147  0.2590 -0.2659  0.4806
25996W        W42130  10.049  13.668   0.197  0.1517  0.0572 -0.0897
25997W        W42131   3.991   2.065  13.328  0.0328  0.1651  0.1991
25998W        W42132  15.688   5.816  12.721  0.0452  0.0406 -0.3304
25999W        W42133   7.230  15.934   1.609  0.3218  0.1301  0.1970
26000W        W42134   2.295  14.723  10.809  0.2332 -0.0417  0.0750
26001W        W42135   2.832  15.690  15.199 -0.2100  0.0565 -0.0477
26002W        W42136   1.548   7.139   0.844  0.3744 -0.0530 -0.3395
26003W        W42137  14.539   7.687   3.354  0.0920 -0.1439 -0.2411
26004W        W42138  17.084   8.828  11.290 -0.0761 -0.2314 -0.0867
26005W        W42139  10.034   0.314  14.486  0.1396  0.0013  0.3089
26006W        W42140  10.958  11.978   3.584 -0.1291  0.2774 -0.0299
26007W        W42141  15.330   3.739   3.165 -0.0946 -0.1404  0.2250
26008W        W42142  10.028   4.115   1.372  0.0384 -0.0275  0.1983
26009W        W42143   4.776   0.139   2.413  0.3421  0.0342  0.0121
26010W        W42144   4.564   0.615   4.167  0.3489 -0.1172  0.0120
26011W        W42145  13.052  12.956   1.800  0.0502  0.0486  0.1912
26012W        W42146  15.385  13.527  11.716 -0.0962  0.0215 -0.0845
26013W        W42147   3.987  17.746  13.037  0.2796  0.1984  0.1593
26014W        W42148  17.391   6.529  13.441 -0.0606 -0.0344 -0.2471
26015W        W42149   2.197   8.665   3.000 -0.0860  0.2755  0.0022
26016W        W42150   6.383  14.407   0.616 -0.0711 -0.3527 -0.0677
26017W        W42151  10.183  18.761   1.990 -0.4900  0.0726 -0.0313
26018W        W42152  17.862   7.054  14.834  0.0548  0.2425  0.0752
26019W        W42153  14.105   5.322   0.929  0.0014 -0.3622 -0.0122
26020W        W42154   9.383   4.697  14.008  0.0853 -0.0650  0.1078
26021W        W42155  14.757   8.130  15.028 -0.2401 -0.1288  0.2363
26022W        W42156   6.651   0.952   3.325  0.0631 -0.0771 -0.0370
26023W        W42157   6.215  12.035   3.132 -0.3073  0.0277  0.1986
26024W        W42158   3.145   1.101  11.797  0.1187  0.0051  0.1754
26025W        W42159  16.064   6.068   2.817  0.0011 -0.0362  0.0517
26026W        W42160   1.098   1.009  12.544 -0.1852  0.1431 -0.1238
26027W        W42161   3.558   5.869   5.319 -0.0608  0.0244 -0.2115
26028W        W42162   3.156  13.552  14.218 -0.0909  0.2588  0.0544
26029W        W42163  13.722  10.158   3.241 -0.2235  0.2633 -0.2590
26030W        W42164   0.029   0.020   3.979 -0.0382 -0.1942 -0.2368
26031W        W42165   3.204   9.809  14.617 -0.0624 -0.0574  0.0711
26032W        W42166   5.291  15.558   3.749 -0.1202 -0.0418  0.1249
26033W        W42167  16.774  18.685  14.871 -0.1834  0.4270 -0.1911
26034W        W42168   1.686  18.322   4.524  0.1291  0.1360 -0.0937
26035W        W42169   6.898  15.502  12.914  0.2069 -0.2782 -0.2930
26036W        W42170   1.955  18.649   2.423 -0.2666 -0.1660  0.1483
26037W        W42171  15.667   7.791   0.934 -0.3301 -0.2215  0.0398
26038W        W42172  18.921  10.310   1.839 -0.1859 -0.0587  0.1442
26039W        W42173  17.254  17.515  12.037  0.0841 -0.1068  0.0080
26040W        W42174   5.858  15.581   1.586  0.1937 -0.0834  0.1462
26041W        W42175  13.572   6.568  13.915 -0.1580  0.0214 -0.1716
26042W        W42176   6.825  14.758   5.291 -0.0853 -0.2076 -0.0393
26043W        W42177  16.397   9.550   3.611  0.1630 -0.1609  0.1954
26044W        W42178   2.961   5.034   9.381 -0.0654 -0.0836 -0.0323
26045W        W42179   6.711   9.887   9.849  0.0908  0.3304  0.2991
26046W        W42180   0.973  14.153  15.076  0.0585  0.1162 -0.1170
26047W        W42181   9.416  11.588  11.597 -0.0339 -0.2586  0.0289
26048W        W42182   5.616  13.263   0.745 -0.3300  0.2344 -0.3119
26049W        W42183  13.690  18.149   0.769 -0.1165 -0.1142 -0.0275
26050W        W42184   4.372  15.593   5.896  0.2982  0.0506  0.1691
26051W        W42185  14.170  11.941  10.797 -0.3620  0.0952  0.0954
26052W        W42186   3.906   3.385   3.483  0.3197 -0.0994 -0.2881
26053W        W42187  18.638   1.024   2.655 -0.0612 -0.0822 -0.1295
26054W        W42188  15.433   4.083   1.268  0.0212  0.0012 -0.4145
26055W        W42189   0.420   8.720  10.006 -0.1140  0.1247  0.1936
26056W        W42190   4.290   3.832  14.385  0.2222 -0.0188 -0.1163
26057W        W42191   9.608  16.636   3.941  0.0695 -0.3907  0.0402
26058W        W42192   5.458  18.381   2.632  0.0955 -0.2761  0.0210
26059W        W42193  11.392   1.046  14.001 -0.0187  0.2533 -0.1660
26060W        W42194   2.877   5.744  10.755  0.1396  0.0475 -0.1456
26061W        W42195   0.637   6.339  13.210 -0.0039 -0.1148  0.3039
26062W        W42196   3.293  12.208   3.613  0.0141 -0.2107  0.2487
26063W        W42197   7.130  13.630  14.995  0.0853  0.3097 -0.3235
26064W        W42198  16.554   9.227  13.647 -0.0168  0.1319  0.0810
26065W        W42199  11.594   4.415   3.930  0.3457  0.0591  0.0464
26066W        W42200   5.101  13.277  13.775  0.0190 -0.0776  0.4271
26067W        W42201   3.471   9.845  12.999  0.0272  0.1160  0.1848
26068W        W42202  16.054   2.990  10.600  0.0835  0.2398  0.2719
26069W        W42203   9.314  11.509   9.305 -0.3782  0.0129  0.0301
26070W        W42204   5.589   6.193   3.316  0.2445  0.1970 -0.0900
26071W        W42205  11.389   4.765  12.788  0.3005  0.2210 -0.2698
26072W        W42206  16.725  10.412  14.422  0.0494  0.0274 -0.0794
26073W        W42207   9.292   2.106  14.074  0.0180  0.0756 -0.0069
26074W        W42208   8.774  16.406  12.687  0.1641 -0.0531  0.1315
26075W        W42209  10.420   0.908  15.260 -0.1085  0.0612 -0.0633
26076W        W42210   8.195   5.398   9.302 -0.0928  0.0482  0.1522
26077W        W42211  12.903  16.040   0.813 -0.0096  0.4151  0.2124
26078W        W42212   0.119   7.677  11.849 -0.1816  0.0620  0.3987
26079W        W42213   4.449  11.511   4.630  0.3020 -0.2451 -0.0322
26080W        W42214  18.225   9.259  11.149 -0.2045  0.0063 -0.0568
26081W        W42215  18.909   7.809  12.660  0.0555  0.1087 -0.4017
26082W        W42216  11.939  15.735   0.424 -0.0866 -0.1938  0.2995
26083W        W42217   5.579   3.773   4.174 -0.0343  0.1222 -0.3180
26084W        W42218  15.696   6.056   3.222  0.0077  0.1509 -0.0499
26085W        W42219  10.060   2.517  11.868 -0.2383 -0.0155 -0.0970
26086W        W42220  10.840  12.223  13.437  0.0580  0.2416  0.0501
26087W        W42221  17.237   5.213   1.839 -0.0585 -0.1280 -0.2692
26088W        W42222  17.691   0.953   1.474 -0.0823  0.3257 -0.2248
26089W        W42223  17.180   7.911  11.539  0.2679  0.0976  0.2937
26090W        W42224   1.418  11.431   0.597  0.1912 -0.4316  0.0149
26091W        W42225   2.881   0.425  14.436  0.1791  0.2385  0.0183
26092W        W42226  13.662   1.203  12.823  0.3506  0.3036  0.3991
26093W        W42227   9.939  16.251   0.421 -0.1495 -0.2360  0.2657
26094W        W42228   2.765  15.029  14.339 -0.0960  0.4080  0.1799
26095W        W42229  14.095   8.426   1.577 -0.0850  0.0701  0.0241
26096W        W42230  16.269  12.596   4.397  0.3519 -0.0789 -0.0015
26097W        W42231   5.858  16.640   2.890 -0.0612 -0.0411 -0.0937
26098W        W42232   5.764  13.870  14.244 -0.1904 -0.1448 -0.0095
26099W        W42233   7.228   5.430   1.573 -0.1051  0.2948  0.0144
26100W        W42234   8.000  17.296   5.443 -0.1072  0.2542  0.0068
26101W        W42235   7.638  10.063   2.763  0.1245  0.1286  0.2659
26102W        W42236  14.936   4.939   1.433  0.0602 -0.1893  0.0929
26103W        W42237   2.308   5.385   1.977 -0.0461  0.1730 -0.2151
26104W        W42238   4.198   7.420   0.485  0.2172  0.1604 -0.1194
26105W        W42239  12.024   3.705   0.179  0.0091 -0.1322 -0.0061
26106W        W42240   6.839   8.659  15.115 -0.1274  0.2779  0.0222
26107W        W42241   4.408   6.278  11.795  0.1801 -0.1500  0.0441
26108W        W42242   6.878   8.855  11.140  0.2976  0.1077  0.0292
26109W        W42243   0.880  13.050   3.253  0.1715  0.1235  0.5192
26110W        W42244  11.595  14.286  13.597 -0.1095 -0.1173 -0.0287
26111W        W42245  16.410  13.909  10.054 -0.1685  0.1109 -0.2183
26112W        W42246  12.214   5.739   4.783  0.1872 -0.1338 -0.0746
26113W        W42247   2.556   0.062  14.421  0.1166 -0.0854 -0.1962
26114W        W42248   7.412  12.898  14.608  0.1498 -0.2561  0.2485
26115W        W42249   4.165   9.156   2.544 -0.0803 -0.2009 -0.0970
26116W        W42250   3.632  11.776  14.118  0.0354  0.1910  0.1451
26117W        W42251  13.331   2.510   0.068  0.1845  0.2256 -0.0252
26118W        W42252   3.851   7.189   1.533 -0.0354  0.0054  0.0837
26119W        W42253   9.513   1.950  11.738  0.0665  0.0383 -0.2454
26120W        W42254  10.703   0.497   4.601 -0.2636 -0.0160 -0.0970
26121W        W42255  15.137   1.175  10.811 -0.0097 -0.2138  0.1538
26122W        W42256  13.890   0.924  12.355  0.0924  0.0403  0.1626
26123W        W42257   7.521   3.331  14.516  0.2652 -0.0783 -0.0821
26124W        W42258   5.023   8.513  12.454 -0.0627 -0.0616 -0.0604
26125W        W42259   3.224  18.169  14.049 -0.0173 -0.0067  0.0389
26126W        W42260   8.801   7.870   3.256 -0.3004 -0.0749 -0.1620
26127W        W42261  10.286   8.456   3.227  0.1032  0.0026  0.0721
26128W        W42262  14.914   2.291   3.742 -0.0591 -0.1801  0.2182
26129W        W42263   8.006  16.004  13.499 -0.2041 -0.0399  0.1307
26130W        W42264   1.932   9.901  10.008  0.0612 -0.0033 -0.2088
26131W        W42265  18.786  11.313   1.480  0.1580  0.2240 -0.0497
26132W        W42266   7.942  13.858   0.364  0.2830  0.0329  0.3962
26133W        W42267   7.051  12.965   2.954  0.2554  0.0698 -0.0720
26134W        W42268   9.788  12.696   4.587 -0.2529 -0.2460  0.4803
26135W        W42269   0.978  11.306   0.721  0.0488 -0.3384 -0.3164
26136W        W42270  17.247   0.637   1.423  0.0804 -0.0253  0.2786
26137W        W42271   9.392  15.992   4.556 -0.0933 -0.1013  0.2380
26138W        W42272   9.643   8.938  10.733  0.0251 -0.0348  0.0568
26139W        W42273  13.073   3.447  11.254 -0.1014  0.2048  0.0418
26140W        W42274  12.248   1.259   4.642  0.2203  0.0003 -0.2975
26141W        W42275   9.431  10.961   4.657  0.2411 -0.1393 -0.2668
26142W        W42276   5.448  14.619   2.159 -0.3764 -0.0462 -0.3997
26143W        W42277  13.704   4.103  14.481 -0.0320  0.2305  0.1915
26144W        W42278  12.137   2.711  11.584 -0.5300  0.0091 -0.0371
26145W        W42279  12.073   5.824  14.639 -0.0154 -0.2558  0.0685
26146W        W42280   1.403  18.924   4.963  0.0411  0.0806  0.1737
26147W        W42281  13.652   9.573  14.763 -0.1366  0.1968 -0.0983
26148W        W42282  15.840  13.463  13.951  0.2288  0.0004 -0.3858
26149W        W42283  17.022   1.327   4.410 -0.1386  0.2565  0.0510
26150W        W42284  16.428   6.134  14.544  0.0631  0.1017 -0.0899
26151W        W42285  14.430  10.014  12.054 -0.1779  0.0336  0.0374
26152W        W42286  14.905  12.784  13.019  0.2302  0.1080 -0.0298
26153W        W42287  10.650  13.544   2.427  0.0347 -0.1772  0.0924
26154W        W42288   6.645  16.328   4.590 -0.0882 -0.2181 -0.1609
26155W        W42289  15.768   8.303  12.864  0.1165  0.1710  0.1654
26156W        W42290   1.354  11.860   0.888  0.0482  0.2083  0.0180
26157W        W42291  18.234   3.858  13.104 -0.1356 -0.1710 -0.3315
26158W        W42292  11.626   8.878  13.976 -0.3051 -0.0160 -0.0415
26159W        W42293  10.224   6.534  14.208  0.0648 -0.0703 -0.0751
26160W        W42294  12.139  15.515   1.956  0.4052 -0.0495  0.0976
26161W        W42295   4.584   1.059   4.935 -0.0197  0.5256  0.1526
26162W        W42296   3.961   0.000   2.266 -0.0239  0.0597  0.0399
26163W        W42297  10.766  11.622   5.201 -0.2495  0.1410 -0.0113
26164W        W42298  11.349  13.223  12.191  0.2416  0.0363  0.1173
26165W        W42299  10.462  12.328  10.883  0.2374  0.0310 -0.0693
26166W        W42300  12.714  11.093  11.001  0.2003  0.2552 -0.2867
26167W        W42301  16.028   3.784  10.756  0.0015 -0.2378 -0.1591
26168W        W42302   1.988  13.166   3.406 -0.0562  0.0293  0.4184
26169W        W42303   0.847   4.628  12.183 -0.2216  0.1645 -0.0010
26170W        W42304   6.989   1.997  10.917 -0.1183  0.1503  0.1944
26171W        W42305  13.377   8.837  14.083 -0.2227  0.0135  0.2878
26172W        W42306   3.276   5.796   1.086 -0.2368 -0.1387  0.2131
26173W        W42307   2.236   6.132   2.013  0.3444  0.0739 -0.2285
26174W        W42308  13.063   9.039   0.973 -0.2276 -0.1850 -0.0667
26175W        W42309  18.497  18.415  14.261  0.0770  0.3740  0.0076
26176W        W42310   8.361  13.601   0.403 -0.2688  0.1067  0.0340
26177W        W42311   5.335  17.041  12.920 -0.1453 -0.1057  0.0649
26178W        W42312   6.146   9.225  12.119  0.4250 -0.3468  0.2468
26179W        W42313   1.338   8.348  12.419 -0.1141  0.2057  0.0593
26180W        W42314  13.638  14.142   0.405 -0.1797  0.2179  0.1081
26181W        W42315   3.837   1.684  13.006 -0.0217  0.2231 -0.0342
26182W        W42316   6.181  12.522   3.058 -0.0539  0.0530  0.1424
26183W        W42317   4.487  12.377   2.018 -0.0207 -0.0801  0.0462
26184W        W42318   5.300  12.083  14.584  0.0775 -0.0469 -0.0205
26185W        W42319   9.500  15.211  10.771 -0.0691  0.1341  0.1215
26186W        W42320  11.072  13.288  13.992 -0.2281  0.1029  0.0568
26187W        W42321  13.595   5.758  14.002 -0.2013 -0.0617 -0.2425
26188W        W42322  18.554  17.748   0.229  0.0144  0.2919  0.1654
26189W        W42323   3.567  12.905   4.834 -0.0770  0.1081 -0.0842
26190W        W42324  17.839  10.861  11.654 -0.1792 -0.0942 -0.1089
26191W        W42325   2.812  12.183  12.567 -0.1504  0.1245 -0.0734
26192W        W42326   6.151   4.418   2.775 -0.0622 -0.0798  0.1979
26193W        W42327  17.012   1.640  11.395 -0.1526 -0.1137 -0.2005
26194W        W42328   2.131  18.232  13.321  0.1028 -0.0471 -0.2093
26195W        W42329  17.368   0.862  14.770 -0.0936  0.2148  0.2253
26196W        W42330  18.127  10.913  10.585 -0.1699  0.2075  0.2343
26197W        W42331   4.461  12.571   3.488  0.4930  0.2481  0.2963
26198W        W42332  13.362  18.862   2.456 -0.1143 -0.0478 -0.4083
26199W        W42333   7.931   4.533   1.637  0.0041 -0.2047  0.2690
26200W        W42334   9.614   4.935  12.063  0.2255 -0.0193  0.2029
26201W        W42335   0.342   3.168   1.212  0.2866  0.0668 -0.0010
26202W        W42336   0.992  12.053  11.090  0.0213 -0.0469  0.0711
26203W        W42337   8.133  10.246  13.803  0.0824  0.1272 -0.0099
26204W        W42338  17.670  12.319  14.414 -0.0033 -0.0893 -0.1199
26205W        W42339   7.694   4.326   3.757  0.0071 -0.0373 -0.1373
26206W        W42340  17.011   3.000  15.073  0.0385 -0.2977 -0.0870
26207W        W42341   6.510   9.459  14.572 -0.0603  0.0423 -0.0035
26208W        W42342   1.076   7.341  14.440  0.2173 -0.0894 -0.2891
26209W        W42343  13.430   3.247   5.157 -0.0867 -0.0919 -0.1558
26210W        W42344  17.625   7.487   1.467 -0.3827 -0.2454  0.1743
26211W        W42345   0.041  13.020   2.190 -0.0323 -0.1209  0.2945
26212W        W42346   2.482   7.574   4.643 -0.2518 -0.0088 -0.2168
26213W        W42347   0.010   2.208   2.091  0.1519 -0.0852  0.1527
26214W        W42348   5.512   5.502   9.885  0.2614 -0.1885 -0.0675
26215W        W42349   0.294   4.883   4.667 -0.0115  0.1428 -0.0685
26216W        W42350  12.265  15.015   1.919 -0.1249 -0.2358 -0.3738
26217W        W42351   6.849   7.182  10.663 -0.2583  0.0890  0.0005
26218W        W42352   8.182   8.295  15.108  0.2452  0.1336  0.0742
26219W        W42353  16.992  10.021  14.365  0.0810 -0.0318  0.0059
26220W        W42354  15.667  13.721  14.397  0.1570  0.1188  0.1127
26221W        W42355   5.703   6.059   5.148 -0.1281  0.2279  0.0785
26222W        W42356   5.327   4.427   4.615  0.2424 -0.1729  0.0673
26223W        W42357   0.754  15.267   1.719 -0.4287 -0.2494 -0.2268
26224W        W42358   0.614   6.990   4.451  0.0020  0.1761 -0.0253
26225W        W42359  15.364   1.470   2.493  0.2437  0.1149  0.2939
26226W        W42360   9.796   3.563   9.559 -0.0450 -0.1256 -0.2015
26227W        W42361  12.435  10.601  12.670 -0.0129 -0.1291 -0.2981
26228W        W42362   2.524   5.967   4.960 -0.0256  0.0099  0.0694
26229W        W42363   1.060  17.885   3.243  0.0148 -0.0491 -0.0232
26230W        W42364   8.192  18.501   3.214  0.0796  0.1617 -0.1884
26231W        W42365  13.565   2.164  14.944 -0.0258  0.0726 -0.0084
26232W        W42366  10.290  17.518  11.355  0.1432 -0.4115  0.1227
26233W        W42367  14.794  18.586   1.740  0.1352  0.1520  0.0175
26234W        W42368   5.568   6.779  15.283 -0.2010 -0.0888  0.1127
26235W        W42369   3.691   1.310  14.693 -0.0035 -0.3603 -0.0197
26236W        W42370  10.635  13.992  14.832 -0.2911  0.0808 -0.0025
26237W        W42371  18.013  16.543   1.523  0.1145  0.1654  0.2108
26238W        W42372   9.171  16.109   5.190  0.1990 -0.0783  0.0010
26239W        W42373  17.514  12.987   4.459 -0.0356  0.1913  0.0478
26240W        W42374   7.313  12.208  13.857 -0.1929 -0.0524 -0.3049
26241W        W42375   9.047   8.140  11.758 -0.3696  0.0861  0.1890
26242W        W42376  11.050   0.876  13.435  0.1536 -0.1565 -0.0055
26243W        W42377   3.726   4.206   1.942 -0.1428  0.1470 -0.0612
26244W        W42378  12.059  10.656  15.135 -0.3903  0.0026 -0.0960
26245W        W42379  17.277   8.127   2.198  0.2154 -0.3002 -0.0743
26246W        W42380  18.125  15.583   5.104 -0.1765  0.4259 -0.0028
26247W        W42381   8.145  12.685  11.099 -0.3259  0.2839 -0.0545
26248W        W42382  15.655   4.482   4.875  0.0734  0.0565  0.0512
26249W        W42383  12.498   1.696  13.093  0.0591 -0.0408 -0.1829
26250W        W42384   6.204  15.481  11.278  0.1796  0.0462 -0.2375
26251W        W42385   9.632   5.587   0.373 -0.0729  0.2548  0.1740
26252W        W42386  12.391   5.975  14.153  0.0046 -0.0729 -0.2610
26253W        W42387  14.351  10.104   1.514 -0.1866 -0.1020 -0.0412
26254W        W42388  16.632  16.329  10.424  0.1411 -0.0501 -0.0317
26255W        W42389   4.046  16.479  15.286  0.1580 -0.0986 -0.2245
26256W        W42390   8.312  12.423  12.148 -0.0832 -0.3217  0.2932
26257W        W42391   3.905   8.785   1.737 -0.2669  0.0355  0.0417
26258W        W42392  16.099  18.153   4.703  0.2600  0.0965  0.0064
26259W        W42393  17.122   5.433  14.472 -0.1798 -0.1858 -0.0796
26260W        W42394   1.535   6.084   2.831 -0.2219  0.1313 -0.2128
26261W        W42395   1.484  13.403  14.909  0.0268 -0.1034  0.2358
26262W        W42396  18.856  16.319   0.494  0.1436 -0.0250  0.1964
26263W        W42397   3.602  11.374  11.268  0.4346 -0.1558  0.0935
26264W        W42398  15.150  15.510   4.660  0.2263  0.0302  0.2441
26265W        W42399  17.865   7.296  13.882  0.2257 -0.2687  0.0832
26266W        W42400   6.247   6.906  12.445  0.1170 -0.0125 -0.2394
26267W        W42401   8.562  17.608  14.170  0.0966  0.0055  0.0885
26268W        W42402  18.930  13.504   2.248  0.3102  0.1547  0.1662
26269W        W42403   5.350  17.277   5.100 -0.1262 -0.0427 -0.2980
26270W        W42404  16.304   4.131  14.510 -0.1164 -0.0545  0.2007
26271W        W42405  17.962   0.043  13.649  0.0148  0.1734  0.3674
26272W        W42406  12.656  13.824   2.850  0.1378 -0.0463  0.0721
26273W        W42407   7.858   8.847  10.670 -0.1944 -0.1961  0.0947
26274W        W42408   0.501  17.394   5.879  0.2698  0.0336 -0.0939
26275W        W42409   2.485  15.920   2.328 -0.0072 -0.1072 -0.0167
26276W        W42410  18.112  15.238   4.754 -0.1803  0.1951 -0.1625
26277W        W42411   4.052   3.048   1.585  0.1957  0.2403 -0.0233
26278W        W42412   2.763  18.676   3.768  0.2703  0.2132 -0.0739
26279W        W42413   5.597   0.612  13.312  0.1046  0.0745  0.1600
26280W        W42414  10.855   5.021   1.579  0.2018 -0.0510 -0.0352
26281W        W42415   3.521  10.170   0.217 -0.1552  0.0142 -0.2837
26282W        W42416  14.053   5.919   1.160  0.0375  0.1115 -0.0874
26283W        W42417  14.047   4.362  12.339 -0.0912  0.0124 -0.0619
26284W        W42418   8.928  10.137  10.942  0.1897  0.1158 -0.0543
26285W        W42419  18.267  14.662  13.197  0.0221  0.0012 -0.2903
26286W        W42420   1.367  13.003  11.137  0.1256 -0.0022 -0.0533
26287W        W42421   1.811   6.186   2.398  0.0855 -0.0015 -0.4533
26288W        W42422   4.347  15.261  10.626 -0.2761  0.0066 -0.1497
26289W        W42423   7.663   6.128  10.749  0.0720  0.0076  0.0035
26290W        W42424   5.129   9.676  14.072  0.1936 -0.0660 -0.0915
26291W        W42425  11.260   0.244   4.990  0.0498 -0.0912  0.2652
26292W        W42426  14.096   2.809  10.866  0.1117  0.1431  0.1580
26293W        W42427   8.972  12.331  12.748  0.0454 -0.3146 -0.3366
26294W        W42428   4.919  17.673   4.958 -0.0901  0.1561  0.0106
26295W        W42429  15.507  14.600   2.384  0.1052  0.0243  0.2992
26296W        W42430  17.868  18.129  14.415 -0.1058 -0.0241 -0.0219
26297W        W42431   4.761   3.262  14.061 -0.0499 -0.2214 -0.1746
26298W        W42432   4.385  13.974  14.947  0.2196 -0.0799  0.0889
26299W        W42433  13.874   6.563   4.326 -0.0875  0.1466 -0.0795
26300W        W42434   6.073   5.070   4.650 -0.3108 -0.0415  0.0463
26301W        W42435   0.533   2.696  11.692  0.3847 -0.3431 -0.2169
26302W        W42436   5.000   2.848  13.968 -0.3710 -0.1223 -0.1395
26303W        W42437  11.197  14.373   2.249 -0.1837  0.1409  0.2738
26304W        W42438   3.663   0.050   4.685  0.1966 -0.2118 -0.1437
26305W        W42439  14.558  15.088   2.444 -0.0793  0.1267  0.0439
26306W        W42440  10.752   8.133   2.372 -0.0764  0.2170  0.0017
26307W        W42441   3.269   6.824   3.961  0.0657 -0.1754 -0.1484
26308W        W42442  14.743   2.090  11.080  0.2276  0.0047 -0.2467
26309W        W42443   8.837   8.587   4.047 -0.1115  0.4281  0.4077
26310W        W42444   4.070   8.614   3.140 -0.2284  0.1148  0.1479
26311W        W42445  15.822  15.074   2.990 -0.0359  0.0396  0.0562
26312W        W42446  13.862   1.742   5.624  0.2733  0.1944  0.2041
26313W        W42447   5.953   4.452   0.638 -0.2810  0.1408 -0.0596
26314W        W42448  11.192  10.156  11.901  0.0394  0.2407  0.4902
26315W        W42449  14.886  13.870   0.142  0.4042 -0.1437 -0.1131
26316W        W42450   9.656  11.054   2.857 -0.5037  0.3662 -0.1928
26317W        W42451  16.163   7.596   2.185 -0.0074 -0.1984 -0.1668
26318W        W42452   2.930  17.733  10.485  0.4238 -0.3066  0.2257
26319W        W42453   9.042  13.636   5.470  0.2076  0.0170 -0.0829
26320W        W42454  13.691   6.556  11.367  0.1036 -0.0067 -0.3297
26321W        W42455  16.938   9.745   1.137  0.0903 -0.1425 -0.0654
26322W        W42456  11.948  10.772  10.795 -0.2813  0.0628  0.0539
26323W        W42457  17.689   3.749  14.024 -0.0633  0.4394 -0.1597
26324W        W42458  15.500   1.901  14.218  0.1993 -0.0725 -0.3201
26325W        W42459  10.823   6.680   3.572  0.1435  0.0015  0.1241
26326W        W42460   3.289   6.972   0.456  0.2247 -0.0114  0.1325
26327W        W42461  15.002  15.178  12.118  0.1115 -0.0917 -0.1818
26328W        W42462  15.359   9.592  11.855 -0.2226  0.2396  0.0197
26329W        W42463   3.160  11.184   2.528  0.2135 -0.3763  0.1398
26330W        W42464  15.375   4.829   1.181 -0.1345 -0.0008 -0.1196
26331W        W42465   9.767   7.762   0.237  0.0599  0.2820  0.1118
26332W        W42466   7.923   9.824   2.279  0.0619  0.2364  0.1809
26333W        W42467   1.800   5.844   1.089 -0.1172  0.0396  0.1507
26334W        W42468  12.593   5.715   2.144 -0.2266  0.2305 -0.1750
26335W        W42469   7.803   0.472  10.712  0.1594  0.0874 -0.0104
26336W        W42470  15.780  11.149   1.684  0.2145  0.0284 -0.1240
26337W        W42471  14.677  12.534   2.710  0.0083 -0.3053  0.1322
26338W        W42472  17.541   8.395   1.826 -0.2167 -0.1738  0.1549
26339W        W42473  15.236   3.282   4.275 -0.1880 -0.0877 -0.2239
26340W        W42474  17.439  12.147   2.727 -0.1217 -0.1558  0.2867
26341W        W42475   9.421  13.047  12.795 -0.0720 -0.2041 -0.1109
26342W        W42476   3.126  11.738   2.184 -0.0982 -0.3091 -0.0246
26343W        W42477   1.785   3.393   0.254  0.0473  0.0122 -0.1370
26344W        W42478  13.605  18.533  13.542  0.3022 -0.0383 -0.0395
26345W        W42479   8.772   1.283   5.480 -0.1218  0.0076  0.0493
26346W        W42480  10.725   0.259  12.649 -0.1257 -0.0784  0.2428
26347W        W42481  14.716   2.145   4.538 -0.1541  0.3336  0.1591
26348W        W42482   2.538  14.550   1.682  0.1622 -0.4040  0.1174
26349W        W42483   9.711   4.737  14.830  0.0987 -0.2234  0.4414
26350W        W42484   7.668  17.760  10.503  0.2317  0.2771  0.1488
26351W        W42485  16.227  11.204  13.181  0.3272 -0.0177  0.3055
26352W        W42486  11.899  18.176   5.160  0.1002  0.2457 -0.0379
26353W        W42487  15.031   1.120   3.585  0.1254  0.0747 -0.0752
26354W        W42488  13.870   5.743   4.243  0.0390 -0.2349  0.0280
26355W        W42489   6.779  18.835   5.307  0.3678  0.1420 -0.2490
26356W        W42490   3.439   7.445   4.834 -0.1259  0.2276 -0.0892
26357W        W42491  14.193  18.924   1.809 -0.0024 -0.0202 -0.5204
26358W        W42492   9.250  16.459   4.798  0.3607 -0.1049 -0.2361
26359W        W42493   7.504  15.046  13.954 -0.3408  0.1595 -0.0368
26360W        W42494  14.018   2.524   3.994  0.0709  0.0898 -0.1679
26361W        W42495  15.262   6.012   3.648 -0.0358  0.2059  0.0178
26362W        W42496   4.137  16.741   0.738  0.0260 -0.1992 -0.3130
26363W        W42497   3.979   5.333   1.257  0.1044 -0.0861 -0.1484
26364W        W42498  11.287  12.742   3.509 -0.0275 -0.1998  0.0112
26365W        W42499   2.157  14.641  13.762 -0.1248 -0.3953 -0.1809
26366W        W42500   9.045  10.538   2.262  0.0297 -0.1024 -0.1836
26367W        W42501  18.338  12.522   1.300  0.0836 -0.2059  0.2196
26368W        W42502   6.903  18.820   3.013  0.0439 -0.2684 -0.0789
26369W        W42503  15.762  12.628   3.190  0.1122 -0.1077 -0.1554
26370W        W42504   6.409   0.726   1.509  0.2006 -0.1948  0.1832
26371W        W42505   2.266  13.235  12.501  0.1504 -0.0748 -0.1664
26372W        W42506  11.933   8.489   2.662  0.0109  0.0517  0.1870
26373W        W42507  18.336   0.259   1.670 -0.1962  0.0742  0.1069
26374W        W42508   7.742   3.099   3.612  0.2688  0.2367 -0.1929
26375W        W42509  15.664  10.540  13.669 -0.0008  0.0551 -0.2519
26376W        W42510   3.043   7.782  10.655  0.0864 -0.0812  0.0780
26377W        W42511  10.460   5.958   0.938 -0.3775 -0.1376  0.3567
26378W        W42512   4.342   4.943  10.769 -0.3143  0.0375 -0.1531
26379W        W42513  17.982   7.340   2.480 -0.0862 -0.0713 -0.2603
26380W        W42514   4.354   8.524  12.908  0.4880 -0.0387 -0.0465
26381W        W42515   4.217   4.233   1.920 -0.1372  0.0771 -0.3018
26382W        W42516  12.812  13.476  12.452 -0.0590  0.3423 -0.2371
26383W        W42517   1.404   2.038   2.328  0.1635 -0.1323  0.0540
26384W        W42518  18.983  15.874  11.605  0.0090 -0.2404 -0.2624
26385W        W42519  15.707   8.134   3.925 -0.2578 -0.2146  0.1491
26386W        W42520   6.898  18.326  10.288 -0.1393 -0.2401 -0.1534
26387W        W42521  12.520   2.172  12.743  0.1517 -0.1740 -0.0197
26388W        W42522  12.854  15.768  13.616  0.1098 -0.1960 -0.3754
26389W        W42523   8.041  17.149   0.120 -0.2731 -0.1388 -0.4024
26390W        W42524   4.098  17.446   0.326  0.1101 -0.1079  0.1761
26391W        W42525  14.747  17.133  13.150  0.1351  0.0839  0.1138
26392W        W42526  10.250  12.056   2.253  0.1350 -0.0148  0.1512
26393W        W42527  12.772   0.649  11.425  0.2389  0.2020 -0.2420
26394W        W42528  17.508  13.246  12.440  0.0744 -0.4064 -0.1455
26395W        W42529  11.879   0.052   2.902 -0.2328  0.3009  0.2090
26396W        W42530   8.650   7.991   2.840 -0.1263  0.2991  0.0218
26397W        W42531  10.908  11.927   1.506 -0.2670  0.1997  0.0631
26398W        W42532   8.363  11.134  13.982  0.1228  0.2572 -0.3148
26399W        W42533   6.365   8.197   2.181 -0.3456 -0.0565  0.1096
26400W        W42534   3.509  15.417  12.367  0.0016  0.0301 -0.2081
26401W        W42535  15.327   7.804   2.256 -0.0383 -0.0767 -0.1071
26402W        W42536   4.563   8.377  11.361 -0.2294  0.2021 -0.0912
26403W        W42537  11.838  13.194  12.346 -0.1342 -0.1032  0.0927
26404W        W42538   0.334   5.786  12.553 -0.0848 -0.2339 -0.1628
26405W        W42539  13.773  13.834  11.161 -0.2772  0.2995  0.0706
26406W        W42540  11.402   2.296  13.356 -0.2322  0.3083 -0.1301
26407W        W42541  12.673  16.247   2.137 -0.0231 -0.2923  0.2068
26408W        W42542   2.962   6.176   4.788 -0.1780 -0.0132  0.1613
26409W        W42543  17.920  12.534   0.222 -0.1131 -0.1711  0.2512
26410W        W42544   0.571  12.311  15.187  0.2661  0.2093  0.1366
26411W        W42545  16.156  11.340   2.903  0.0055 -0.1265  0.1299
26412W        W42546   3.711   0.105  12.875  0.2429  0.0994  0.1720
26413W        W42547   1.748  18.295   3.925 -0.1337 -0.0494  0.0487
26414W        W42548   1.179  15.441  10.506  0.2398 -0.1634  0.0483
26415W        W42549   6.538   3.545   4.353  0.3352 -0.2221 -0.1583
26416W        W42550  12.128   7.917   2.726  0.0415  0.1121  0.3018
26417W        W42551  11.676  14.509   5.182  0.0649 -0.3381  0.2164
26418W        W42552  10.173   9.561   0.299  0.1311  0.1325 -0.0016
26419W        W42553  12.446   4.759  12.648  0.1531  0.1172 -0.1074
26420W        W42554  13.497   0.127   3.798 -0.0011  0.0565 -0.0049
26421W        W42555  10.953   7.442   0.676 -0.2541  0.3094  0.1698
26422W        W42556  12.831  11.217  12.157 -0.1458  0.0617 -0.4682
26423W        W42557   3.798  10.291  10.490 -0.1343 -0.2655  0.0430
26424W        W42558   5.825  15.446   3.962  0.0257 -0.1492  0.1901
26425W        W42559  18.555  18.156  10.289  0.0060  0.0528 -0.3023
26426W        W42560   8.720  18.185  11.101 -0.1583 -0.1727  0.1815
26427W        W42561   2.282   3.783   1.461  0.2363  0.0868 -0.1344
26428W        W42562  15.091   8.520   3.586  0.1685  0.1257 -0.2711
26429W        W42563   5.027   8.397  15.119  0.1215  0.0217  0.0544
26430W        W42564  16.472  13.941  13.624 -0.0387 -0.1948 -0.1663
26431W        W42565  17.148   4.584  12.838  0.1028  0.1810 -0.0223
26432W        W42566   3.245   9.091   2.311  0.0565  0.0189  0.1926
26433W        W42567  14.974   6.676  14.267  0.1346 -0.0117  0.2368
26434W        W42568  12.704  17.315  12.529 -0.1024 -0.0457  0.1353
26435W        W42569   4.772   3.424   3.914 -0.3083  0.0012 -0.0327
26436W        W42570   8.722  17.892   1.552 -0.1174  0.1100  0.0787
26437W        W42571  15.778   0.123  12.450 -0.1684  0.0701 -0.3809
26438W        W42572  11.810   6.118   3.765  0.1907  0.0906  0.0130
26439W        W42573  17.984   6.316   0.531 -0.1647 -0.1471 -0.5208
26440W        W42574   4.941  14.656  15.143  0.2471 -0.0704  0.0276
26441W        W42575  13.137  13.273   4.425  0.1764  0.0907 -0.0982
26442W        W42576  14.173   4.131  14.579  0.2260 -0.0566 -0.0445
26443W        W42577  12.710   5.272   1.044  0.1571 -0.1592 -0.0170
26444W        W42578   0.045   9.299   0.175  0.0003  0.0612 -0.0529
26445W        W42579  13.069  17.800   4.034 -0.0278  0.0904 -0.1143
26446W        W42580   1.958  11.693   0.185  0.0342 -0.1904 -0.3006
26447W        W42581  14.029  14.024   0.033  0.1517 -0.1437  0.3344
26448W        W42582  17.179   3.125   4.498 -0.0967 -0.3988  0.1111
26449W        W42583  17.290   6.802   1.268 -0.2735 -0.1718 -0.3482
26450W        W42584  12.744   4.079  14.163 -0.1162 -0.1214 -0.3663
26451W        W42585   6.423   1.322  15.027 -0.2351 -0.1986  0.1116
26452W        W42586  13.510   9.914   3.642  0.3593 -0.1951 -0.1633
26453W        W42587  12.363   4.908  11.415  0.2575  0.2710 -0.0219
26454W        W42588  11.020   9.290   4.724  0.0787  0.2041  0.3662
26455W        W42589   0.179   1.348  11.226 -0.0899 -0.2625  0.2230
26456W        W42590   4.796  13.606   9.731  0.0514  0.1427  0.1831
26457W        W42591   1.153   5.940  11.341 -0.0849 -0.1227 -0.0782
26458W        W42592  15.001   8.200  11.267 -0.0731 -0.3651  0.1939
26459W        W42593  16.158   1.417   2.831  0.1329  0.1221  0.1393
26460W        W42594  11.638   9.723   4.183 -0.0164 -0.2607 -0.0780
26461W        W42595   1.556   5.801   4.956 -0.0459 -0.1151 -0.0552
26462W        W42596  11.664  17.682   1.920 -0.0539  0.1642  0.0350
26463W        W42597  16.159   6.335  12.238  0.4346 -0.0783 -0.1025
26464W        W42598  11.608   9.809  14.265 -0.0704  0.0979 -0.0621
26465W        W42599  10.247  11.919   0.667  0.0760 -0.2894 -0.1144
26466W        W42600  15.057   4.540   4.901 -0.1328 -0.1697 -0.0507
26467W        W42601   3.023  17.932   2.003  0.0623 -0.1975 -0.0744
26468W        W42602  10.926   4.499  13.736  0.0645 -0.1575  0.0128
26469W        W42603  18.123  14.106   4.895 -0.1043 -0.1206 -0.1343
26470W        W42604   1.593   1.980   4.435  0.1054 -0.2615  0.0277
26471W        W42605   7.538   2.025   4.062 -0.0116  0.1751  0.0086
26472W        W42606   0.701   8.336  11.670  0.1022  0.0392  0.0444
26473W        W42607  18.018   0.437   0.446  0.0015 -0.0418 -0.3219
26474W        W42608   2.144   4.130   4.393 -0.1382  0.4274 -0.0523
26475W        W42609  15.286  15.816   4.260 -0.0143  0.2117  0.0854
26476W        W42610  15.376  11.045  12.324 -0.2161 -0.3180  0.2332
26477W        W42611  11.417   9.681   1.903 -0.1191  0.1714 -0.0545
26478W        W42612  17.321   4.113   0.750  0.1882  0.0230 -0.0759
26479W        W42613  10.993  18.605   3.334  0.0098  0.1311  0.0206
26480W        W42614   7.654   3.156   1.692  0.3613 -0.2359  0.1721
26481W        W42615   8.841  14.260   2.546 -0.0603 -0.2040  0.2743
26482W        W42616   9.090   6.497  13.430  0.1448 -0.3349 -0.4918
26483W        W42617  12.529   8.946  13.728 -0.0336 -0.0716 -0.2098
26484W        W42618  10.718  10.122   2.848  0.4173  0.0049 -0.3099
26485W        W42619  10.070   8.581   1.392  0.1431 -0.2991 -0.1115
26486W        W42620   9.092   6.937  14.733  0.0584  0.2071 -0.0540
26487W        W42621   8.232  16.498  14.279 -0.0664 -0.1949  0.0561
26488W        W42622   2.388   2.178   0.690  0.2243 -0.0134 -0.1185
26489W        W42623   2.965   1.881  12.745 -0.1275 -0.0472  0.1599
26490W        W42624  17.670  16.457  15.074 -0.0166 -0.0511  0.0012
26491W        W42625  17.545   0.031  12.480  0.1803 -0.1926  0.0094
26492W        W42626  12.306   5.405  11.305 -0.2120 -0.1452  0.1860
26493W        W42627   9.257  18.054   4.500 -0.0651  0.0730  0.0976
26494W        W42628  16.607   4.922   2.621  0.0099 -0.2939  0.2363
26495W        W42629   5.735  12.836   5.424 -0.0709  0.2077 -0.0522
26496W        W42630   4.550   6.140   1.375 -0.1214  0.2794 -0.0707
26497W        W42631   4.610   7.137   3.847  0.2773  0.0899  0.1841
26498W        W42632  15.043   2.068   0.759  0.0822  0.0365  0.0104
26499W        W42633   7.050   3.961  11.928 -0.2870 -0.0214 -0.1475
26500W        W42634  11.344  17.925   1.179  0.0920 -0.0907 -0.0495
26501W        W42635  16.877   0.537  11.256 -0.2074  0.1442 -0.0276
26502W        W42636   4.761   5.210  11.019  0.0696  0.3197  0.4954
26503W        W42637  17.087  10.927   0.086  0.0345 -0.1215  0.0055
26504W        W42638   9.673   1.608   5.220  0.1495 -0.0087 -0.0511
26505W        W42639  18.993  11.007  11.806 -0.3456 -0.2848 -0.0157
26506W        W42640   8.773  12.990   1.508  0.1401  0.1597 -0.0855
26507W        W42641   9.047   5.039   1.072  0.0913  0.1063 -0.0633
26508W        W42642  14.850  15.592  14.454  0.0737  0.1149 -0.0124
26509W        W42643   0.045  11.615   3.603  0.4220 -0.0639  0.2825
26510W        W42644   6.044   3.337  12.245  0.0203  0.0819  0.2082
26511W        W42645  13.965  15.914   2.879 -0.1313 -0.1713  0.0527
26512W        W42646   0.889  11.851   4.674 -0.0810 -0.4806  0.1276
26513W        W42647  17.710  18.960  11.255  0.2846 -0.1121 -0.0937
26514W        W42648   0.354   0.639  13.621 -0.0064  0.0187 -0.1718
26515W        W42649   5.910   3.371   3.188  0.0717 -0.1449 -0.0387
26516W        W42650   1.435   8.255   4.470 -0.2183 -0.3607  0.1702
26517W        W42651   5.955   5.034  13.344 -0.1165 -0.3501  0.0083
26518W        W42652  11.803  17.260  12.368 -0.2388  0.1901 -0.1852
26519W        W42653  13.244  12.735   4.530 -0.1621 -0.0430 -0.1379
26520W        W42654   0.824  17.486  11.785  0.0512  0.0390  0.2219
26521W        W42655   7.863   5.857   4.141 -0.0681 -0.1210 -0.1409
26522W        W42656  13.539  14.468  11.733  0.0450 -0.1541  0.4188
26523W        W42657  16.217   4.095  12.493  0.0014 -0.1119 -0.4272
26524W        W42658   7.130  11.846  15.257 -0.1151  0.1874 -0.2725
26525W        W42659  17.017   4.018   1.999  0.1413 -0.1339  0.0686
26526W        W42660   4.442   4.747  15.097  0.1340  0.3127  0.1061
26527W        W42661   8.482   4.586   4.512  0.0003  0.0825  0.3055
26528W        W42662   1.454   3.982   1.941 -0.0329 -0.1911 -0.3153
26529W        W42663   4.828  16.444  11.815  0.1583 -0.0563  0.2471
26530W        W42664  14.519  12.420   1.655 -0.1718 -0.0427 -0.1358
26531W        W42665  15.111  17.407   0.457  0.3337  0.1405 -0.1416
26532W        W42666  11.530   5.851  12.517 -0.2326 -0.6667  0.2621
26533W        W42667  18.135   8.386  12.625 -0.0911 -0.0536  0.2011
26534W        W42668  15.811  11.496  13.504  0.2931 -0.0063 -0.2052
26535W        W42669   8.944  17.751  11.104 -0.3410  0.0432  0.3576
26536W        W42670   6.584   3.288   3.900  0.4399 -0.0890  0.3840
26537W        W42671  12.880   8.700   0.556 -0.1535  0.2737  0.0785
26538W        W42672  12.981   1.839  13.099 -0.2682 -0.0134  0.2800
26539W        W42673  12.703  10.707   3.037  0.0419  0.2065 -0.1829
26540W        W42674  13.803   3.880  12.474  0.0159  0.0831 -0.1265
26541W        W42675   4.064   6.775   1.549 -0.0998  0.3405 -0.3063
26542W        W42676   6.189  13.594  15.262  0.1874 -0.1059 -0.1282
26543W        W42677  11.838   2.139   3.331 -0.1606 -0.2515  0.1725
26544W        W42678  12.316  15.332   0.528  0.0545  0.1649  0.0169
26545W        W42679   3.011   2.824  12.167  0.0588  0.1835  0.1536
26546W        W42680  13.904   1.624  13.564 -0.0775  0.0550  0.1532
26547W        W42681   0.789   4.723   0.716  0.0608  0.1000 -0.2332
26548W        W42682   0.132  15.570   3.904  0.0305  0.1466 -0.0015
26549W        W42683   1.520   8.297  14.086  0.0497 -0.1505 -0.0119
26550W        W42684   5.556  18.371  12.489  0.0677  0.0099 -0.2245
26551W        W42685  14.816   5.883   3.491  0.3308 -0.0235  0.0228
26552W        W42686  17.536   4.464  14.612  0.1563 -0.0028  0.1375
26553W        W42687  18.130   8.891  12.712  0.0218 -0.1233  0.1940
26554W        W42688  18.842  16.561  12.103 -0.1789  0.0180 -0.4447
26555W        W42689  18.774  17.937   4.700 -0.2311  0.0816  0.0822
26556W        W42690   1.617   8.027  12.680  0.2427  0.1128  0.3044
26557W        W42691   9.234   1.352  14.858  0.4404  0.2680 -0.1218
26558W        W42692  10.691   2.871  11.207  0.1719 -0.2974  0.3698
26559W        W42693  11.171   9.856   4.357 -0.1909  0.0503 -0.0122
26560W        W42694   2.855  15.403  14.742 -0.2664  0.1781  0.0633
26561W        W42695   9.220   4.181  13.847 -0.0863 -0.0829  0.0388
26562W        W42696   8.332   3.766   1.196  0.0390  0.2180  0.0712
26563W        W42697  16.435   5.691   4.555  0.2569 -0.1775  0.0791
26564W        W42698  15.312   2.789  14.836 -0.2856  0.0094  0.1258
26565W        W42699   0.177   7.778   4.931 -0.1290 -0.0744  0.1496
26566W        W42700  15.789   0.036   2.258  0.0993 -0.1894  0.1208
26567W        W42701  12.697   3.235  10.982 -0.0062 -0.0175  0.0962
26568W        W42702   2.947   4.497  10.398  0.1712 -0.0333 -0.0648
26569W        W42703  17.872  10.456  13.398 -0.2343 -0.4274  0.0279
26570W        W42704   7.372  12.163   2.469  0.0880 -0.2522 -0.2755
26571W        W42705  15.426  15.007   1.143 -0.1750 -0.0933 -0.1626
26572W        W42706   7.459  11.253   4.587 -0.1886  0.1954  0.1495
26573W        W42707   9.258   8.483  14.244  0.0234  0.0415 -0.2687
26574W        W42708   1.957   3.967   3.284 -0.1210  0.1955 -0.2354
26575W        W42709   6.577  15.809   4.683 -0.1664  0.3099  0.0452
26576W        W42710   8.654  14.750   4.398 -0.0918 -0.1477 -0.0316
26577W        W42711   2.250  18.512  10.878  0.1729  0.0052 -0.0412
26578W        W42712  11.804   8.221   3.109  0.1327  0.1583 -0.2484
26579W        W42713  18.078  16.493  13.154 -0.0613  0.3294  0.2831
26580W        W42714   0.389  13.829  10.043  0.3624 -0.1392 -0.0803
26581W        W42715  13.740  17.186  13.297 -0.1051  0.0512  0.0596
26582W        W42716   2.987  10.546  13.780 -0.0211 -0.1341 -0.2089
26583W        W42717   9.857   8.059   1.251 -0.2673 -0.1782 -0.1363
26584W        W42718  11.778  14.037  14.171 -0.0335  0.1805  0.0764
26585W        W42719  15.434  17.875   4.275  0.1731  0.1102  0.0753
26586W        W42720   4.068   4.170  13.894 -0.1562  0.3714  0.1549
26587W        W42721   1.079  16.450  12.409  0.2715 -0.0485 -0.3018
26588W        W42722   1.176   4.790   4.985  0.1931  0.1207  0.0946
26589W        W42723   5.104  15.772   2.237  0.0372 -0.2484 -0.0109
26590W        W42724   7.632  14.375  13.318  0.2092  0.1662  0.1772
26591W        W42725  14.245   4.914  14.859 -0.0097 -0.1260 -0.0045
26592W        W42726   6.339   5.930   4.333  0.0245 -0.0372 -0.1706
26593W        W42727   1.322  17.523  13.405 -0.2847  0.0241  0.1274
26594W        W42728  16.637   8.875  14.001 -0.0762  0.0772 -0.4061
26595W        W42729   0.256  14.718  14.034  0.1384  0.2102  0.1029
26596W        W42730   5.170  13.224   3.283  0.2965 -0.0746  0.1701
26597W        W42731  17.252  10.763   2.442  0.0906 -0.0324  0.0315
26598W        W42732   9.711   5.917   3.008 -0.0851  0.1164  0.1740
26599W        W42733  15.679   4.424   0.930  0.0299 -0.1453 -0.0896
26600W        W42734   8.538   0.457   4.391 -0.1011  0.3218  0.0519
26601W        W42735  13.422   3.926  10.143  0.1654 -0.4517 -0.1858
26602W        W42736  16.461  17.261   0.042  0.0113 -0.2539  0.0555
26603W        W42737  12.915   6.200  12.020  0.1174  0.0350 -0.0841
26604W        W42738  11.374  12.006  14.444  0.0636 -0.1201  0.1031
26605W        W42739   5.314   1.589  12.583  0.2628  0.1695 -0.1406
26606W        W42740   2.707  14.146  14.583 -0.2010 -0.0605 -0.2483
26607W        W42741  12.683  18.764  12.620  0.0254 -0.2049  0.0403
26608W        W42742  10.018  10.097   0.546 -0.0022 -0.1801  0.6071
26609W        W42743  10.939  14.593   2.675 -0.1375  0.5139 -0.1689
26610W        W42744  13.563  16.192   4.703  0.0547 -0.0603  0.3773
26611W        W42745   7.438  16.167   3.107 -0.2310 -0.3311 -0.3600
26612W        W42746   8.847  18.669  12.343 -0.1013  0.0280 -0.0410
26613W        W42747  13.885  15.281   2.963  0.1805  0.0338 -0.2707
26614W        W42748   2.332  10.903  14.733 -0.0428  0.1231 -0.0583
26615W        W42749   8.457  15.898  12.685 -0.1209  0.0454 -0.2959
26616W        W42750  12.839  16.080   4.604  0.0850  0.0404 -0.2855
26617W        W42751  14.486  10.006   2.657 -0.0868  0.1251 -0.1780
26618W        W42752  17.577   7.650  11.349 -0.0103 -0.1713  0.0824
26619W        W42753   8.026   5.466  11.539  0.0217  0.1115 -0.1634
26620W        W42754  13.094   7.050   2.705  0.2827 -0.0300 -0.1731
26621W        W42755  13.961   5.331   5.310  0.0364 -0.1404  0.2964
26622W        W42756   5.723   8.143  13.179 -0.1031 -0.3461  0.1802
26623W        W42757  11.958   6.014  13.835  0.4763 -0.3942  0.0728
26624W        W42758  10.087   7.312   3.813  0.0125 -0.1879  0.2391
26625W        W42759  14.985   4.486  14.237 -0.0770 -0.3490  0.1438
26626W        W42760   7.075   4.546   2.698 -0.0229 -0.1294  0.2690
26627W        W42761  18.739   9.217  11.026  0.0849  0.1158  0.1881
26628W        W42762   1.606   8.035   3.016 -0.1198 -0.1512  0.1869
26629W        W42763   9.126  15.368  12.008 -0.0958  0.0802  0.0327
26630W        W42764  16.627   6.442  11.945  0.0102 -0.1600 -0.4648
26631W        W42765  12.626   4.302  12.417 -0.1813  0.2305 -0.2054
26632W        W42766   8.073  17.444  10.277  0.1627 -0.2040 -0.0100
26633W        W42767  14.164   9.836   1.094  0.2071  0.0923 -0.0232
26634W        W42768   4.691  17.482   2.707  0.2581  0.0001 -0.0756
26635W        W42769   0.527   5.994  11.190  0.5615  0.1522  0.0493
26636W        W42770  13.321   9.550  12.383 -0.1261  0.1582  0.0422
26637W        W42771   8.252  14.732   3.111 -0.0226  0.1677 -0.1722
26638W        W42772  10.696  14.805  10.596  0.1151  0.0000  0.2353
26639W        W42773  14.392  15.170  10.868  0.1634 -0.0695 -0.0630
26640W        W42774  13.547   8.582   5.133  0.1682 -0.4331 -0.1501
26641W        W42775  10.831   2.177   4.218 -0.1618  0.0558  0.3912
26642W        W42776   4.646   9.335  11.023  0.1185 -0.0926  0.0910
26643W        W42777  15.083   5.032  13.243  0.0080 -0.1393 -0.0591
26644W        W42778   0.325   8.732   4.428  0.0989 -0.2564 -0.3328
26645W        W42779   2.180  14.449   0.473  0.0588  0.1323  0.0599
26646W        W42780  12.975   7.457  14.327 -0.1424 -0.0288 -0.1379
26647W        W42781   6.689   8.253   4.983  0.3097  0.0294 -0.2705
26648W        W42782   1.011  16.963  12.797  0.1650  0.0600 -0.1451
26649W        W42783  18.493   7.607   3.257 -0.0872  0.1415  0.2013
26650W        W42784  13.882  11.908   2.583  0.0733 -0.0307  0.1107
26651W        W42785   0.384  13.148  15.128  0.3221  0.2735 -0.0917
26652W        W42786   6.892  12.419   3.705 -0.1145 -0.0173  0.1614
26653W        W42787  12.375  15.080   3.019 -0.0698  0.1233  0.0489
26654W        W42788  12.315   3.725  14.175  0.1556  0.1956 -0.0418
26655W        W42789   9.127   2.032  11.339  0.0342 -0.1200  0.0186
26656W        W42790   2.533  11.845  14.552  0.2744  0.1886 -0.3664
26657W        W42791   2.858   9.461  14.187  0.0731 -0.1448 -0.0951
26658W        W42792   1.968   8.204   3.792 -0.0245  0.1927 -0.0298
26659W        W42793   2.420  14.979   3.101  0.0378  0.1290 -0.3720
26660W        W42794  17.858  18.358  14.976  0.0898 -0.0271 -0.1894
26661W        W42795  14.172   9.634  14.650  0.2026 -0.0174  0.3753
26662W        W42796   0.271   1.228   2.007 -0.0651 -0.0666 -0.0205
26663W        W42797   2.402  13.795  10.269  0.2825 -0.0058  0.3241
26664W        W42798   8.411   2.654   4.172 -0.0563  0.0903 -0.0694
26665W        W42799  11.497   6.258  14.052 -0.0153  0.0966 -0.2546
26666W        W42800   3.486   3.790   5.241  0.1948  0.0019 -0.2465
26667W        W42801   0.144  17.071   6.156 -0.3096  0.1278  0.0006
26668W        W42802  17.216  16.330   0.898 -0.2134 -0.0506  0.1451
26669W        W42803  13.169  13.447   1.611  0.3765  0.1866  0.1260
26670W        W42804  18.349  15.013  11.840 -0.1924  0.1461 -0.1895
26671W        W42805  12.927   4.577   4.199  0.1817 -0.2983  0.1310
26672W        W42806   4.074  10.797  11.248  0.0290 -0.0641  0.1474
26673W        W42807  14.428   5.143   4.324 -0.2506 -0.1204  0.1283
26674W        W42808   9.156   1.766   2.469 -0.1922  0.1113  0.0188
26675W        W42809   3.711  17.507  14.594  0.2924 -0.0607  0.2587
26676W        W42810  17.073  15.045   4.627  0.6150  0.1146 -0.2106
26677W        W42811  15.015   7.328  12.641  0.0186 -0.0178  0.0093
26678W        W42812  11.668  16.031  12.740  0.0695  0.0200 -0.0486
26679W        W42813  12.184  15.943   3.513 -0.0808 -0.0090 -0.0537
26680W        W42814   5.364   2.971   3.088 -0.2965  0.1419 -0.0560
26681W        W42815  15.712   0.749   3.752 -0.0175 -0.4131  0.1610
26682W        W42816   4.654   6.998  14.248 -0.0525  0.0016 -0.0689
26683W        W42817  11.999   9.490  14.412  0.0638  0.0502  0.1912
26684W        W42818   1.628   5.408  13.378  0.1213 -0.1094  0.1751
26685W        W42819  18.201   6.469  11.783  0.0955  0.0894  0.1196
26686W        W42820  15.054  12.504  11.070  0.3989 -0.0111 -0.1533
26687W        W42821  12.852   9.341   1.436  0.1216  0.1007  0.0104
26688W        W42822  14.977   7.361  14.854  0.0043  0.2374 -0.1334
26689W        W42823   1.031  12.400   2.281 -0.1637  0.0061 -0.0482
26690W        W42824  16.299   4.573  12.106 -0.0641 -0.0809  0.0120
26691W        W42825   5.393   3.278  12.554 -0.0145 -0.1348  0.2754
26692W        W42826   4.166   7.344   2.490 -0.0837  0.2256 -0.0956
26693W        W42827  17.974   4.075  14.782 -0.2824 -0.0647  0.2149
26694W        W42828   9.321   0.813  10.924 -0.0317 -0.2461  0.1136
26695W        W42829  11.179  11.283  11.976 -0.1547 -0.0758 -0.0110
26696W        W42830   0.887   1.088   1.778 -0.0722 -0.0115  0.1130
26697W        W42831   3.342  17.974  11.627  0.1866 -0.0074 -0.0050
26698W        W42832  17.647   1.902  14.980 -0.6091 -0.0044 -0.0266
26699W        W42833   1.187   5.866  10.467 -0.0577 -0.1141 -0.0567
26700W        W42834  18.986  17.957  11.431 -0.2277  0.1714 -0.1035
26701W        W42835   1.204  17.377  10.944 -0.0732 -0.1446  0.5712
26702W        W42836   3.159   3.369   2.173 -0.0603  0.0779  0.2211
26703W        W42837   6.330   7.475  11.963  0.1847  0.3621 -0.1546
26704W        W42838   3.076   5.171   0.163  0.2724  0.4010  0.1798
26705W        W42839  17.690   8.469   3.965 -0.0833  0.1063  0.0234
26706W        W42840  15.588   5.182   3.699  0.2652 -0.0748  0.2588
26707W        W42841  16.695  18.808  12.117  0.1106  0.0241 -0.2049
26708W        W42842  17.166  12.685  10.813 -0.2507  0.0224 -0.0503
26709W        W42843   7.369  18.913   4.183 -0.1015  0.1400  0.1150
26710W        W42844  14.728  15.389  11.633  0.2450  0.1445 -0.0669
26711W        W42845  11.676  18.463  14.782  0.2809 -0.0540 -0.1709
26712W        W42846   2.568  16.887   4.314 -0.0225  0.0282  0.1143
26713W        W42847   1.961  10.552  11.887  0.1599 -0.0087  0.0100
26714W        W42848  13.305   0.359  13.995 -0.0878  0.2414  0.0898
26715W        W42849   4.097  16.228  11.149 -0.2232  0.0547 -0.1137
26716W        W42850  18.367   9.734   2.127 -0.1261  0.2195 -0.1428
26717W        W42851   0.041   4.232  15.183  0.0008 -0.0798 -0.3187
26718W        W42852   3.843   3.010   4.776  0.1543  0.4386 -0.0258
26719W        W42853   6.905   8.113   1.723 -0.0947  0.0781  0.1245
26720W        W42854  14.778   2.958  11.675 -0.2753  0.0525  0.1680
26721W        W42855  11.983   7.165  12.472 -0.0342 -0.3784 -0.1110
26722W        W42856   5.545   6.959   4.450  0.0890  0.0847 -0.1762
26723W        W42857  13.090   5.711  14.307 -0.0326 -0.1348 -0.0254
26724W        W42858   6.874  15.287  11.798  0.0901 -0.1989 -0.0439
26725W        W42859  15.617  13.040  15.079  0.4056 -0.2050  0.1942
26726W        W42860  12.510  11.375   4.065  0.0235  0.2429 -0.3727
26727W        W42861  10.373   3.639  13.080  0.1737  0.0777 -0.1796
26728W        W42862  10.164  15.300  13.185 -0.0495 -0.0974  0.0311
26729W        W42863   7.924  14.202   4.788 -0.3068  0.3291  0.1849
26730W        W42864  14.482   5.654   2.112 -0.1775  0.2095 -0.2047
26731W        W42865   3.564  12.994   1.291  0.0919 -0.1220  0.6317
26732W        W42866  14.062  12.342  12.605  0.1686  0.0632  0.0466
26733W        W42867   0.543  13.943  12.682 -0.2082 -0.1049  0.4678
26734W        W42868   0.640  11.380   1.962 -0.1499  0.1622  0.0784
26735W        W42869   2.258   3.504  13.280  0.0411  0.2289 -0.2691
26736W        W42870   3.889  15.246  14.515 -0.0476  0.0887 -0.0182
26737W        W42871  18.881  13.381   0.759  0.0037  0.0917 -0.0643
26738W        W42872   8.551   5.473   0.421 -0.1717 -0.2116 -0.1875
26739W        W42873  12.174  14.385   1.882 -0.0651  0.2816  0.2292
26740W        W42874  15.463  15.801  12.054 -0.1279  0.2123 -0.1461
26741W        W42875   4.122   7.982   3.949 -0.1587  0.0440  0.0544
26742W        W42876   7.302   3.104   0.799  0.1519 -0.0367  0.0310
26743W        W42877   3.929   5.086   3.528  0.1846 -0.0633  0.2747
26744W        W42878   4.926   4.818  15.161  0.0217  0.3350  0.0174
26745W        W42879   3.339  14.471   5.241  0.3158  0.0910 -0.1034
26746W        W42880  18.753   7.618  12.211  0.1859 -0.2370 -0.0217
26747W        W42881  17.159   4.115  14.667 -0.1354  0.3317 -0.0969
26748W        W42882  14.652  13.923   5.317  0.1470 -0.1538  0.3127
26749W        W42883   6.057  13.918  10.225  0.1732 -0.1412  0.0485
26750W        W42884   9.517  17.164   3.869 -0.2727  0.0461  0.0195
26751W        W42885   3.098  18.390   4.703  0.1029 -0.0325 -0.1976
26752W        W42886  14.238   1.987   3.570 -0.0673 -0.2651 -0.0306
26753W        W42887   1.606   1.425  13.654 -0.2752  0.1529  0.2423
26754W        W42888   2.380   3.282   4.252  0.1014 -0.0990 -0.0516
26755W        W42889  14.015   6.541   2.020 -0.1136  0.0557  0.4520
26756W        W42890   2.303   6.455  13.898  0.0527 -0.2252  0.0575
26757W        W42891  15.956   0.960   3.132  0.4349  0.0321 -0.2246
26758W        W42892   0.483   1.137  14.248 -0.1707 -0.1179 -0.1984
26759W        W42893  16.238   9.774   1.149 -0.0877  0.0903 -0.1053
26760W        W42894   0.224   9.635   4.533 -0.1670  0.0920 -0.0757
26761W        W42895   7.112   5.655   2.206 -0.0058  0.4208  0.0919
26762W        W42896   7.222  16.650   3.553 -0.3724  0.0550 -0.1319
26763W        W42897   0.063   5.801  11.484  0.1768  0.0364  0.0469
26764W        W42898   0.305   4.861  12.792  0.4343 -0.1175 -0.2098
26765W        W42899  11.503   1.024   3.550  0.1003  0.1710  0.1823
26766W        W42900   1.933   3.722   1.850  0.1473  0.0008 -0.0506
26767W        W42901   9.854   5.089  11.485 -0.0587 -0.0246  0.0243
26768W        W42902   0.764   2.223   4.399  0.0458 -0.0689  0.1065
26769W        W42903  13.551   0.156   1.849  0.3190  0.0308 -0.0928
26770W        W42904   1.619  13.244   3.092 -0.0071  0.1035  0.1233
26771W        W42905  10.370  18.985   4.405 -0.3281  0.2006  0.1683
26772W        W42906   1.341   4.832   1.874  0.0987  0.3081  0.0724
26773W        W42907   2.745  15.395   3.206  0.1487  0.0599  0.0274
26774W        W42908   9.019  16.815   3.194  0.3016 -0.1014  0.1804
26775W        W42909  11.944  14.900   1.016 -0.0118 -0.2814 -0.1746
26776W        W42910  13.230   4.264   1.012 -0.3531  0.0223  0.1233
26777W        W42911  16.455  16.797  11.863  0.1395 -0.2065  0.1377
26778W        W42912  17.701  12.623  12.177 -0.1542 -0.0745  0.2415
26779W        W42913   6.366   6.421   2.673  0.5964 -0.0981  0.0946
26780W        W42914   0.470   4.433   3.087  0.1887 -0.0150 -0.1990
26781W        W42915  17.666  16.028   2.244  0.1312  0.1436 -0.3827
26782W        W42916   3.952   3.770   2.149 -0.3257  0.1544  0.0596
26783W        W42917  16.192   8.823  13.596  0.0113 -0.1215  0.1635
26784W        W42918  16.925   9.036  14.513 -0.0745 -0.1713  0.0433
26785W        W42919  18.030  14.711   2.555 -0.1637  0.0269  0.1225
26786W        W42920   5.980   9.660  12.442  0.1870 -0.4138 -0.1604
26787W        W42921  17.380   6.190  13.801  0.1118 -0.1231 -0.0401
26788W        W42922   1.903   9.741   1.418 -0.1741 -0.3705  0.2128
26789W        W42923   7.406  18.928   2.110 -0.1714  0.0006 -0.0881
26790W        W42924   5.317   4.172   0.458  0.0677  0.2208 -0.1987
26791W        W42925  10.653   2.109   3.801  0.0769  0.2110  0.1904
26792W        W42926  17.410  15.219  12.320  0.3231  0.0622 -0.1572
26793W        W42927   1.745   9.217   2.049  0.0491  0.1136 -0.0533
26794W        W42928   4.378   1.452   0.966  0.0530  0.0876 -0.1226
26795W        W42929   0.148   7.277  11.137 -0.3337 -0.0614  0.0847
26796W        W42930  11.144   2.801   0.995 -0.3569 -0.2108 -0.0853
26797W        W42931  17.678  16.510   9.497 -0.2641 -0.1702  0.0991
26798W        W42932   6.369   9.279  12.552  0.0510 -0.0212 -0.1755
26799W        W42933   7.981   2.001   3.747  0.1990  0.0347 -0.2031
26800W        W42934  18.105   8.178  13.984 -0.4497 -0.3365 -0.0040
26801W        W42935  13.623  10.564   1.422 -0.3672 -0.0894 -0.0817
26802W        W42936   6.782  12.057   1.890 -0.0335 -0.1629  0.1164
26803W        W42937   1.359   6.307   5.016 -0.2120 -0.1676  0.0841
26804W        W42938  15.437  11.059  13.743 -0.2140 -0.2835  0.1506
26805W        W42939  13.233   2.404   3.283 -0.1246  0.2806 -0.0819
26806W        W42940   3.383  18.490  11.724  0.4248 -0.1491 -0.3615
26807W        W42941  11.431  17.707  15.137 -0.1068 -0.1100  0.3697
26808W        W42942   2.716  16.933   4.822  0.1612  0.0830  0.1900
26809W        W42943  18.314   6.591   4.119  0.0655  0.1301  0.0738
26810W        W42944   6.933   9.645  11.873  0.2003  0.2077 -0.2842
26811W        W42945   5.891  14.294   5.936  0.1095 -0.1982 -0.0734
26812W        W42946   1.259   2.882   2.138  0.0950  0.0532 -0.3150
26813W        W42947   4.516   5.739   0.882  0.2359 -0.1768 -0.1807
26814W        W42948  14.881  13.776  14.062  0.4531 -0.1574 -0.0617
26815W        W42949   5.110   9.047   1.062  0.0351 -0.2524  0.1626
26816W        W42950   0.415   1.479  13.839 -0.2885  0.3207 -0.1179
26817W        W42951   9.414  16.464  13.641 -0.2991  0.3268  0.0149
26818W        W42952   3.105   6.870  13.320  0.0326 -0.0496  0.0151
26819W        W42953   5.553  15.221  14.855 -0.3530  0.1302  0.0773
26820W        W42954  10.780  15.494  11.596  0.2313  0.0309  0.0979
26821W        W42955   3.950   8.447   1.317  0.0307  0.1499 -0.2198
26822W        W42956   7.690   0.243   2.926  0.0048  0.2005  0.0737
26823W        W42957   0.837   0.608   1.034  0.2447  0.0438 -0.1353
26824W        W42958   7.052   2.932  11.082  0.2324 -0.4693 -0.2345
26825W        W42959   7.039   1.311  10.174  0.2687  0.3026 -0.4698
26826W        W42960   6.445   7.800  13.770 -0.0484  0.2485  0.1348
26827W        W42961  10.854  17.427  11.399 -0.3385  0.1278  0.1591
26828W        W42962  13.071   3.272   2.297  0.2191 -0.0636  0.3275
26829W        W42963   9.618   3.831  13.533 -0.1538 -0.0150  0.3064
26830W        W42964   2.448   6.201   1.567 -0.0754 -0.0916 -0.0148
26831W        W42965  11.240  15.331  12.452 -0.1249 -0.0718  0.1786
26832W        W42966   5.790  14.636   3.997 -0.0351  0.0675  0.2423
26833W        W42967  10.040   4.595  13.840  0.2840 -0.0175 -0.3317
26834W        W42968   6.361  12.268   1.027  0.1098  0.0032  0.1939
26835W        W42969  15.432  17.255   2.306 -0.0959 -0.0227 -0.1250
26836W        W42970  10.409   9.442   3.432 -0.2008 -0.0374  0.1546
26837W        W42971  18.416   0.125  13.849 -0.0021  0.0066  0.3852
26838W        W42972  14.597  10.486   0.789  0.0207 -0.0554  0.1800
26839W        W42973  13.834   3.035   1.494 -0.2318 -0.3549  0.0440
26840W        W42974   1.572  17.153   3.413  0.1779  0.1583  0.0998
26841W        W42975  10.626  18.260  14.795  0.2854  0.1248 -0.0852
26842W        W42976   5.840  15.856   2.098  0.0529 -0.2056 -0.0931
26843W        W42977  14.947   5.971   0.780 -0.0580  0.0827 -0.3085
26844W        W42978  15.502   8.969   5.358 -0.2332 -0.1760 -0.0668
26845W        W42979  14.685   4.257  12.767  0.2222 -0.0101  0.0240
26846W        W42980   5.379   6.287   1.777 -0.0665  0.3397  0.0306
26847W        W42981   5.056   6.186  11.084  0.0545 -0.0059 -0.0158
26848W        W42982   6.009   3.282   1.980 -0.0968 -0.1310 -0.0360
26849W        W42983   1.215  11.079   4.869 -0.0855 -0.2612  0.0701
26850W        W42984  10.290  11.843  10.872 -0.1144  0.3077 -0.3427
26851W        W42985   7.878  18.746  11.894  0.2358 -0.0188  0.3696
26852W        W42986   2.705  11.577   1.068 -0.0589 -0.0692  0.1250
26853W        W42987   9.000   3.249   1.790 -0.1820 -0.0586  0.0172
26854W        W42988   0.817   5.955   4.020 -0.2771  0.1270 -0.1070
26855W        W42989   3.405   3.813  11.347 -0.0095 -0.1210 -0.1213
26856W        W42990  13.252  13.153  13.376 -0.3578  0.1102  0.2186
26857W        W42991   5.521  10.700   4.955  0.1237  0.4977  0.0355
26858W        W42992  16.143  13.803  11.538  0.0906  0.2454  0.0351
26859W        W42993   4.300   6.909  15.091  0.0443 -0.5100  0.1937
26860W        W42994   6.290   2.363   4.433 -0.1650  0.0644  0.0460
26861W        W42995  18.659  16.946   6.027  0.1428 -0.4242 -0.4463
26862W        W42996   4.928   2.673   2.091  0.0324  0.0249 -0.2184
26863W        W42997   9.293   4.965  10.473 -0.0972  0.0378 -0.0353
26864W        W42998   7.938  10.761  10.208 -0.1752  0.2747  0.1217
26865W        W42999   6.788  12.510  13.863  0.1929 -0.0792 -0.1114
26866W        W43000   6.509   9.474  10.137  0.0133  0.2079 -0.1603
26867W        W43001  12.764   5.107   1.555  0.0751  0.0817 -0.2366
26868W        W43002   7.059   4.128   0.880  0.2618  0.0381  0.2448
26869W        W43003   0.209  17.197   4.053 -0.1986 -0.0033  0.3077
26870W        W43004   1.499   8.006   0.175 -0.0561 -0.0904 -0.0446
26871W        W43005  18.377   9.720  13.316 -0.1388 -0.1523  0.0677
26872W        W43006   2.099  12.124  13.838  0.4693 -0.3345  0.2037
26873W        W43007  18.623   4.025  12.167 -0.0854  0.2139 -0.0033
26874W        W43008   6.955  15.267   5.046 -0.0837  0.1397 -0.1920
26875W        W43009   6.970  16.852  12.279 -0.0149  0.2644  0.0556
26876W        W43010   2.957   1.930   3.109 -0.2063  0.2204 -0.0672
26877W        W43011   1.545   3.143   1.331  0.0339 -0.0789 -0.0958
26878W        W43012   4.729   0.225   3.274  0.2466  0.2256  0.0990
26879W        W43013   3.321   4.125   0.203 -0.1753  0.1028 -0.1490
26880W        W43014   7.725  16.042   1.623  0.1511  0.1424  0.2052
26881W        W43015  12.129  11.241   4.599 -0.1115 -0.0785  0.4647
26882W        W43016  18.064  10.000   1.902 -0.0167  0.1200 -0.0961
26883W        W43017   2.638  10.287   1.160  0.2919 -0.1263 -0.2123
26884W        W43018   7.621   0.205  12.931 -0.2808 -0.0447 -0.0806
26885W        W43019  17.021   8.968  13.639 -0.0917  0.1334  0.0638
26886W        W43020   9.107  14.968   0.640  0.1078  0.0586 -0.1834
26887W        W43021  16.317  15.505   0.388 -0.0730  0.2289 -0.2355
26888W        W43022   6.215   6.088   2.355  0.0095  0.1247 -0.0010
26889W        W43023  17.158   4.419   6.363  0.1799 -0.2452  0.0951
26890W        W43024  10.321   7.690  10.407 -0.4051 -0.0621  0.2503
26891W        W43025  16.391  16.436  13.955  0.3356 -0.0860 -0.0104
26892W        W43026   8.055  14.712   4.748  0.2079  0.1822  0.0782
26893W        W43027  16.702  15.842   5.992  0.3422 -0.2528  0.0630
26894W        W43028   2.520   4.183  10.370 -0.0751 -0.0211 -0.3752
26895W        W43029   6.238   5.536   1.515  0.0292 -0.1708 -0.0674
26896W        W43030  14.928   0.956   1.714 -0.1994  0.1260  0.0063
26897W        W43031   8.639   6.130   0.585  0.0932 -0.0576 -0.0431
26898W        W43032   5.570   0.188   2.655  0.0243 -0.0048  0.1176
26899W        W43033   4.773   4.800  11.893  0.0536  0.1447  0.1929
26900W        W43034   2.682   5.389  12.067 -0.1556  0.1865 -0.1828
26901W        W43035  10.307   8.874  13.872 -0.0574  0.1147  0.0653
26902W        W43036  10.389  13.738   3.372  0.3237 -0.1585  0.0487
26903W        W43037  12.620  18.435  14.878  0.0584  0.0486  0.0209
26904W        W43038  15.095   8.669   0.852  0.1193  0.0740 -0.0894
26905W        W43039  11.436   2.717   2.517  0.0051 -0.1067 -0.0185
26906W        W43040   8.544   7.979  10.367 -0.2261 -0.0913 -0.0435
26907W        W43041  18.090   2.277  13.039  0.0005  0.1043 -0.2027
26908W        W43042  12.472  17.663  10.596  0.0004  0.3372  0.0559
26909W        W43043   5.683   7.531  10.019 -0.0056 -0.1898 -0.2658
26910W        W43044   2.002   9.149  13.942 -0.1169 -0.0396 -0.0683
26911W        W43045   4.987  16.309  12.285  0.0422 -0.0860 -0.0626
26912W        W43046  10.302  13.819   0.734  0.0590  0.0606 -0.0444
26913W        W43047   1.789   5.481  12.311 -0.2491 -0.0038  0.0179
26914W        W43048   9.302  16.118  13.217  0.2898  0.1498 -0.1826
26915W        W43049   6.013  10.064   3.472  0.0721  0.1840  0.0990
26916W        W43050   0.612   2.504   5.701  0.0644 -0.2006 -0.0852
26917W        W43051  16.517  16.231   2.801  0.1886  0.0422 -0.2019
26918W        W43052   1.252   8.879   1.253 -0.0600  0.2908  0.2783
26919W        W43053   1.090   1.004   4.316 -0.2014 -0.0888  0.1891
26920W        W43054   4.635   3.413  15.001 -0.2030 -0.0060  0.1005
26921W        W43055   1.607   8.197  15.013 -0.2091 -0.1103  0.0904
26922W        W43056  15.572  17.639   0.468 -0.1357  0.0116  0.2529
26923W        W43057  12.074   3.891   3.440  0.1160  0.0230 -0.4813
26924W        W43058   8.799   9.638  13.047  0.1740 -0.0363 -0.1463
26925W        W43059  10.946  12.011   0.735  0.2537 -0.1773  0.1884
26926W        W43060   0.907  11.573   3.570  0.0610  0.1490  0.0668
26927W        W43061   5.724   0.647  12.578  0.0927  0.2916  0.1949
26928W        W43062  10.308  17.834  12.929 -0.0677 -0.1067 -0.2289
26929W        W43063   1.486  18.955  10.590  0.1489 -0.0563 -0.0519
26930W        W43064   5.539  16.626   0.004  0.0137  0.1539  0.1110
26931W        W43065   7.316  15.620   5.175 -0.2172  0.3654  0.1816
26932W        W43066  17.314   5.822  12.388  0.0703 -0.0804 -0.2493
26933W        W43067   7.912  18.722   2.853  0.1973  0.1040  0.0493
26934W        W43068  11.546   8.558  12.334 -0.0236  0.0451  0.0646
26935W        W43069  14.800   6.631   4.138  0.0624 -0.3044  0.0181
26936W        W43070  11.788   3.971  14.539 -0.2071  0.0592  0.3571
26937W        W43071   5.139   4.224  11.899 -0.1745 -0.0000 -0.0071
26938W        W43072   5.491   7.286  11.238 -0.0851  0.0542  0.1640
26939W        W43073   8.694   9.701  11.083  0.0981  0.0571  0.2110
26940W        W43074   2.420   2.590   9.410 -0.1476  0.2733 -0.0247
26941W        W43075   3.482  10.851   1.638  0.0642 -0.0946  0.0630
26942W        W43076  15.551   7.963   1.376 -0.1866 -0.3818  0.1921
26943W        W43077   5.877   0.987   1.284 -0.1650  0.2236 -0.3492
26944W        W43078  18.408   7.426   2.324  0.1895  0.1171  0.2540
26945W        W43079   5.605   0.137  15.118  0.1427 -0.3871  0.0397
26946W        W43080   3.967  12.256   4.346  0.1951 -0.1619  0.0496
26947W        W43081  11.216  16.511  13.828  0.0939  0.0126 -0.0747
26948W        W43082   0.388   6.868   2.700 -0.0102 -0.1047 -0.2564
26949W        W43083  16.888   1.660  12.772  0.4707 -0.1756 -0.3054
26950W        W43084   2.472   7.993   4.936 -0.0523  0.1024  0.3638
26951W        W43085  10.895  16.901   4.914  0.0952 -0.1288  0.2957
26952W        W43086  13.812   4.712   0.033 -0.2619 -0.1520 -0.2623
26953W        W43087  14.893   2.072  10.625  0.1101  0.0619  0.1821
26954W        W43088  18.751  13.869  14.631 -0.0029  0.2267  0.1527
26955W        W43089   3.517  13.592  15.274 -0.1498 -0.1422  0.1837
26956W        W43090  14.593  10.727  11.489 -0.1866 -0.2701 -0.1292
26957W        W43091  10.702  17.489   1.816 -0.2390 -0.5113  0.2445
26958W        W43092   2.127   9.517  14.873 -0.6034  0.0155  0.1845
26959W        W43093   8.916   4.039   1.917  0.0006  0.3432  0.1549
26960W        W43094   6.086  10.619  11.196 -0.2225  0.0252  0.0378
26961W        W43095  18.684  14.254  13.061  0.2205  0.3211  0.4328
26962W        W43096  11.490  10.481  11.643 -0.0886  0.1035 -0.0079
26963W        W43097  17.996  13.102   9.766  0.3503  0.0356 -0.1430
26964W        W43098   1.544  10.554  14.493  0.1652  0.1686  0.0494
26965W        W43099   3.934  14.346  13.943 -0.1183 -0.2728  0.1224
26966W        W43100  12.840   6.111   0.425  0.1618  0.0045  0.0694
26967W        W43101  18.943  11.474  12.027  0.0256  0.0502  0.0514
26968W        W43102   1.290   0.708   1.377 -0.2085  0.0015  0.1512
26969W        W43103   4.964   8.659   4.146  0.0734 -0.2596  0.3019
26970W        W43104  12.559   1.874  14.414 -0.1871  0.0056  0.0346
26971W        W43105   6.372  11.083   1.783  0.1084  0.0901 -0.0261
26972W        W43106   1.612  15.512   1.701  0.0329  0.2919  0.1479
26973W        W43107  15.023  12.343   3.272  0.3652  0.2119 -0.0470
26974W        W43108  15.935   3.576  13.514 -0.2322 -0.0380 -0.0456
26975W        W43109   8.425  15.772   3.319  0.0549 -0.0355  0.1826
26976W        W43110  13.128   2.071   2.906  0.0687 -0.2819  0.1174
26977W        W43111  15.167  17.250   1.200 -0.0638 -0.0568 -0.2848
26978W        W43112   8.181  13.918  14.679  0.1495  0.1361  0.0983
26979W        W43113   3.465   8.974  14.052  0.1101 -0.1846  0.0854
26980W        W43114  10.999  10.504   1.846 -0.0658 -0.2464 -0.1309
26981W        W43115  17.022  16.427   4.918  0.0127  0.1767 -0.0741
26982W        W43116   6.966  10.045  11.494 -0.4054 -0.1584  0.2349
26983W        W43117  14.390   9.412  14.234 -0.1740  0.0059 -0.4274
26984W        W43118   2.079   7.648   4.936 -0.0349 -0.2645 -0.0917
26985W        W43119   6.179  14.254   4.677  0.1392 -0.0518  0.2208
26986W        W43120  16.993  12.675  10.326  0.2251  0.1163  0.1114
26987W        W43121   5.238  10.233  14.949 -0.1984 -0.2044 -0.0580
26988W        W43122   8.117  12.671   0.719  0.2448 -0.0023 -0.3278
26989W        W43123   5.968   0.431  12.198 -0.1993  0.0061 -0.0555
26990W        W43124   7.870  17.647  12.674  0.4157 -0.0007 -0.0969
26991W        W43125  15.307  10.931  11.855  0.0621 -0.0928  0.1690
26992W        W43126  13.675  11.263   0.315  0.0765  0.0700 -0.1183
26993W        W43127   3.091   6.643   4.998 -0.0461 -0.0259 -0.3863
26994W        W43128   2.630  17.979   2.355  0.0816  0.0164  0.2874
26995W        W43129   8.108  10.484  12.327 -0.3626  0.2288 -0.1433
26996W        W43130   9.599   5.063  10.113  0.0008  0.1632  0.0871
26997W        W43131   5.909  11.846   3.815  0.0510 -0.0668 -0.0550
26998W        W43132  12.291  11.365  14.071  0.0569  0.3228  0.1910
26999W        W43133   5.300  17.511  13.101 -0.2246  0.1290 -0.1420
27000W        W43134  12.039  15.196  12.640 -0.1752 -0.0494 -0.2502
27001W        W43135  16.656   9.729   4.476  0.1041 -0.2147  0.0834
27002W        W43136  14.585   9.422   5.253  0.2987  0.2519  0.0760
27003W        W43137   8.058   8.368   4.460 -0.1123  0.1539  0.0271
27004W        W43138   0.003   3.714   4.691  0.0514  0.0175  0.0664
27005W        W43139  14.792  14.302  10.819 -0.0802  0.1052 -0.5856
27006W        W43140  17.663  15.350  15.196 -0.0698  0.1300  0.1297
27007W        W43141  12.433  15.920  11.493 -0.1259  0.2014  0.1940
27008W        W43142  13.856  10.247   3.719  0.1607  0.0849 -0.0008
27009W        W43143  17.539   1.321   1.936  0.0062 -0.0452 -0.2158
27010W        W43144   6.897   4.739  11.554  0.1113  0.1908  0.2816
27011W        W43145   2.259  17.523   1.816 -0.0656 -0.0586  0.3982
27012W        W43146  13.244  10.591   4.373 -0.0864  0.0362  0.4688
27013W        W43147  16.285  18.577  14.429  0.0850 -0.2670  0.2315
27014W        W43148  15.283  14.985   4.811 -0.1942 -0.0135  0.0360
27015W        W43149   0.112   6.122  13.379  0.2995 -0.0343 -0.1617
27016W        W43150   3.594  15.690  11.808  0.0540  0.1008 -0.0318
27017W        W43151   5.623  11.015   1.558  0.2946  0.1300  0.3338
27018W        W43152   5.081  13.885   5.514  0.0782  0.3019 -0.2512
27019W        W43153  18.459   7.241  12.076 -0.0822  0.1078 -0.3793
27020W        W43154  10.153  16.207   1.802 -0.3757  0.0592  0.0837
27021W        W43155  11.832   1.967  10.954  0.1280  0.0102 -0.1270
27022W        W43156   6.483  13.506  12.021 -0.3166  0.3989 -0.1544
27023W        W43157  17.424   5.357  12.832 -0.2053  0.3503  0.2581
27024W        W43158  10.460   2.523  15.028  0.0302 -0.2629 -0.1696
27025W        W43159   5.148  13.628  12.898 -0.1366 -0.1043 -0.0042
27026W        W43160   0.606  18.127  11.544 -0.1136  0.3799  0.0648
27027W        W43161  11.532  11.132   1.261 -0.0239 -0.0309 -0.0256
27028W        W43162  13.781   2.259  12.370 -0.0425 -0.3334  0.3228
27029W        W43163  14.690  10.171  11.622  0.0306  0.0831 -0.0292
27030W        W43164   7.636  13.936   2.434  0.0664 -0.0016 -0.3623
27031W        W43165   8.650   1.765  10.881 -0.1894 -0.0267 -0.1583
27032W        W43166  16.847   2.064   1.898 -0.1866  0.1676  0.0213
27033W        W43167  11.388  15.800  12.266  0.2059 -0.0176 -0.1235
27034W        W43168   3.086   7.381  12.094  0.2147  0.2525 -0.0273
27035W        W43169   0.718  16.566   0.453  0.2968  0.3141 -0.0698
27036W        W43170  15.415  18.216  14.594 -0.4085  0.1027  0.0137
27037W        W43171  18.277   9.762  11.113 -0.0100  0.2428 -0.1164
27038W        W43172  12.985  10.709  14.470 -0.3192  0.1113 -0.1693
27039W        W43173   8.061   7.359  14.108 -0.0783 -0.1610 -0.1161
27040W        W43174  12.361   0.798  14.716 -0.0861 -0.2089 -0.3046
27041W        W43175   8.513   6.949   9.891 -0.0961  0.0367  0.1010
27042W        W43176   3.895   6.267   2.518  0.3724 -0.1857 -0.2612
27043W        W43177   8.547   2.481   2.585 -0.0745 -0.0093 -0.1110
27044W        W43178   8.879   6.297  12.383  0.0260 -0.4457  0.3799
27045W        W43179  15.412  12.518  14.982 -0.0916  0.5012 -0.0903
27046W        W43180  12.043   2.983   0.749 -0.2602 -0.0685 -0.1681
27047W        W43181  18.109   1.506  14.150  0.0585 -0.0023 -0.0508
27048W        W43182   2.244   8.699  13.877  0.1994 -0.2489 -0.2893
27049W        W43183   8.946   7.076   5.598 -0.0909 -0.0515  0.0127
27050W        W43184  17.869   4.909   4.555  0.0659  0.2722 -0.0137
27051W        W43185   2.778   1.908  14.126  0.2136  0.2330  0.2484
27052W        W43186   0.887   4.795   1.232 -0.2083  0.1757 -0.1336
27053W        W43187  11.889  18.913   0.716 -0.3979 -0.1215 -0.1542
27054W        W43188   0.978   5.128  12.283  0.1963  0.2091 -0.0784
27055W        W43189  11.678   8.572   0.777  0.0709 -0.1430 -0.0365
27056W        W43190  18.244   7.604   0.950  0.1358  0.0793  0.2085
27057W        W43191  18.022  14.634   4.541  0.3678 -0.1846 -0.0238
27058W        W43192   1.925   1.029   4.346  0.0448  0.0499 -0.4358
27059W        W43193  11.538   5.853   1.525  0.0590  0.0351 -0.0154
27060W        W43194  16.145  14.428  13.835 -0.1427 -0.3114  0.1455
27061W        W43195  17.023   9.383  11.771  0.0534 -0.0492 -0.2060
27062W        W43196   1.348  12.567  13.471 -0.2045 -0.2587 -0.1834
27063W        W43197  16.179  10.400   0.243  0.1240  0.0866  0.2531
27064W        W43198   1.039   9.948   3.910  0.0769  0.1560  0.1173
27065W        W43199  18.685   2.144  14.124 -0.3724 -0.1022  0.0176
27066W        W43200   4.924   5.819   3.697 -0.0995  0.2676  0.0309
27067W        W43201  14.853  10.188   1.373 -0.2204 -0.0600  0.2005
27068W        W43202   1.811   6.692  14.818 -0.2631  0.0630 -0.1930
27069W        W43203  12.860   2.501   4.942 -0.4284 -0.1413  0.0226
27070W        W43204   2.901   7.850   0.582 -0.1452  0.1506  0.0008
27071W        W43205   9.713   3.809  10.960  0.2338  0.3179  0.2874
27072W        W43206   1.495  15.840   3.831 -0.0016  0.1353 -0.2192
27073W        W43207  14.702  15.776  13.126 -0.0214  0.1232 -0.1035
27074W        W43208   6.826   4.048   1.323  0.5419  0.3326  0.0645
27075W        W43209   6.675   7.830   2.465  0.0793  0.0088 -0.0921
27076W        W43210  12.967   6.617  14.681  0.0585 -0.1968 -0.2654
27077W        W43211   9.204   6.656   4.714 -0.0231 -0.0812  0.2384
27078W        W43212   3.426  10.324  12.790  0.0916 -0.1070 -0.0221
27079W        W43213   6.002  16.332   2.465 -0.3789 -0.0149 -0.2580
27080W        W43214  11.265   9.625   3.120 -0.0047  0.1373 -0.0820
27081W        W43215  13.522  15.080   4.131 -0.1275  0.3877  0.0801
27082W        W43216  10.173   4.971  13.408  0.0047 -0.1613  0.1512
27083W        W43217  11.780   3.083   3.918 -0.1150  0.1447  0.0580
27084W        W43218  18.081   1.347  13.115 -0.2851  0.0740 -0.1925
27085W        W43219   2.280  15.998  14.200 -0.3516 -0.0110 -0.3171
27086W        W43220  13.606   2.511   9.863 -0.0226 -0.3006 -0.1225
27087W        W43221  16.487  10.944   0.742  0.0277  0.1063 -0.1087
27088W        W43222  13.730  13.118   4.436  0.0558 -0.0366 -0.1154
27089W        W43223   9.086   2.193  13.525  0.3048 -0.3103  0.1101
27090W        W43224   5.923   8.984   5.221  0.2004 -0.0314 -0.1446
27091W        W43225  10.185  10.886   5.354  0.1445  0.2817  0.1001
27092W        W43226  15.741   1.793  11.937  0.1033  0.0927  0.0668
27093W        W43227  10.943   2.671  11.587 -0.0725 -0.2261  0.0056
27094W        W43228   5.144   2.372  12.073  0.2043 -0.0396 -0.1705
27095W        W43229   4.227  12.006  10.221  0.3043  0.2168  0.0403
27096W        W43230   0.480   4.418   1.150 -0.2925  0.1496  0.0937
27097W        W43231   5.268   0.731  13.729  0.1158 -0.0912 -0.2204
27098W        W43232   1.183  16.865  14.227 -0.1135 -0.2209 -0.0520
27099W        W43233  11.147  11.774  13.335  0.3822 -0.0453  0.2432
27100W        W43234  14.566   8.392   9.945  0.0338  0.0295 -0.0422
27101W        W43235  16.878   7.268  13.903  0.0331 -0.3945  0.1519
27102W        W43236  12.978  10.574   0.596 -0.0828  0.0947  0.1249
27103W        W43237  11.511  17.897  10.866  0.1557  0.0330  0.0602
27104W        W43238  11.741  15.487  12.397  0.3466 -0.0460  0.0326
27105W        W43239   4.462   9.182  12.113 -0.2828 -0.0658 -0.2151
27106W        W43240   0.775   4.805   3.223  0.3894 -0.0514 -0.1816
27107W        W43241   0.730  10.129  11.960 -0.0523 -0.3139  0.3677
27108W        W43242  13.624   4.062   1.296 -0.1821  0.1009 -0.0322
27109W        W43243   9.162  18.430   0.391 -0.0262 -0.2155 -0.1538
27110W        W43244  16.215  16.153   1.437  0.1378 -0.0639 -0.1018
27111W        W43245  18.504   2.345  15.186 -0.2352  0.3173 -0.1934
27112W        W43246  10.428   8.082   0.786  0.2635  0.0676 -0.0867
27113W        W43247   5.470   8.940  13.792 -0.0071  0.1773  0.0597
27114W        W43248  18.837   0.263   3.123  0.2166 -0.0647 -0.1118
27115W        W43249  14.541  11.011   3.319  0.2264  0.1075  0.1675
27116W        W43250   4.504  15.536   2.747 -0.0841  0.1777  0.1363
27117W        W43251  13.884  12.087   9.527 -0.2524  0.1370 -0.0716
27118W        W43252  17.375   3.305  13.998  0.1396  0.2995  0.1540
27119W        W43253   1.842   4.865   1.739  0.1547 -0.0899  0.1000
27120W        W43254  15.433  18.909  15.116 -0.0896  0.0542 -0.0047
27121W        W43255   8.124  15.170   1.241 -0.0537 -0.1555 -0.1401
27122W        W43256   5.749  14.659  13.737 -0.0146  0.0569 -0.1561
27123W        W43257  16.069   4.077   3.791 -0.2765 -0.2873 -0.0854
27124W        W43258  18.637   2.749  14.669  0.1944 -0.1886 -0.1055
27125W        W43259   5.947   4.912   2.927 -0.2345 -0.1082 -0.1462
27126W        W43260  10.033   8.620  10.608 -0.1198 -0.1276 -0.3124
27127W        W43261  14.160   6.822   5.391 -0.1271 -0.1587 -0.0454
27128W        W43262   1.924  12.598   3.502  0.0942  0.2141  0.0076
27129W        W43263   2.846   3.780   0.031 -0.1009  0.2940  0.1033
27130W        W43264   7.813  16.901  11.715 -0.1205 -0.1051 -0.1005
27131W        W43265   0.707   3.961  14.340 -0.0466 -0.1867 -0.2502
27132W        W43266   9.711   4.071   3.187 -0.1171 -0.1242  0.0977
27133W        W43267   5.024   2.875  14.939  0.0511 -0.1750  0.0700
27134W        W43268  12.561   2.905   0.075  0.0286 -0.0029 -0.1740
27135W        W43269  16.421  15.081   0.668 -0.0227  0.3256 -0.0540
27136W        W43270   3.692  17.303  12.702 -0.0740  0.0112 -0.2802
27137W        W43271   5.143  14.821  12.587  0.2496 -0.0473  0.0474
27138W        W43272   8.932  12.170   1.099  0.2147  0.1013 -0.2759
27139W        W43273  14.796   7.965   4.879  0.0769 -0.0113  0.1766
27140W        W43274   7.573   7.423   5.335 -0.2236  0.1465 -0.1505
27141W        W43275  10.629  17.243   4.664 -0.1552  0.2729  0.1704
27142W        W43276   1.705  14.951  13.358  0.1003 -0.1786  0.1299
27143W        W43277   9.005   9.734   2.086  0.0473 -0.1523  0.0851
27144W        W43278   0.824   7.958   3.097  0.1033 -0.0005 -0.0741
27145W        W43279  13.208   7.760  13.345 -0.2426  0.1484 -0.3519
27146W        W43280   7.596   7.653  11.090 -0.1674  0.2126 -0.0989
27147W        W43281   8.865   8.518   3.582  0.1686 -0.1437  0.1789
27148W        W43282   1.388  10.594  11.297 -0.3454 -0.0660 -0.0213
27149W        W43283   7.826  13.447   2.505 -0.1243  0.2210  0.0345
27150W        W43284   6.604   2.988  15.032 -0.2033 -0.5152  0.1004
27151W        W43285  13.173  11.343   3.011 -0.6307 -0.0740  0.0585
27152W        W43286   4.449  10.085   4.760 -0.0496  0.0396 -0.0964
27153W        W43287  11.199   5.242  11.368 -0.1018  0.1109 -0.1069
27154W        W43288   2.469  13.136   4.888 -0.0863 -0.0847 -0.0246
27155W        W43289   3.060  11.114   1.308  0.2747  0.1264 -0.1244
27156W        W43290  18.206  12.076   0.212  0.1704  0.1251 -0.0312
27157W        W43291   8.316  14.508  12.560  0.1613 -0.4277 -0.0617
27158W        W43292   2.461   9.435   4.240  0.2577 -0.1745 -0.1878
27159W        W43293  12.056  18.550   1.076  0.1683  0.0661  0.0590
27160W        W43294  15.893   7.579  14.245 -0.2169 -0.0523  0.0656
27161W        W43295   3.576   6.887   4.934  0.1310 -0.1514 -0.1460
27162W        W43296   9.689  14.684   5.077  0.1146  0.1067  0.1367
27163W        W43297   9.486   4.305  13.128  0.0119 -0.3530  0.2656
27164W        W43298   7.303  13.326   3.235 -0.1083  0.0983 -0.1739
27165W        W43299   5.260   9.849  11.312  0.0697 -0.1707 -0.2803
27166W        W43300   4.617  10.036   3.896 -0.0552  0.2058 -0.0882
27167W        W43301   0.936  13.430   4.864 -0.0594  0.4540  0.1000
27168W        W43302  10.772   0.063   4.186  0.0502 -0.0250  0.0351
27169W        W43303   4.033  16.469  14.424  0.0088  0.1854  0.0469
27170W        W43304   7.112   7.168   5.135 -0.1006 -0.3312  0.2416
27171W        W43305  11.114   8.885   2.236 -0.0382 -0.0993  0.1170
27172W        W43306  15.223   0.134   1.171  0.2092  0.0326 -0.1243
27173W        W43307  14.032  13.247  14.207 -0.0759 -0.0106 -0.1374
27174W        W43308   6.374   8.631   4.707 -0.2436  0.2011 -0.2054
27175W        W43309  10.846   1.079   4.733 -0.1397 -0.0669 -0.0310
27176W        W43310   4.933  15.752   1.797 -0.0862 -0.0631 -0.0031
27177W        W43311   4.340   6.737   0.659 -0.0043  0.1543  0.0365
27178W        W43312  16.951  15.552   2.250 -0.1409 -0.2053 -0.0301
27179W        W43313   5.630   2.083  14.128 -0.2006  0.1386  0.2360
27180W        W43314  14.262   5.790  10.791  0.2164  0.0318  0.2234
27181W        W43315   8.603  11.929   2.330 -0.0436 -0.0076  0.0819
27182W        W43316  13.799   3.438   2.844 -0.0545  0.3577 -0.1519
27183W        W43317   0.696  14.350  11.788  0.2343 -0.1407  0.0051
27184W        W43318  14.123   2.617  13.583 -0.1953  0.3157  0.1073
27185W        W43319   8.217   4.620  14.259 -0.3415 -0.1788 -0.0941
27186W        W43320   6.838  12.068   2.519  0.0479 -0.0506 -0.1237
27187W        W43321   6.885  12.576  11.379 -0.0581  0.3187 -0.1575
27188W        W43322   7.414  14.669  11.555 -0.1668 -0.0081 -0.2148
27189W        W43323   2.731   8.955  13.717 -0.6006 -0.1370 -0.3311
27190W        W43324  11.807  18.866   4.476 -0.0354 -0.0724 -0.1022
27191W        W43325  18.303   9.250   2.118 -0.1011  0.0386 -0.0263
27192W        W43326   3.628   9.660   3.317 -0.0870 -0.1716 -0.1331
27193W        W43327   5.215   6.531  12.411  0.1391 -0.0782  0.0927
27194W        W43328   2.513  17.355   5.074 -0.1427  0.0003 -0.2081
27195W        W43329   8.110   6.326  13.678  0.0564 -0.0965  0.0881
27196W        W43330  10.557   7.895   3.208 -0.0277 -0.2329 -0.0640
27197W        W43331   3.763  18.388  15.258  0.1879 -0.1603 -0.2305
27198W        W43332  12.563   2.198  10.735  0.2022 -0.2301  0.0569
27199W        W43333  18.984   0.655   4.585 -0.2626 -0.1733  0.0245
27200W        W43334   9.373  13.132   0.027 -0.2394 -0.1159  0.1715
27201W        W43335  16.926  16.413  11.370 -0.0392 -0.1399  0.4325
27202W        W43336  15.498  13.794  11.188  0.1754  0.2085  0.1673
27203W        W43337   5.945  17.058   4.225 -0.1896 -0.0982  0.1441
27204W        W43338   0.049   2.929  14.956  0.4097  0.0018 -0.0003
27205W        W43339  11.553  15.905   4.141 -0.3195  0.2847 -0.1052
27206W        W43340  13.610  12.486   9.413 -0.0368 -0.0348  0.0150
27207W        W43341   8.183   0.277   1.112 -0.2910  0.1961 -0.3418
27208W        W43342  14.192   6.562   1.043 -0.1087  0.1726  0.2031
27209W        W43343   9.752   5.410   2.855  0.4008 -0.1634  0.0260
27210W        W43344   5.417  17.202  13.950 -0.0324 -0.3970 -0.2168
27211W        W43345  17.298   7.547   0.650 -0.2841  0.0695  0.0835
27212W        W43346  15.852   3.750   1.050 -0.0992 -0.1933 -0.0734
27213W        W43347  18.063   9.495  11.605 -0.0425 -0.0029 -0.0796
27214W        W43348   4.813  18.315  11.540 -0.1389  0.3840 -0.0057
27215W        W43349   9.861  13.523   3.918  0.2096  0.2053 -0.0053
27216W        W43350  16.614  13.867   1.549  0.0470 -0.1196 -0.0182
27217W        W43351  15.204  10.315   3.712  0.0403 -0.4948 -0.0429
27218W        W43352  14.014   5.342   1.420  0.0759 -0.1623  0.0066
27219W        W43353  14.271   3.225   1.194  0.1523  0.1447  0.0608
27220W        W43354   7.625   3.958   0.880 -0.2500  0.0567  0.2119
27221W        W43355  10.870   0.083   3.207  0.1405  0.0219  0.1144
27222W        W43356   4.169  15.338  15.229  0.1962  0.0155  0.3238
27223W        W43357   5.844  14.072   4.326  0.2219 -0.2342  0.2884
27224W        W43358   7.846  13.979  15.131 -0.1103 -0.2924  0.2780
27225W        W43359   0.234   9.899   2.752  0.0369 -0.1896  0.4528
27226W        W43360  12.145  11.727  12.671  0.2385  0.2844 -0.2732
27227W        W43361   0.688  12.483  12.131  0.0415 -0.0974  0.0210
27228W        W43362   6.271  14.422  14.885 -0.0022  0.2865  0.0516
27229W        W43363  16.947  17.364  10.241  0.0260 -0.1992  0.1297
27230W        W43364  14.452  13.656  13.022 -0.0601  0.0189 -0.0253
27231W        W43365   0.431  14.854   0.953  0.0800  0.3433 -0.3518
27232W        W43366   0.854   7.153  12.086 -0.0420  0.0624 -0.1670
27233W        W43367   6.598   1.221   0.613  0.1104 -0.0127 -0.0370
27234W        W43368   6.921  14.907  12.737  0.1718  0.2616 -0.1801
27235W        W43369   7.024  17.713  13.446  0.3986  0.5155  0.2314
27236W        W43370  11.880   5.432  10.592 -0.1312 -0.2108  0.1662
27237W        W43371  14.745   9.637  10.651 -0.1571 -0.2516 -0.1498
27238W        W43372   3.607  10.525  15.062  0.2137  0.0747  0.3768
27239W        W43373  15.810   2.364   0.579  0.2138  0.0410  0.0064
27240W        W43374  14.532   8.477  12.025 -0.0129 -0.1953 -0.1191
27241W        W43375   4.463  16.500   2.388  0.0460 -0.2651  0.0318
27242W        W43376   3.326   2.857   5.711 -0.2407  0.0013  0.1420
27243W        W43377  17.505  10.609  15.235  0.4016 -0.1003 -0.1192
27244W        W43378  10.798  11.805  11.046  0.2701 -0.0118  0.1121
27245W        W43379   1.720   1.737   5.201 -0.1424  0.0792 -0.0775
27246W        W43380   1.179  15.214   3.959 -0.3782  0.1410  0.1242
27247W        W43381   8.360   4.737  11.252  0.0377 -0.1268  0.0887
27248W        W43382   1.384  16.585   2.592 -0.1570  0.0003  0.0171
27249W        W43383  13.289  10.196   4.106  0.1718 -0.0983  0.0128
27250W        W43384   5.443   1.245   4.351  0.0012 -0.0515  0.0681
27251W        W43385   5.764  15.620   2.758  0.1057 -0.2364 -0.1723
27252W        W43386  10.211   5.486  12.560 -0.1580 -0.2042 -0.1409
27253W        W43387   2.407  15.221  14.642 -0.0974  0.0127  0.1569
27254W        W43388  14.154   1.722  14.464  0.3696  0.0774  0.1548
27255W        W43389   7.091   3.328  13.806  0.0085  0.0619 -0.0254
27256W        W43390   0.901   4.852   0.130 -0.0157 -0.1067 -0.1925
27257W        W43391   9.969   8.875  11.807  0.1504  0.0701 -0.1093
27258W        W43392  12.559  10.934   3.772 -0.4957 -0.0474 -0.0928
27259W        W43393  18.170  11.402   4.979  0.0329  0.0885  0.0826
27260W        W43394  18.029  16.188   2.555  0.1215 -0.1938  0.1771
27261W        W43395  16.203  17.248  12.979  0.1787 -0.1463  0.2290
27262W        W43396   9.631   8.472   2.341  0.1533 -0.0579  0.1749
27263W        W43397   7.893  17.014  10.284 -0.1484  0.0772  0.0754
27264W        W43398  12.043  17.128   4.076  0.1594  0.2382  0.0238
27265W        W43399   8.916  11.274   1.705 -0.0538  0.0890 -0.2749
27266W        W43400  11.992  16.274  10.943  0.1605 -0.2092 -0.0534
27267W        W43401  14.660  17.408   5.641  0.1911  0.1569  0.2178
27268W        W43402  13.434  16.447  10.716 -0.1820  0.0773  0.1802
27269W        W43403   9.639   8.014  11.390 -0.0621  0.0584 -0.2923
27270W        W43404  17.547   2.625   2.852  0.1839  0.1127 -0.0611
27271W        W43405  15.637  11.725   0.518 -0.0518  0.0518  0.0974
27272W        W43406  14.936  10.800  10.426 -0.0835 -0.0339  0.2212
27273W        W43407  12.078   2.850   2.664 -0.1533  0.2185 -0.0179
27274W        W43408  11.363  18.979   1.394 -0.0720  0.1406  0.3900
27275W        W43409   4.265  15.619  14.274 -0.1973  0.0608 -0.3246
27276W        W43410  14.987   1.058  13.468  0.1557  0.1115  0.1056
27277W        W43411  16.719   1.511   1.152  0.2499  0.0453 -0.0522
27278W        W43412   7.617   5.305  14.649  0.2065  0.1605 -0.3165
27279W        W43413   5.035  17.323  12.088 -0.0518  0.1636 -0.1772
27280W        W43414  15.256   9.956   4.013  0.2376  0.2267  0.1185
27281W        W43415  15.000  18.995  11.399  0.5040 -0.0131 -0.3282
27282W        W43416  15.594  10.312  14.131  0.1136 -0.0143 -0.2804
27283W        W43417   0.546   0.780   0.439 -0.4278  0.0606 -0.0442
27284W        W43418  10.126   1.552   0.356 -0.1902  0.0394 -0.0553
27285W        W43419   9.922  14.067   4.684 -0.1432 -0.1569  0.1273
27286W        W43420   2.097   2.602   3.070 -0.0053 -0.2786  0.1423
27287W        W43421   8.308  16.799   0.386  0.0548 -0.1383 -0.0108
27288W        W43422  18.399   4.171   3.583 -0.4360  0.2388 -0.0384
27289W        W43423  14.992   9.175   4.287 -0.0408  0.2173  0.0975
27290W        W43424  18.645   3.094  11.511 -0.0903  0.1738  0.2545
27291W        W43425   2.189   1.253  15.077  0.1779 -0.2006 -0.0896
27292W        W43426  10.482   8.119   0.277  0.3181  0.0083 -0.3546
27293W        W43427   2.299   5.313  14.227  0.0957 -0.0837  0.0550
27294W        W43428   5.278  12.349   1.665  0.3056  0.0864  0.4183
27295W        W43429  18.002   1.101   3.643 -0.1428  0.0643 -0.2015
27296W        W43430  11.910   9.870   1.757 -0.0625  0.1036  0.2393
27297W        W43431  13.879   3.128   4.994 -0.0514  0.4246  0.2016
27298W        W43432  10.396   0.496  14.913 -0.2726 -0.0619 -0.2419
27299W        W43433   1.740  15.042   1.290  0.0779  0.1141  0.1352
27300W        W43434  12.185  17.496  12.591  0.0914  0.0662 -0.1445
27301W        W43435  14.640   5.047   3.096  0.0548  0.0250  0.0319
27302W        W43436   9.309  16.609   1.667  0.2087  0.3035 -0.0670
27303W        W43437   9.647  17.459  13.294  0.4552  0.2203 -0.1703
27304W        W43438   3.438  10.314   2.283  0.2422  0.2640  0.2270
27305W        W43439  14.529  10.211  12.845 -0.0082  0.2179 -0.0867
27306W        W43440  10.506  17.450   2.618 -0.0414 -0.1283 -0.0898
27307W        W43441   5.808  15.322   5.614  0.0453  0.0010 -0.1516
27308W        W43442   0.359  11.118   0.650  0.0001 -0.1898  0.0254
27309W        W43443   1.817  10.756   3.081  0.2399 -0.1227 -0.0656
27310W        W43444  10.219  11.537  10.419 -0.0182 -0.2818  0.0456
27311W        W43445   8.900   5.363   0.117  0.1635  0.2319 -0.2617
27312W        W43446   4.370  13.119   4.472 -0.0707  0.0875  0.0656
27313W        W43447  10.987  14.333  10.780 -0.1998  0.0857 -0.2824
27314W        W43448   2.022  18.645   1.785  0.2844  0.0596  0.0159
27315W        W43449   4.063   5.115  14.287  0.0358 -0.0169 -0.1300
27316W        W43450  10.598  10.636  14.128  0.1193  0.3803  0.1481
27317W        W43451   1.318   0.587   3.167  0.2501  0.2997  0.1293
27318W        W43452   8.150  13.576   5.426  0.0043 -0.0047 -0.3688
27319W        W43453  17.255  13.918   2.233  0.2083  0.1363 -0.0876
27320W        W43454   6.979  16.045   0.919 -0.1886  0.1384  0.2210
27321W        W43455   9.306   2.645  13.450 -0.1549  0.1379 -0.0202
27322W        W43456   0.406   2.421  13.333 -0.1241 -0.1598 -0.0733
27323W        W43457   3.154   8.083   3.947  0.2599 -0.1038 -0.2931
27324W        W43458   2.283   8.993   3.480 -0.0852  0.1325 -0.1513
27325W        W43459  10.985  17.648  12.562 -0.1585 -0.1199  0.2600
27326W        W43460  18.093   0.715  11.876 -0.1208  0.2382  0.1636
27327W        W43461   1.990   8.094  11.084 -0.0266  0.2559  0.3993
27328W        W43462  12.925  16.088  11.356 -0.0016  0.0791 -0.2690
27329W        W43463   6.889   8.203   2.269 -0.1432  0.2779  0.1367
27330W        W43464   5.175  17.475  15.108  0.3163  0.1874  0.0188
27331W        W43465   1.762  12.217   0.098  0.0208  0.0252  0.4969
27332W        W43466   8.436  17.538  11.918 -0.0617  0.2492 -0.0779
27333W        W43467  15.149   7.649  13.856  0.1356 -0.0460 -0.1135
27334W        W43468  18.489   8.833   0.536  0.1281  0.0588 -0.1228
27335W        W43469   2.492  11.059  15.189 -0.2512  0.1734 -0.1536
27336W        W43470   5.787   4.080  10.119 -0.1053  0.0790  0.0252
27337W        W43471   7.688   5.808  11.534 -0.2090 -0.1404  0.1999
27338W        W43472   7.450  18.891   1.524 -0.1943 -0.0001 -0.0126
27339W        W43473  18.197  13.700   3.410  0.0856 -0.3688 -0.2209
27340W        W43474  13.157   0.192   5.875 -0.1194  0.0837  0.0255
27341W        W43475  14.366  15.146   0.320  0.0904 -0.2650 -0.2662
27342W        W43476   0.834   5.507  12.590 -0.0119 -0.0411 -0.1275
27343W        W43477   7.789   8.317  12.303  0.2993 -0.0350  0.3135
27344W        W43478   4.230  11.909  14.345 -0.2723 -0.0019 -0.0208
27345W        W43479  10.700   9.614   1.010  0.0767 -0.3575 -0.3674
27346W        W43480   2.588   3.573   2.695 -0.1870 -0.1178 -0.1568
27347W        W43481  13.954  11.442   2.694  0.0429  0.0104  0.0548
27348W        W43482   7.059   1.488  10.801 -0.3831 -0.0844  0.1145
27349W        W43483   0.461  10.419  14.311  0.1051 -0.0223  0.2552
27350W        W43484  12.185   2.482  11.053 -0.2637  0.1324 -0.2329
27351W        W43485   2.907   8.959   2.887  0.1581 -0.2845 -0.0944
27352W        W43486  15.467   9.946   3.409  0.1046  0.3694  0.2265
27353W        W43487  15.127   7.598   4.965  0.1104  0.0190 -0.3708
27354W        W43488   1.183   6.072   1.855 -0.0294 -0.0693 -0.1589
27355W        W43489   5.199   7.231   3.059 -0.4689  0.1421  0.2992
27356W        W43490   5.578   6.465   4.338  0.0782  0.3167 -0.0620
27357W        W43491  16.134  12.965   5.125  0.0863 -0.1839 -0.0530
27358W        W43492  15.851   4.206  10.533 -0.0887  0.1289 -0.1531
27359W        W43493  13.930  13.273   2.411  0.1024 -0.0308  0.3429
27360W        W43494  14.459   4.990   3.803 -0.3228  0.0540  0.0702
27361W        W43495  12.118  10.484  11.147 -0.2891 -0.1495  0.2268
27362W        W43496   3.619  16.047  13.916  0.2113  0.6096  0.0161
27363W        W43497  16.472  16.168  15.007 -0.1832  0.1717  0.0352
27364W        W43498  11.433  11.997   0.109 -0.0093  0.1298  0.1419
27365W        W43499   0.716  13.768   1.670 -0.3129  0.1437 -0.0832
27366W        W43500  13.235  18.142  12.671 -0.2906  0.2361  0.0999
27367W        W43501   4.017  11.530  10.427  0.4370 -0.1337  0.0355
27368W        W43502   6.524   7.039  13.503  0.0781 -0.1334 -0.0200
27369W        W43503  12.057  16.862  11.422  0.1630 -0.2632  0.0930
27370W        W43504  16.373   6.743   3.860  0.1852 -0.2002 -0.0555
27371W        W43505  11.459   4.611   4.522 -0.0252 -0.0486  0.3834
27372W        W43506   1.958   3.005  10.586  0.0074 -0.1873 -0.2505
27373W        W43507   4.703  18.970  10.792 -0.0472  0.1135 -0.0495
27374W        W43508  18.058  14.208   0.105  0.2462  0.0527 -0.1073
27375W        W43509  15.315   3.210   2.393  0.0351  0.3047 -0.5278
27376W        W43510   4.241  16.864   1.574  0.1639  0.0019 -0.3242
27377W        W43511  13.592  13.311   2.837  0.2172 -0.0403 -0.0532
27378W        W43512  18.601  11.424  13.974  0.0173  0.0355 -0.0307
27379W        W43513  10.044   8.165   2.278  0.2067 -0.1529  0.0974
27380W        W43514   3.544  16.437   2.890 -0.3438 -0.0779 -0.1089
27381W        W43515   4.823  18.536  13.305 -0.1362  0.0235  0.3889
27382W        W43516   1.341  11.797  13.936 -0.2957 -0.3247  0.0601
27383W        W43517  16.756  11.759   1.801 -0.0038 -0.0094 -0.3766
27384W        W43518   0.320   4.442  12.476  0.1013  0.1265 -0.0226
27385W        W43519  16.794  15.084   2.126  0.0884  0.0159 -0.5152
27386W        W43520   4.498  15.626  12.718 -0.4148  0.0123 -0.2824
27387W        W43521   3.510   0.209   3.666 -0.0624  0.2420 -0.1133
27388W        W43522  13.647   4.484   2.750 -0.0088 -0.0264 -0.0029
27389W        W43523   3.800   2.308   4.621  0.2647  0.1418 -0.0858
27390W        W43524  15.352  18.856  12.656  0.2714 -0.3334  0.1465
27391W        W43525   6.335  11.040  11.766  0.2913 -0.2264 -0.2907
27392W        W43526  11.838   9.698  15.243  0.3136  0.0418  0.4736
27393W        W43527   1.248   2.693   1.196 -0.3933 -0.2069  0.0812
27394W        W43528  16.386   8.910  14.625 -0.3795  0.2521 -0.2450
27395W        W43529  16.461   0.022   1.282 -0.2399  0.4083  0.3280
27396W        W43530   1.086  17.415  12.370  0.3549  0.0796  0.0118
27397W        W43531  16.313  12.397   2.210  0.2443 -0.3410 -0.0298
27398W        W43532  12.262  15.549  15.009 -0.2833 -0.1988 -0.0564
27399W        W43533   8.674  16.919   9.951 -0.3412 -0.0269 -0.1759
27400W        W43534  10.226   4.792   3.045  0.1223  0.3488 -0.0195
27401W        W43535  14.732   3.880  11.888  0.0951 -0.2851 -0.0095
27402W        W43536   7.549   3.910  12.120 -0.2962 -0.2177 -0.0122
27403W        W43537  14.820  13.850   9.119  0.3466  0.1563  0.0512
27404W        W43538  11.867  13.240   2.955  0.0986 -0.1676 -0.1643
27405W        W43539  14.088  12.056   3.063  0.0388  0.1117 -0.1561
27406W        W43540  18.203  12.020  12.889  0.0019 -0.1873  0.0235
27407W        W43541   6.790   9.311   9.717 -0.2695 -0.3879  0.0124
27408W        W43542   3.306  11.256   3.906  0.1403 -0.1427 -0.0321
27409W        W43543  10.204  11.530   1.939 -0.0450  0.0876  0.0894
27410W        W43544  18.442  12.051   1.293 -0.1000  0.1629 -0.2721
27411W        W43545  15.685   8.462  12.339  0.1717 -0.1161 -0.1233
27412W        W43546  18.398   2.174   0.440 -0.1979 -0.0000 -0.0721
27413W        W43547   3.410   9.082  11.271  0.0416  0.1310  0.2099
27414W        W43548  14.561  15.292   0.805  0.0246 -0.2141  0.2502
27415W        W43549   9.595   0.219  11.658 -0.2439 -0.3686  0.0962
27416W        W43550  15.521  16.031   2.742 -0.0094  0.0969  0.1506
27417W        W43551   0.467  16.164   2.411 -0.1231 -0.0789 -0.0630
27418W        W43552  13.724  16.902  12.900 -0.0837 -0.0148  0.2519
27419W        W43553   7.537  17.632  11.697  0.1190 -0.3369  0.2243
27420W        W43554   3.650   3.198   3.908 -0.0518  0.1181 -0.0204
27421W        W43555   8.711   6.970   0.691  0.1051 -0.2443  0.0967
27422W        W43556   6.150  16.002   3.268 -0.2349 -0.3408 -0.0196
27423W        W43557  16.219   5.922  12.499  0.1810 -0.2307 -0.0661
27424W        W43558  11.342  15.206   3.330 -0.0460 -0.1395 -0.0465
27425W        W43559  17.417  10.344   4.282  0.3212 -0.0048 -0.0409
27426W        W43560   8.060  14.449   0.939  0.0625  0.2595  0.0899
27427W        W43561   2.373  14.087  12.425 -0.1808  0.1675  0.1629
27428W        W43562  18.497  17.941  11.752 -0.0044 -0.1453  0.1495
27429W        W43563  14.323   8.673  13.658  0.0243 -0.2308  0.1848
27430W        W43564  18.932  15.966   6.312  0.1989 -0.0966 -0.2132
27431W        W43565   6.636  12.376  14.933 -0.0986  0.0849  0.1621
27432W        W43566  17.892  15.156  11.812 -0.2749  0.0146  0.0088
27433W        W43567  18.084  14.994  15.274 -0.0946 -0.0629  0.2551
27434W        W43568   6.729   9.502  10.619  0.1985 -0.1551 -0.1870
27435W        W43569  16.497   7.387   0.534 -0.0370  0.1729 -0.5030
27436W        W43570  15.281  15.568   2.709 -0.1900  0.0287 -0.3149
27437W        W43571  13.520   5.304   4.210  0.1037 -0.3752 -0.2603
27438W        W43572  16.190   6.731  13.546  0.0884  0.3083  0.0704
27439W        W43573   3.324   1.536  12.000 -0.3270 -0.0564 -0.1378
27440W        W43574   1.979   3.592  12.441  0.0639 -0.0114 -0.0424
27441W        W43575  14.648   7.940  12.243  0.0340  0.2689 -0.0009
27442W        W43576   8.287  12.436   0.317  0.1404 -0.0636  0.1117
27443W        W43577  18.403  10.787   0.143 -0.2682 -0.2837  0.2394
27444W        W43578   9.673   9.427   0.189  0.1944  0.0027 -0.0200
27445W        W43579  12.285   0.057   2.460 -0.0914  0.1346  0.2844
27446W        W43580   7.758   9.780   3.107 -0.0835 -0.0213  0.4794
27447W        W43581  14.919  14.105   3.522  0.1387  0.0184  0.1294
27448W        W43582  13.376  16.038  10.415  0.1265  0.3890  0.1719
27449W        W43583   1.050   6.426   4.194 -0.2887 -0.2582 -0.0209
27450W        W43584  15.597   0.833  10.767  0.1186  0.0633 -0.0069
27451W        W43585  16.237  16.313  11.870  0.2745  0.3525  0.1639
27452W        W43586   2.058   3.701  11.650 -0.0759  0.1558  0.1249
27453W        W43587   9.073   3.398  11.538  0.1279 -0.1160  0.0012
27454W        W43588  12.125   8.741   2.228  0.0502  0.0502  0.1675
27455W        W43589  10.810   3.527  13.471  0.1738  0.3318 -0.1908
27456W        W43590   4.177   6.325   4.153  0.2016  0.1128 -0.0199
27457W        W43591   8.259  15.601  11.639  0.0820  0.1144  0.1090
27458W        W43592   4.048  15.628  11.921  0.0357  0.1776 -0.0951
27459W        W43593   6.578   8.822  12.798 -0.3126 -0.1369  0.3463
27460W        W43594   0.994   0.541   0.228 -0.3328  0.0226  0.1337
27461W        W43595   3.625   4.602  10.888  0.0646  0.0851 -0.0099
27462W        W43596   5.359  11.203  10.159 -0.1952 -0.0452 -0.0447
27463W        W43597  16.278  16.057  13.583  0.2528  0.2233 -0.4160
27464W        W43598  14.581   3.408   2.002  0.0887 -0.1463  0.0013
27465W        W43599  13.915   8.964   5.205 -0.0145  0.0949  0.1172
27466W        W43600  18.093   4.342   1.865 -0.2618  0.3272  0.0273
27467W        W43601   2.364   5.375  14.753  0.2726  0.1629  0.0221
27468W        W43602   4.389   2.708   0.321  0.0163  0.0779 -0.0769
27469W        W43603   8.932   0.469   5.926  0.5057 -0.3430  0.0667
27470W        W43604   6.219   1.534   3.996 -0.0359  0.0767  0.1080
27471W        W43605  13.178   6.078   0.788  0.1802  0.5436  0.0479
27472W        W43606   7.601  10.467   3.680  0.2710 -0.2925 -0.0414
27473W        W43607   6.814   4.309  12.228  0.2287 -0.1438 -0.1154
27474W        W43608   4.348  10.745  11.679  0.0809 -0.2096 -0.1041
27475W        W43609   7.957   5.797  11.092 -0.0771 -0.2941 -0.0327
27476W        W43610  16.987   9.320   3.261 -0.1771 -0.1237 -0.0177
27477W        W43611   3.430   4.098   0.793 -0.0907 -0.1177 -0.0181
27478W        W43612   8.510  16.640  13.433 -0.0593  0.0178  0.0397
27479W        W43613   6.050   0.184   2.490  0.4285 -0.2072  0.0641
27480W        W43614  12.870   8.675  10.814  0.1457  0.1212  0.1276
27481W        W43615  16.030  15.056  14.344  0.2230  0.2327  0.0606
27482W        W43616  11.364  10.157  15.090 -0.2966 -0.2523 -0.2950
27483W        W43617   8.841  18.372   1.744  0.0553 -0.2463  0.2008
27484W        W43618   5.426  13.471  11.025 -0.0623  0.1760 -0.2366
27485W        W43619   0.415   2.639   2.007  0.0953  0.0630 -0.1328
27486W        W43620  11.595  14.206   3.818 -0.1693  0.1388  0.0609
27487W        W43621   1.029  16.455  13.620 -0.1758  0.0568 -0.1189
27488W        W43622  10.061   0.712  10.513  0.3822 -0.0046  0.1706
27489W        W43623   9.900   3.356  10.906 -0.1546 -0.2469  0.2078
27490W        W43624   4.991  13.644  11.365  0.2073  0.3563 -0.0443
27491W        W43625   2.799  13.511  12.166 -0.0576  0.1289 -0.1066
27492W        W43626  17.873   7.280   1.079  0.0540 -0.0011 -0.0942
27493W        W43627   3.603  18.480  13.546  0.4446 -0.1479  0.3742
27494W        W43628   1.528  12.502   0.401 -0.2893  0.1190 -0.0443
27495W        W43629  17.576   7.988   1.579 -0.1383  0.1184 -0.0724
27496W        W43630   0.231   9.046  14.721 -0.1297 -0.1853 -0.0740
27497W        W43631   0.229  16.661   1.552  0.1095  0.0758  0.3071
27498W        W43632   9.110  17.480   2.094 -0.0636  0.0297  0.1759
27499W        W43633   3.986  10.550   4.405 -0.1910  0.1988 -0.1143
27500W        W43634  15.712   5.231  15.062  0.4434  0.1439 -0.1340
27501W        W43635   4.453  18.750  13.614 -0.2187  0.3095  0.1072
27502W        W43636   0.880   8.902   1.676 -0.0374  0.0395 -0.3110
27503W        W43637  18.949  11.012  14.825 -0.3691 -0.0040  0.0830
27504W        W43638   7.645   9.057   0.662  0.1798 -0.0078 -0.0730
27505W        W43639  16.027   0.402  14.784  0.4346 -0.1970  0.2096
27506W        W43640   4.327   2.502  13.592  0.1298  0.2750  0.1481
27507W        W43641   4.787  12.133   3.518  0.1323  0.1924  0.4610
27508W        W43642   6.035   6.126   9.834 -0.3864 -0.1304 -0.0959
27509W        W43643  15.219  17.291   4.461 -0.1895 -0.1945  0.1604
27510W        W43644   0.619  16.309   1.392  0.0411  0.0051  0.5283
27511W        W43645   2.173  12.622  13.593 -0.4130  0.4140  0.4148
27512W        W43646  12.237  18.923   3.724  0.0890 -0.3050 -0.0495
27513W        W43647  15.728   4.860   1.965 -0.1518  0.1122 -0.0404
27514W        W43648  14.134   2.404   2.690 -0.1779 -0.0827 -0.1347
27515W        W43649  12.910   1.093  12.127  0.0814  0.0845 -0.0313
27516W        W43650   8.724   7.369   2.989  0.0760  0.0832 -0.0964
27517W        W43651  16.910   5.445  10.802 -0.0827 -0.0321  0.3244
27518W        W43652   3.968  13.656   4.253 -0.0974 -0.0133  0.1044
27519W        W43653  11.685  12.667   3.815  0.3713 -0.0560  0.3900
27520W        W43654   5.119  15.798  14.439  0.2666  0.1721  0.0668
27521W        W43655   9.414   6.721  10.165  0.0589 -0.1028  0.0560
27522W        W43656  17.699  17.452  12.974 -0.0963 -0.4509 -0.0805
27523W        W43657   2.791  17.265  12.595 -0.0149 -0.1905 -0.3202
27524W        W43658   7.699  11.304  14.773 -0.0897  0.1162 -0.2605
27525W        W43659   4.488   0.687  11.833  0.0682 -0.1244 -0.2188
27526W        W43660   1.203  13.321  11.841  0.3607 -0.0278  0.0194
27527W        W43661  15.289  13.764  12.317  0.1475 -0.0784  0.2192
27528W        W43662  18.857   9.501  13.344  0.0628 -0.2736 -0.0347
27529W        W43663  13.735   2.790   1.989 -0.2213  0.4667 -0.0712
27530W        W43664   1.861  18.804   4.686  0.0505 -0.0083 -0.2212
27531W        W43665   7.739   3.487   0.817  0.2747 -0.3987  0.1572
27532W        W43666   3.570  18.644   3.776 -0.1005 -0.5457  0.1158
27533W        W43667   1.731  13.498  10.540 -0.0987  0.0688  0.1019
27534W        W43668  15.666  14.049  13.016 -0.1353 -0.1508 -0.0841
27535W        W43669   9.701   1.278   9.856  0.2505 -0.1656  0.1780
27536W        W43670   4.800   7.301  10.666 -0.2689  0.1712 -0.3022
27537W        W43671   6.485   9.671   4.442  0.0821  0.0649  0.1091
27538W        W43672   3.387   2.998  15.136  0.0874  0.0757 -0.0141
27539W        W43673   0.619  15.008   3.421 -0.1811  0.0563 -0.0699
27540W        W43674  12.374  15.760   4.755 -0.0512  0.1370 -0.1285
27541W        W43675  14.780  13.184   3.636 -0.1341 -0.0496  0.0347
27542W        W43676   5.678  16.794  13.599 -0.0054  0.1909  0.1786
27543W        W43677  16.417   7.034   0.043  0.0324  0.1941 -0.0230
27544W        W43678  16.336  11.994  14.377  0.1455 -0.2841  0.0408
27545W        W43679  15.687   1.714   4.839 -0.4230 -0.1973  0.1328
27546W        W43680  17.673  18.906  14.053 -0.1609  0.2024  0.1419
27547W        W43681   2.723   7.123  11.307  0.0396  0.0163  0.2432
27548W        W43682  18.588   1.585  12.699 -0.0720  0.1871 -0.0461
27549W        W43683  13.676   5.580   3.841  0.2669 -0.0672  0.2538
27550W        W43684  11.131  17.465  13.693 -0.1825 -0.1308  0.0310
27551W        W43685  10.313  14.091  12.626  0.2684  0.0005 -0.0842
27552W        W43686  15.153  16.822   4.494  0.2229  0.1941 -0.1537
27553W        W43687   3.229  17.734   4.885  0.0402 -0.0170 -0.1812
27554W        W43688  18.281  11.374   3.308 -0.0560 -0.1055 -0.1130
27555W        W43689   2.034  14.439  11.694 -0.3037  0.0781 -0.0111
27556W        W43690   1.760  16.730  13.172  0.2135 -0.1565 -0.4046
27557W        W43691  10.014  18.217   0.134  0.2124  0.3077 -0.1534
27558W        W43692   0.840  16.548  11.925  0.1020 -0.0394  0.1876
27559W        W43693  16.576  16.214   5.009  0.1629 -0.1099  0.0728
27560W        W43694  18.072  18.267  11.014  0.0066 -0.0969 -0.3990
27561W        W43695   2.495   8.511   1.057 -0.0469 -0.2868 -0.0772
27562W        W43696  18.478  13.636   2.029  0.0682  0.0678  0.0684
27563W        W43697   8.500   7.182  13.514 -0.1267 -0.0463 -0.0158
27564W        W43698   7.924   6.631  12.348  0.3375  0.0575  0.2199
27565W        W43699  12.328  15.434  14.074 -0.0718 -0.0881 -0.1034
27566W        W43700   6.023  12.334  13.616  0.0653 -0.2169  0.2137
27567W        W43701   0.525  12.193  13.116  0.0410 -0.2283  0.1443
27568W        W43702   4.965  15.489  14.003  0.0477  0.0428 -0.1951
27569W        W43703  13.207   6.159  12.384  0.0914 -0.5603  0.0007
27570W        W43704  15.688  18.541  14.322 -0.0953 -0.0475 -0.0004
27571W        W43705  18.415   2.899   1.875  0.3496 -0.0930  0.0407
27572W        W43706  11.065   1.126  10.523 -0.2520 -0.0448  0.0785
27573W        W43707   3.302  14.755   0.819 -0.1834  0.1061  0.1212
27574W        W43708   1.005   0.219  10.343 -0.0129  0.2172  0.2991
27575W        W43709  15.478   6.613   5.776  0.1163  0.0775  0.1276
27576W        W43710  18.709   4.668   0.637 -0.2209 -0.1846  0.0392
27577W        W43711  15.900   1.852   0.405 -0.0213 -0.3917 -0.0231
27578W        W43712   2.989  18.690  11.428  0.1705 -0.0818  0.2688
27579W        W43713   2.893   6.614  14.701 -0.0586  0.0891 -0.3230
27580W        W43714  14.772  13.642   3.352  0.3263  0.0277 -0.2340
27581W        W43715  13.245  16.285   2.512  0.2283 -0.0492  0.0614
27582W        W43716   4.006   7.589  12.265 -0.0639 -0.0813 -0.0849
27583W        W43717   0.777  15.346   0.783  0.1726  0.0081 -0.1887
27584W        W43718   3.004   9.309  14.747 -0.1182  0.4791  0.0621
27585W        W43719  15.518   6.169   2.814  0.1138 -0.1587  0.3806
27586W        W43720  11.693  18.458  11.788  0.1164 -0.0752  0.0500
27587W        W43721  15.755  17.746   4.801 -0.1389  0.1890  0.1356
27588W        W43722  13.670   9.870  12.500 -0.0083 -0.1080  0.1810
27589W        W43723  10.896  13.323  13.323 -0.0288  0.1343  0.2764
27590W        W43724   0.593  17.269  12.234  0.0702  0.2874 -0.1685
27591W        W43725   9.048  12.181   4.442  0.0443  0.1693  0.1219
27592W        W43726   2.116  18.327  13.935 -0.2662 -0.3911  0.0853
27593W        W43727  11.968  11.022   3.328  0.0774 -0.0633 -0.2046
27594W        W43728   8.904  15.009  12.380 -0.1013 -0.3676 -0.2158
27595W        W43729  15.399   1.131  14.673 -0.2265  0.0445  0.1064
27596W        W43730  14.941  18.641   4.408 -0.1102 -0.3507 -0.0196
27597W        W43731   6.865   9.986  14.493 -0.3585 -0.2208 -0.0624
27598W        W43732   0.728   7.211   2.473 -0.0750 -0.2447  0.2336
27599W        W43733   0.375   5.661   1.223 -0.0607  0.0328 -0.1063
27600W        W43734   8.250   4.258   0.351 -0.0832  0.1237 -0.3203
27601W        W43735   6.476  15.418  14.284  0.0128  0.0952 -0.1182
27602W        W43736   7.463   0.014  13.438  0.1823  0.0445  0.1925
27603W        W43737   5.723   4.517  10.801 -0.1695  0.2680  0.1683
27604W        W43738  15.129   6.500  13.630 -0.1367 -0.0711  0.0935
27605W        W43739   8.314  15.983   4.146  0.0358 -0.2276 -0.2782
27606W        W43740   8.397   8.792   0.281  0.0562 -0.1468 -0.3234
27607W        W43741   9.021  13.445   4.932 -0.3000 -0.1607  0.2073
27608W        W43742   2.977  17.962   4.258  0.0253 -0.0785 -0.1032
27609W        W43743  12.356  18.343  13.452  0.1503 -0.0885 -0.4156
27610W        W43744  16.690   1.173  12.714  0.0737  0.3497 -0.0710
27611W        W43745   5.456  17.030   0.976  0.2038 -0.0920  0.1638
27612W        W43746   1.930  12.715   5.104 -0.1701  0.0967 -0.0805
27613W        W43747   8.141  17.384  11.078 -0.2287 -0.2867  0.1865
27614W        W43748  11.582  13.543  11.885  0.1282  0.8064  0.0777
27615W        W43749   6.381   3.892   5.302  0.0748 -0.1004 -0.3415
27616W        W43750  17.366   9.681   3.907 -0.2390  0.0279  0.0741
27617W        W43751  12.994   8.338  14.227  0.1132 -0.2296 -0.0339
27618W        W43752  16.982   4.103  12.813 -0.4230  0.1278  0.0626
27619W        W43753   6.608   7.108  12.953 -0.4034 -0.0385  0.1929
27620W        W43754  11.514  11.500   4.154  0.2032 -0.0214  0.0949
27621W        W43755   2.203  13.638  13.253 -0.0988 -0.0694  0.0612
27622W        W43756  18.130   3.612   2.521  0.2565 -0.2221 -0.2227
27623W        W43757  17.432   7.760  12.566  0.5072  0.1737  0.0264
27624W        W43758  13.683   3.191  12.427 -0.1579  0.2151  0.0578
27625W        W43759   3.002   3.306   0.118 -0.3172 -0.1894  0.0446
27626W        W43760  11.577  10.302  14.499  0.0242  0.0619 -0.1832
27627W        W43761  12.679  11.857  14.818  0.0731  0.2696 -0.0493
27628W        W43762  17.179   3.524   5.208  0.0767  0.1428  0.1740
27629W        W43763   1.221   7.288   1.258  0.4386 -0.0357  0.0606
27630W        W43764  15.314   5.513  11.961  0.1463 -0.1563 -0.0905
27631W        W43765   3.139   1.900   4.445  0.0414  0.1848 -0.1043
27632W        W43766   4.169   6.169  10.905  0.0264  0.0771 -0.2021
27633W        W43767  12.233  17.139  13.918  0.5124 -0.0418 -0.1650
27634W        W43768   4.313   1.818  11.170  0.0255 -0.0158  0.3300
27635W        W43769  17.327   7.362   5.174  0.2163 -0.1981 -0.1114
27636W        W43770  14.172   2.725   4.945 -0.3135  0.1260 -0.0493
27637W        W43771   5.553  15.004  13.303  0.1245 -0.2254 -0.2545
27638W        W43772   5.569   0.998  15.040  0.0320 -0.0039  0.0659
27639W        W43773  10.231  11.762   1.501 -0.0835 -0.0595 -0.1645
27640W        W43774   9.514  10.803   0.972 -0.3534 -0.0606  0.0871
27641W        W43775  14.358   2.006   2.267  0.2079 -0.0571 -0.3311
27642W        W43776   0.802   9.706   5.104 -0.1997 -0.0695 -0.1285
27643W        W43777  13.310  17.928   2.836 -0.3243 -0.1829  0.2081
27644W        W43778   7.829  12.409   2.242  0.0994  0.3153  0.1693
27645W        W43779  13.432   1.172   3.911 -0.0742 -0.0853 -0.3503
27646W        W43780  10.890  12.292  14.401  0.2177 -0.0573 -0.0278
27647W        W43781  15.402   6.574  12.277  0.3235 -0.2506  0.0336
27648W        W43782  10.057   0.619   0.287 -0.1509  0.0415 -0.1598
27649W        W43783  12.948   6.898  11.733 -0.0258 -0.1597 -0.1246
27650W        W43784  14.383   2.508  12.853  0.0125  0.1758 -0.1035
27651W        W43785  12.049  10.849   0.558 -0.0988  0.2159  0.0180
27652W        W43786  15.157  16.064  14.557  0.0807 -0.0464 -0.0001
27653W        W43787  17.404  15.686   2.522  0.1021  0.0074  0.1957
27654W        W43788   2.630   9.987  13.919 -0.1392 -0.2525 -0.2453
27655W        W43789   6.656  15.573   2.128  0.2197  0.3600 -0.1751
27656W        W43790   9.632   8.986   3.002 -0.0206 -0.0615 -0.1818
27657W        W43791   8.944   5.535   3.477  0.1223  0.0262 -0.1465
27658W        W43792  12.360   2.399   3.718 -0.1988 -0.3269  0.1309
27659W        W43793  18.992   3.301  13.447  0.1483 -0.0782  0.0937
27660W        W43794   8.499  18.997   3.036 -0.1467  0.1367  0.0572
27661W        W43795  10.646  17.088   2.136  0.0377 -0.1076  0.0933
27662W        W43796   1.628   0.852  10.781  0.1995 -0.1232 -0.0312
27663W        W43797   4.854   9.270   3.845  0.0832 -0.0212  0.3219
27664W        W43798  15.307   1.226   1.948 -0.1461 -0.0336  0.1794
27665W        W43799   1.734  12.181  11.671 -0.0948  0.0960 -0.0286
27666W        W43800  17.639  15.642  13.845 -0.1594  0.1969  0.0049
27667W        W43801  18.272   6.721  12.192  0.1194 -0.1960  0.0366
27668W        W43802   7.806  14.574   5.142 -0.2985  0.3044  0.0039
27669W        W43803  13.075   0.017   4.970  0.2291  0.0210 -0.2434
27670W        W43804   1.789   4.662  12.172  0.3030  0.1968 -0.1137
27671W        W43805  18.412   1.547   5.679 -0.2043  0.0368 -0.2282
27672W        W43806   2.758  18.107   3.362 -0.1491 -0.2263  0.1806
27673W        W43807  13.469   6.261   4.366 -0.1901  0.2843 -0.3314
27674W        W43808  16.403  16.359  14.472  0.1475  0.1774  0.3394
27675W        W43809   5.509   1.221   3.234  0.2801 -0.1763  0.0187
27676W        W43810  17.574   8.588  11.086 -0.1252 -0.1737 -0.1694
27677W        W43811  13.734   7.152   3.411 -0.1088 -0.4075  0.0959
27678W        W43812  17.675   4.441  10.744  0.1269  0.1034  0.0670
27679W        W43813  12.148   8.557  10.647  0.1838  0.0882  0.1088
27680W        W43814  11.066   0.237  15.078  0.2523 -0.1267 -0.0615
27681W        W43815   4.005  11.119  12.126  0.0472 -0.0805 -0.3102
27682W        W43816   3.744   1.063   4.909  0.1485  0.0890 -0.0561
27683W        W43817   1.018  14.889   2.526 -0.0579  0.0832 -0.0533
27684W        W43818  16.900   4.126   1.448 -0.0793 -0.0466  0.0687
27685W        W43819  18.006   6.141  10.841  0.0450 -0.0764 -0.1673
27686W        W43820  13.651  16.880  14.240  0.0406  0.0406  0.0455
27687W        W43821   9.908  14.176  12.987  0.0102 -0.1257 -0.1915
27688W        W43822   7.294  15.960   2.491 -0.4747 -0.2274  0.0929
27689W        W43823  14.581  10.554   4.125 -0.1620  0.0918  0.1632
27690W        W43824   7.051  13.964   0.124 -0.1409  0.2165  0.4302
27691W        W43825  14.191  14.582  13.195  0.1507 -0.0172  0.1733
27692W        W43826  13.688  10.295   4.420  0.2229  0.1008 -0.2957
27693W        W43827   2.866  13.305   4.629 -0.1668 -0.1099  0.3900
27694W        W43828  15.757  18.892   0.416 -0.2922 -0.2148 -0.0076
27695W        W43829  10.674   4.589  11.834  0.1718  0.2458  0.0876
27696W        W43830   9.457  12.867   4.225  0.1179 -0.3111  0.3312
27697W        W43831  18.648   3.541  15.250 -0.2597  0.0718  0.2403
27698W        W43832   8.064  11.496   3.943  0.1334  0.0656 -0.0763
27699W        W43833  15.142  13.172  12.245  0.2913 -0.4148  0.0308
27700W        W43834  13.713   3.379   4.151  0.0332  0.2915 -0.1236
27701W        W43835   0.575   5.998  11.861  0.0934 -0.1486  0.2807
27702W        W43836  16.757   5.212  13.233 -0.0105 -0.1027 -0.0792
27703W        W43837  18.866   8.324   2.220 -0.2680  0.0951  0.0342
27704W        W43838   6.980  17.822  10.441  0.0836 -0.0491 -0.0980
27705W        W43839  15.413   4.442  11.710  0.0561  0.0468 -0.1964
27706W        W43840  11.448  16.200   1.178 -0.0552  0.0564 -0.1955
27707W        W43841   0.776   5.876  15.027  0.2508  0.2031 -0.2166
27708W        W43842   8.458   8.631  10.207  0.3680 -0.0421 -0.1402
27709W        W43843   0.292   8.767  14.326 -0.1091  0.1696 -0.1548
27710W        W43844  17.815   5.086  12.530 -0.0123 -0.1470 -0.0781
27711W        W43845   0.017   3.457   2.208  0.0887  0.0888  0.1216
27712W        W43846  12.848   0.300   3.117 -0.0923 -0.1890  0.1409
27713W        W43847   4.884   7.910  14.291  0.0396 -0.3211  0.0212
27714W        W43848  10.110   1.075  12.063 -0.0591 -0.0443 -0.2947
27715W        W43849  17.393  15.998  11.418 -0.1331  0.0995  0.0556
27716W        W43850  17.724   0.232   3.267 -0.0108  0.4571  0.0430
27717W        W43851  14.401   0.121   5.070 -0.0963  0.5515  0.2347
27718W        W43852  16.946   5.700   5.281 -0.0667  0.0074 -0.1144
27719W        W43853  10.713  18.776   1.911 -0.0944 -0.1072 -0.1537
27720W        W43854   6.394   5.513   0.688  0.1645  0.0546  0.0931
27721W        W43855   3.145   3.441  14.971  0.3450  0.0198 -0.1201
27722W        W43856  12.355   8.445  11.191  0.1255 -0.1572 -0.2136
27723W        W43857   0.220  17.012  12.587  0.0874 -0.0813 -0.1687
27724W        W43858  17.034  15.285  11.948 -0.0962 -0.2026  0.1731
27725W        W43859  16.236   7.076   2.426 -0.0342 -0.0375  0.1396
27726W        W43860  18.478  15.595  13.222  0.0563  0.0033  0.0107
27727W        W43861   5.143  15.425  11.185  0.0113  0.2067 -0.1295
27728W        W43862   5.621   4.412  11.805  0.0668 -0.4513  0.0436
27729W        W43863   2.967  14.909  12.502  0.1282  0.0630 -0.1368
27730W        W43864   8.309  10.217   0.570  0.0399  0.0173 -0.0938
27731W        W43865  18.888   4.027   2.109 -0.1712 -0.0180  0.2009
27732W        W43866  18.357   6.463  13.638  0.0491  0.0414  0.1652
27733W        W43867   5.147  17.419   3.729  0.1915 -0.1558  0.0832
27734W        W43868   2.811  15.762   2.696  0.3625  0.1683 -0.2731
27735W        W43869   7.570   5.062  10.425 -0.1117 -0.1021  0.0374
27736W        W43870  11.320   7.949  12.582  0.0874 -0.1523 -0.1503
27737W        W43871  10.350   3.433   4.003  0.2153 -0.1712 -0.0865
27738W        W43872   3.567   7.201  12.239  0.0832 -0.3107 -0.0125
27739W        W43873   2.666   2.614  11.152 -0.0985 -0.1770 -0.0437
27740W        W43874  10.638   8.921   3.676  0.1808 -0.0074 -0.2122
27741W        W43875   0.005   9.679  15.066 -0.0524  0.1030 -0.0856
27742W        W43876   5.233   9.585   3.709  0.1793 -0.1303 -0.1548
27743W        W43877  12.360   3.428   0.790  0.0302 -0.0236  0.0564
27744W        W43878   4.453  18.060   3.870 -0.1045 -0.0889 -0.1088
27745W        W43879  13.051  10.590  12.471  0.2195  0.1716 -0.2079
27746W        W43880  14.003  17.548  13.571 -0.0846  0.0305 -0.1221
27747W        W43881  17.224   3.619   3.766 -0.0714  0.1758 -0.1933
27748W        W43882  13.057  12.160  12.249 -0.0463  0.1020  0.6617
27749W        W43883  11.372  16.571   1.592 -0.1425  0.0648 -0.2241
27750W        W43884   0.978   1.077  15.080 -0.2178  0.0460 -0.0329
27751W        W43885  11.992   4.265  13.631 -0.1950 -0.3845  0.4904
27752W        W43886   5.852   7.738   3.783  0.0102  0.1323 -0.0013
27753W        W43887  17.797  12.398   3.981  0.0470  0.1060  0.1678
27754W        W43888   4.502  16.313   3.918 -0.0817  0.0584 -0.1813
27755W        W43889  13.883  10.058  14.531  0.1073  0.0401  0.1693
27756W        W43890   3.512  12.090   2.098 -0.1325 -0.2444 -0.0714
27757W        W43891   5.930  13.781   5.616  0.1141 -0.0411 -0.2209
27758W        W43892  10.020  13.262  14.222 -0.0788 -0.1332 -0.3003
27759W        W43893  14.881  18.783  13.406 -0.0570 -0.3045  0.0425
27760W        W43894   4.787   3.903  10.196 -0.0348 -0.0405 -0.0474
27761W        W43895  15.547   2.674   0.380 -0.1521  0.1030  0.3411
27762W        W43896  13.193   3.714   4.854  0.1001 -0.3740  0.4935
27763W        W43897  16.767  14.824  13.473  0.0105  0.0459  0.6156
27764W        W43898   0.928  11.454   4.151 -0.0493  0.1008  0.0799
27765W        W43899   0.354   6.127   0.903 -0.3173 -0.0756 -0.1871
27766W        W43900   2.390   7.037  13.806  0.1799 -0.0085  0.1578
27767W        W43901  15.661   5.375  13.807  0.1917 -0.1157 -0.3584
27768W        W43902   2.364   4.191   1.166  0.1121  0.1200 -0.0296
27769W        W43903   2.403   9.841   1.622  0.0818 -0.0895  0.1050
27770W        W43904   3.214  15.933  12.754 -0.0907  0.0367 -0.3133
27771W        W43905  16.932  15.896   4.756 -0.2328  0.0665  0.1554
27772W        W43906   9.844   4.527   3.434  0.0642  0.3392 -0.1705
27773W        W43907  15.040   0.338  14.257 -0.2980 -0.1386  0.1153
27774W        W43908   5.811   4.675  13.670  0.0642  0.0742 -0.0337
27775W        W43909   9.924  14.425   3.482  0.0716  0.1859 -0.0406
27776W        W43910   1.597  14.245   4.936  0.2161  0.0249  0.0762
27777W        W43911   3.387   2.929   9.475  0.1785  0.0355 -0.1237
27778W        W43912  18.886  17.225  10.520 -0.0281  0.1234  0.3048
27779W        W43913   7.575  14.525   3.856  0.1442 -0.0885 -0.0751
27780W        W43914  10.368   3.204   3.499  0.0036 -0.0538  0.0184
27781W        W43915  13.754   9.911   4.115  0.0054 -0.0478  0.2439
27782W        W43916  13.086   9.794  13.886 -0.2391 -0.0986 -0.1683
27783W        W43917  18.565   7.829  13.646 -0.0251 -0.0816  0.1610
27784W        W43918  17.033  18.575   2.064 -0.2773 -0.0750 -0.2507
27785W        W43919  17.736   0.684  11.463 -0.2849  0.0857 -0.2923
27786W        W43920   8.462  10.221  15.218  0.0443  0.1127 -0.1380
27787W        W43921  13.978  12.517  14.943 -0.0717 -0.1795 -0.4103
27788W        W43922  12.954   5.488   1.850  0.1717  0.0489  0.3571
27789W        W43923   0.427   1.243  11.950 -0.1920  0.2236 -0.0412
27790W        W43924   6.745   5.256  12.639 -0.0815 -0.1114  0.0461
27791W        W43925  15.909  16.917   2.264  0.1038  0.1226 -0.2149
27792W        W43926   6.645   1.098   1.875  0.1348  0.1224 -0.2158
27793W        W43927   0.655  15.641  11.099 -0.0061  0.2822 -0.0004
27794W        W43928   4.448  18.841   2.089 -0.1136 -0.1429 -0.2483
27795W        W43929   0.834   9.284  10.811 -0.0651  0.0735 -0.0412
27796W        W43930   6.730   5.517   3.959 -0.3492 -0.2346  0.3154
27797W        W43931  14.939   7.265  11.497  0.2910  0.0476  0.0708
27798W        W43932   3.774   9.620  13.356 -0.0095  0.1166 -0.1123
27799W        W43933   6.525  11.051  13.648  0.0991  0.3340  0.2619
27800W        W43934   2.559   3.468   4.759 -0.1499 -0.0166  0.2576
27801W        W43935   7.608   8.877   2.791 -0.2068  0.0348 -0.1507
27802W        W43936   1.806   2.286  12.617 -0.0184 -0.0780 -0.3344
27803W        W43937   7.814   7.948   1.905 -0.2669  0.0049 -0.3554
27804W        W43938  12.759   9.806   1.309 -0.0807 -0.2143 -0.0404
27805W        W43939   0.549   5.775   4.869 -0.0856  0.1816 -0.0612
27806W        W43940   9.785  16.053  13.516 -0.1903 -0.2874 -0.2381
27807W        W43941   5.898   1.789   2.437  0.1862 -0.2049 -0.3080
27808W        W43942  13.256  10.339  13.209  0.2017 -0.0429  0.0881
27809W        W43943   4.492  10.158  15.122 -0.1029  0.0947 -0.1947
27810W        W43944   3.663  12.428  12.035 -0.0853  0.2462  0.0102
27811W        W43945   1.418   7.048  13.558  0.1390  0.0026 -0.3063
27812W        W43946  11.460  14.266   1.844 -0.0857 -0.0386 -0.0097
27813W        W43947  14.563  10.696  12.486  0.0346  0.3064 -0.0741
27814W        W43948   8.376  11.875  10.925  0.2569  0.0068 -0.2122
27815W        W43949  13.754  18.177  12.950 -0.2580 -0.1264  0.1355
27816W        W43950  11.296   9.388   0.756  0.0955  0.2211  0.3233
27817W        W43951  15.177  16.803   3.916  0.0997  0.0381 -0.2764
27818W        W43952  16.197   4.093  13.096  0.1559 -0.2821 -0.2172
27819W        W43953  18.858   9.796  10.949  0.2610  0.2674  0.1200
27820W        W43954  12.101   9.329  11.285 -0.2945 -0.4025  0.1950
27821W        W43955  15.334  11.368  10.681 -0.0882 -0.1952  0.0787
27822W        W43956   2.708   4.037   1.585  0.1091 -0.0664  0.2121
27823W        W43957  12.170   5.529  14.247 -0.1454 -0.1028 -0.0836
27824W        W43958   5.518   0.725   3.555 -0.1130  0.0484 -0.1625
27825W        W43959  18.023   7.178   1.966  0.0032  0.0661 -0.2503
27826W        W43960   4.415  13.086  12.768 -0.1101  0.2020 -0.3141
27827W        W43961   0.116  18.358   3.359  0.1982  0.1011 -0.1119
27828W        W43962   3.421   4.502   2.195  0.0249  0.2874  0.1107
27829W        W43963  15.690   5.595   1.410  0.1822  0.1894 -0.3407
27830W        W43964   3.039  13.853  14.840  0.0642 -0.1934  0.0215
27831W        W43965   6.874  10.360   2.424 -0.1337  0.0949  0.1493
27832W        W43966  13.533   6.100   5.152  0.2366  0.0128 -0.1884
27833W        W43967   6.887  14.393   1.500 -0.2387  0.0468  0.1976
27834W        W43968   8.083   1.576   3.152 -0.1277 -0.2791 -0.0070
27835W        W43969  13.700   2.245   2.936 -0.0884 -0.0569 -0.0801
27836W        W43970  18.749   1.049  14.843  0.1406  0.3359 -0.1385
27837W        W43971   6.605   9.324   0.565  0.0338 -0.1415  0.0992
27838W        W43972   5.146  13.903   3.798 -0.0992 -0.2850  0.2462
27839W        W43973  11.697  14.888  10.609 -0.1310 -0.1967  0.3747
27840W        W43974  12.892   2.305   0.964  0.0555  0.1167 -0.1064
27841W        W43975   6.254  10.025   3.937 -0.4593 -0.2553 -0.0652
27842W        W43976  12.413  14.885  12.780 -0.1935 -0.0905 -0.1408
27843W        W43977   4.097   4.556   2.747  0.1312 -0.1193 -0.0055
27844W        W43978   4.811   0.056   1.239 -0.1506  0.1193 -0.1054
27845W        W43979   3.582   2.409   1.805  0.1293 -0.0203  0.0981
27846W        W43980  10.916  11.211  14.698 -0.0536  0.1153 -0.1115
27847W        W43981   4.363  11.142  12.457  0.2818 -0.0049 -0.0337
27848W        W43982  11.983   0.105  14.522  0.0504 -0.0256  0.0114
27849W        W43983  17.466   2.551  12.790 -0.1531 -0.1964  0.4332
27850W        W43984   2.505   0.630   5.541 -0.1120  0.1112 -0.2392
27851W        W43985   5.574  12.150  11.488 -0.0364  0.1690 -0.0392
27852W        W43986  16.084   8.584  15.151  0.1868 -0.0299  0.0295
27853W        W43987   8.549  12.348  11.676 -0.2725 -0.3028 -0.2092
27854W        W43988   0.042  12.967  14.675  0.1282 -0.0423 -0.1340
27855W        W43989   0.681  12.399   0.969  0.1954 -0.0232 -0.1377
27856W        W43990   7.725  13.759   9.787  0.0972 -0.2878 -0.2612
27857W        W43991   3.295  13.570   0.430  0.3172  0.0478  0.1369
27858W        W43992   6.919  13.853  13.781 -0.1325  0.2365  0.0147
27859W        W43993   1.946  16.809  12.388 -0.3167  0.1415  0.0701
27860W        W43994  13.349   9.213   1.400 -0.1004  0.3334  0.0392
27861W        W43995  14.265   0.950  11.241 -0.0718 -0.3285  0.5293
27862W        W43996   6.638  10.217   3.462 -0.0631  0.3037  0.1582
27863W        W43997   2.559   7.860  13.418 -0.0363  0.2180 -0.0561
27864W        W43998  16.902   3.458  11.850  0.3054  0.1434  0.1928
27865W        W43999   8.710   7.476   1.517 -0.3181  0.0468  0.2246
27866W        W44000  14.130   9.048  11.158  0.4096  0.3069 -0.0697
27867W        W44001   3.103  15.285  10.768  0.1141  0.0069 -0.2601
27868W        W44002   3.086  18.957  14.696  0.0713 -0.0865  0.5222
27869W        W44003   4.779   2.990   1.227  0.0032  0.0550 -0.1478
27870W        W44004  15.813  14.778  13.951  0.0369 -0.1267  0.1904
27871W        W44005   9.124  16.937  13.300 -0.1217  0.1418  0.1341
27872W        W44006   2.926   2.174  10.851 -0.1420  0.1156 -0.0324
27873W        W44007   8.879   5.972  10.198  0.0638 -0.1169 -0.3075
27874W        W44008  10.966   5.732  10.886 -0.0083  0.0822 -0.1727
27875W        W44009   5.273   0.709  12.876 -0.2891 -0.0489 -0.0607
27876W        W44010   4.999  15.553  14.893 -0.1888 -0.1362 -0.0494
27877W        W44011   5.853   2.855   3.210 -0.5174 -0.0359  0.0436
27878W        W44012  14.655   4.715   5.163 -0.1707  0.1052 -0.2146
27879W        W44013  16.930   3.924   0.929  0.2038 -0.4662  0.0289
27880W        W44014   1.051  14.308  13.746 -0.1610 -0.0189 -0.1006
27881W        W44015  11.186   0.457   3.358  0.3836  0.1591  0.1500
27882W        W44016  15.816  10.267  13.151 -0.0625  0.3052  0.3425
27883W        W44017   5.225  18.347  12.047 -0.0363  0.1851  0.2965
27884W        W44018  14.223  13.600   1.192 -0.2232  0.3352  0.5014
27885W        W44019   6.765  10.515  12.905  0.0311  0.0509 -0.0140
27886W        W44020  18.474   5.876  12.755  0.0606 -0.1574 -0.0786
27887W        W44021  10.504   6.687  13.821 -0.0931  0.0052  0.3712
27888W        W44022  11.740   5.469   4.670  0.0633 -0.0717 -0.0629
27889W        W44023  17.633  10.856  13.485  0.0095  0.2312 -0.3110
27890W        W44024  12.151  18.089  14.741  0.1498 -0.0854  0.1552
27891W        W44025   8.914   7.862   2.110  0.0035 -0.0952 -0.3735
27892W        W44026   0.416  10.281   3.323  0.1356 -0.0022 -0.1698
27893W        W44027   9.734  11.946   3.310 -0.2758 -0.0485  0.1702
27894W        W44028  15.348   2.835   3.389  0.0772  0.3437 -0.0094
27895W        W44029  14.052   0.470  11.649  0.1655 -0.0253 -0.1589
27896W        W44030  16.482  10.271   3.163 -0.0994  0.3265  0.1028
27897W        W44031  13.569   1.034  11.773  0.0173  0.0156 -0.2605
27898W        W44032   3.252   6.950  11.255 -0.3809  0.3111 -0.1629
27899W        W44033   5.184  13.457   4.929 -0.1342  0.2998  0.1788
27900W        W44034   0.153  14.014   3.450 -0.3501 -0.3498  0.1531
27901W        W44035  10.446  18.383   1.733  0.1246 -0.1003 -0.0301
27902W        W44036   3.256   4.910   4.070 -0.1700  0.1133  0.1935
27903W        W44037   8.247  11.359   5.172  0.0002  0.1964  0.2214
27904W        W44038   4.347   8.010  12.885  0.2782  0.3572  0.1216
27905W        W44039  11.181  11.169   4.047 -0.0334  0.1269  0.0097
27906W        W44040   1.295  11.777   3.829 -0.3860 -0.1319 -0.0207
27907W        W44041   8.242   1.128   3.700  0.1458 -0.1007  0.0920
27908W        W44042   0.484  12.165  10.979  0.4844 -0.0265  0.0023
27909W        W44043  13.425   3.250  10.313 -0.3042  0.0608 -0.0898
27910W        W44044   6.903   7.059   0.216  0.1737 -0.1353  0.0294
27911W        W44045   9.265   3.735   1.689 -0.0623 -0.2598 -0.0593
27912W        W44046   1.569   4.795  14.276  0.0395 -0.4222  0.0844
27913W        W44047   3.358   7.232   2.999 -0.4704 -0.1337 -0.3652
27914W        W44048   0.417   9.140   1.565 -0.0867  0.0082  0.0172
27915W        W44049  16.461   5.728   0.738 -0.2379 -0.1090  0.1652
27916W        W44050  18.050   9.269   1.306 -0.2561 -0.2564 -0.1227
27917W        W44051   8.924  18.160   0.710 -0.1983 -0.0261 -0.2333
27918W        W44052  11.212  13.062  15.038 -0.1651 -0.2687 -0.0611
27919W        W44053  16.589   5.524   4.998 -0.2051 -0.4493 -0.3773
27920W        W44054   0.165  17.701  13.873  0.0464  0.0490  0.0478
27921W        W44055   0.239   3.029   2.197  0.1451 -0.4061 -0.3224
27922W        W44056  13.423  11.510  11.108 -0.0680 -0.0689 -0.3208
27923W        W44057  13.585  12.716   0.169  0.0251 -0.2202 -0.0822
27924W        W44058   7.053   8.551   2.859  0.1629  0.0258 -0.2129
27925W        W44059   4.509  18.641   0.490 -0.0586 -0.2132  0.2318
27926W        W44060   6.798   2.929  13.919 -0.2705  0.0093  0.0716
27927W        W44061  16.266   3.878  14.077  0.3465  0.1329  0.1381
27928W        W44062   5.433  17.418   1.980 -0.0611  0.1519 -0.1827
27929W        W44063   8.300  18.745   0.405  0.3688 -0.0004  0.0684
27930W        W44064  12.463  15.751  10.216  0.0625 -0.3795 -0.1948
27931W        W44065  14.186   3.307  14.167  0.1294  0.0576 -0.0157
27932W        W44066  17.422  18.846   2.938  0.1717  0.0212  0.2103
27933W        W44067   8.790   4.824   1.505  0.0590  0.2643  0.1078
27934W        W44068  17.576  12.915  11.789  0.2405 -0.1522 -0.1657
27935W        W44069   1.282   5.573  12.304 -0.0185  0.0738 -0.1150
27936W        W44070  13.757   4.890  14.243  0.0247  0.2308  0.0256
27937W        W44071  18.997  16.379   2.802 -0.3089 -0.3383 -0.0189
27938W        W44072  18.625  17.455   3.574  0.3967  0.0021  0.2897
27939W        W44073  17.622   3.298   1.740  0.2557 -0.0002  0.0157
27940W        W44074   9.756  18.448  14.321 -0.3573  0.1075 -0.2534
27941W        W44075  12.802  17.710  14.215  0.0742 -0.2310  0.0827
27942W        W44076  10.617   1.883  13.690  0.1046 -0.1167 -0.0982
27943W        W44077  11.954   4.125  10.982 -0.1267 -0.1269 -0.0739
27944W        W44078   9.432   3.057   3.202  0.1244 -0.0121 -0.1238
27945W        W44079  13.372  16.821  13.269  0.0420  0.0322 -0.4662
27946W        W44080  12.704   5.993   3.945 -0.2187  0.2066  0.0935
27947W        W44081   3.822   2.272  14.901  0.0507  0.3946  0.2367
27948W        W44082   6.019   4.979  14.215 -0.1455  0.1336 -0.0147
27949W        W44083   4.806  15.231  12.764  0.0370  0.3084 -0.1138
27950W        W44084   8.172   9.040  15.085  0.4540 -0.0821  0.3587
27951W        W44085   8.889  16.489   5.383  0.2442  0.1341  0.0364
27952W        W44086  17.055   6.136   0.047  0.0030  0.1109  0.0300
27953W        W44087   3.106  10.705   5.562  0.2791  0.0205  0.1244
27954W        W44088  13.686  15.234   0.380 -0.0409  0.3633 -0.0441
27955W        W44089   8.554   6.714   2.938  0.0522 -0.4290 -0.1605
27956W        W44090  10.613  18.421  11.527 -0.0774  0.0002  0.0816
27957W        W44091  18.563   7.126   3.178  0.0590  0.0909 -0.0782
27958W        W44092   5.053   4.593  13.036  0.1677 -0.0886  0.2045
27959W        W44093  17.460  14.779   2.593 -0.0967  0.0759  0.3943
27960W        W44094   8.845   4.977   4.665 -0.1205  0.0897 -0.3081
27961W        W44095  18.788   1.103   4.569 -0.2170  0.0379  0.0159
27962W        W44096   8.526   0.904   0.522  0.0469 -0.2384  0.3768
27963W        W44097  15.210   7.759   1.696 -0.1179 -0.1297 -0.0018
27964W        W44098   8.802   0.523  15.109 -0.2982 -0.2404  0.1211
27965W        W44099  17.728  10.641  10.806 -0.0561  0.1818  0.1401
27966W        W44100  13.671  12.526   3.259 -0.0379 -0.1356 -0.3024
27967W        W44101   0.078   4.879  10.100  0.1371 -0.2475  0.1378
27968W        W44102   9.675   8.431  14.660  0.2621  0.3043 -0.1963
27969W        W44103  13.421   9.293   0.565  0.4328  0.0203  0.2904
27970W        W44104   4.761  12.487   1.630  0.1180 -0.1178  0.1544
27971W        W44105  17.423   7.263  14.709  0.0858 -0.0105  0.1007
27972W        W44106   5.289   6.562  11.608 -0.0082  0.1267  0.2898
27973W        W44107  12.085   4.803   5.175  0.1540 -0.2008 -0.1871
27974W        W44108  13.672   5.563   1.152  0.3579  0.0243  0.2408
27975W        W44109   5.329   1.179   3.784  0.2398 -0.1504 -0.1002
27976W        W44110  17.002  17.324   3.772  0.1368 -0.3533  0.3719
27977W        W44111  17.278   7.198  11.282 -0.3310  0.1830  0.0003
27978W        W44112   9.508  14.660  11.766  0.1371  0.1509  0.0870
27979W        W44113   9.802   1.291   5.581  0.0753 -0.2306  0.0574
27980W        W44114   8.779   6.787  14.235  0.1073 -0.1337 -0.0219
27981W        W44115   9.961  13.602  13.869 -0.0103  0.0915 -0.1886
27982W        W44116   1.483   4.196  14.967  0.2217 -0.2039  0.0807
27983W        W44117  18.837  11.340  13.581 -0.1689 -0.2704 -0.2134
27984W        W44118  18.426   5.956   1.876 -0.1068 -0.1578  0.0546
27985W        W44119   6.841   2.643  11.534  0.2928 -0.0529 -0.0421
27986W        W44120  13.540  13.794   2.942  0.0887 -0.1816 -0.2161
27987W        W44121   2.880  16.760  13.801 -0.0554  0.2191  0.1855
27988W        W44122  17.948  14.101  10.723 -0.0583  0.2382 -0.0244
27989W        W44123   1.635   7.121   5.722 -0.0037 -0.1887  0.2141
27990W        W44124   6.265   7.270  14.927  0.0033 -0.0732 -0.2587
27991W        W44125   5.898  12.438  11.222  0.0435  0.0206 -0.1542
27992W        W44126  18.504   3.580   0.919 -0.0639 -0.2419 -0.0508
27993W        W44127  16.510  11.614   4.261 -0.3551  0.3851 -0.2473
27994W        W44128  17.561  15.432   3.390  0.0328  0.1863 -0.2559
27995W        W44129   0.860  16.006   0.001  0.6481  0.1234  0.0320
27996W        W44130   5.986  17.789  14.616 -0.0709 -0.0726 -0.1843
27997W        W44131  18.041  10.926   2.536 -0.0170 -0.2278  0.4422
27998W        W44132  11.176   6.734   0.571  0.0107  0.1829 -0.0531
27999W        W44133   7.435  12.407   0.876 -0.0117  0.0776  0.2249
28000W        W44134  15.202   5.504   4.815 -0.3645  0.2608  0.1912
28001W        W44135  11.958  10.583  12.860  0.2535  0.0606  0.2033
28002W        W44136  18.651  18.859   3.637  0.0711  0.0054 -0.1204
28003W        W44137   0.514   4.049   1.577  0.0678 -0.0398 -0.0037
28004W        W44138   0.682  11.204   3.114 -0.0859  0.1930 -0.3577
28005W        W44139  14.317  11.816  13.129  0.2296 -0.0373  0.0270
28006W        W44140  10.079  15.352  11.193  0.2605  0.2583  0.0197
28007W        W44141   0.040  17.349   2.158 -0.5055 -0.0070 -0.0349
28008W        W44142   7.462   3.245  11.309  0.0971  0.1284 -0.3969
28009W        W44143  14.815   2.817  12.793 -0.1373 -0.0341  0.0912
28010W        W44144  11.894  11.063  13.927  0.0358  0.1312 -0.1042
28011W        W44145  18.180   3.747  12.027 -0.1580  0.1233 -0.0207
28012W        W44146   3.784  12.463   1.316 -0.1606  0.1921 -0.2317
28013W        W44147  17.776  12.013  13.125 -0.0304  0.0986  0.2574
28014W        W44148   4.863  18.451   3.741 -0.0694  0.4571  0.1292
28015W        W44149  18.754   9.349   2.299 -0.0844 -0.0763 -0.1713
28016W        W44150  13.656  14.777   2.766 -0.2495  0.3041 -0.1445
28017W        W44151   0.850   4.360   4.314 -0.0749  0.0461 -0.0074
28018W        W44152   9.148   9.389  11.802  0.0798 -0.1345 -0.2396
28019W        W44153   3.771  13.402   5.081  0.2113  0.1864  0.3051
28020W        W44154  12.267   6.645   0.004  0.1343  0.4032 -0.0226
28021W        W44155   6.026   1.933  14.424  0.3365 -0.3019  0.1266
28022W        W44156   6.881   3.006   1.191 -0.2081 -0.1250 -0.0525
28023W        W44157  15.337  14.500   1.317  0.1383 -0.0405 -0.1781
28024W        W44158  18.159   6.358  14.201 -0.1074 -0.0395  0.0586
28025W        W44159   2.575  16.428   1.163 -0.1086 -0.0043 -0.1402
28026W        W44160   4.582  17.125  14.793  0.3339 -0.3371  0.1409
28027W        W44161  17.527   5.679  14.568 -0.0933 -0.2708  0.2065
28028W        W44162   9.880   8.633  15.099  0.2584 -0.0043 -0.0815
28029W        W44163   1.392  14.551  12.456 -0.0866 -0.1470  0.2465
28030W        W44164  13.129   2.549  11.811  0.1209  0.0530 -0.1948
28031W        W44165  10.247  18.190  11.191  0.0269 -0.2227 -0.0754
28032W        W44166  10.812  18.275   1.221 -0.0589  0.0027  0.2373
28033W        W44167  14.360  11.308  14.084  0.2908 -0.3121  0.1141
28034W        W44168   5.103  17.287   2.891 -0.0878 -0.3841  0.1325
28035W        W44169  12.190   6.418  12.661  0.0671 -0.0988 -0.0511
28036W        W44170  15.410   1.554   5.379  0.1220 -0.2464 -0.0827
28037W        W44171  16.938  15.907  11.126 -0.1442 -0.5470 -0.4136
28038W        W44172  16.259   2.643   3.846 -0.2128 -0.0485 -0.1526
28039W        W44173   4.720   7.669  11.716 -0.0153 -0.2984 -0.2837
28040W        W44174  13.998  15.868   1.582 -0.2540 -0.0441  0.2113
28041W        W44175   9.714   6.419   2.712  0.2648  0.1994 -0.2092
28042W        W44176  12.793  13.375  10.545 -0.2783 -0.0456  0.3330
28043W        W44177   6.102   4.269  12.678 -0.1918 -0.3026 -0.1398
28044W        W44178   8.830  10.931  12.869 -0.3179 -0.2280 -0.3309
28045W        W44179  17.714   3.975   1.230 -0.1921  0.1396 -0.1393
28046W        W44180   6.379   5.191   3.795 -0.1091  0.1206  0.1329
28047W        W44181   4.838  14.685   3.450  0.2150 -0.1377  0.1925
28048W        W44182   0.245   4.898   3.218  0.1038  0.1441 -0.0909
28049W        W44183   7.434  18.693   1.091 -0.1377  0.2661 -0.1280
28050W        W44184   0.418  17.153  13.078  0.1648 -0.0728  0.2006
28051W        W44185  11.308   1.481   3.720 -0.1660 -0.0676 -0.0512
28052W        W44186   8.935  14.112   5.606  0.2300  0.2784 -0.0148
28053W        W44187  16.350   8.936  11.215  0.1844  0.1444  0.3099
28054W        W44188   0.137  10.188  13.622 -0.0595  0.1086  0.1933
28055W        W44189  16.727   9.753  13.827  0.1376 -0.0509 -0.0728
28056W        W44190   6.484  13.341   2.258 -0.0461 -0.2262  0.2681
28057W        W44191   7.188  12.992   0.841 -0.1991  0.0249  0.2301
28058W        W44192  15.337   4.356   5.998  0.2231 -0.1356 -0.0374
28059W        W44193   9.517  10.157  14.880 -0.0172  0.1574  0.1161
28060W        W44194   9.471  15.612   1.458  0.0338 -0.0556  0.1631
28061W        W44195   2.927  17.709   1.561 -0.0234 -0.0306 -0.2439
28062W        W44196   8.327   7.647   3.078  0.0947  0.0219  0.1356
28063W        W44197  16.571  18.853   2.217  0.1742 -0.0140 -0.0248
28064W        W44198   7.830  10.607  12.813  0.0609 -0.2555  0.3261
28065W        W44199   5.492   7.252   1.503 -0.3551 -0.0375 -0.2176
28066W        W44200   2.441  11.348  11.554 -0.1360  0.1279 -0.0006
28067W        W44201  15.953   0.341   1.351 -0.1606  0.0953  0.0339
28068W        W44202  17.731  13.178  10.174  0.1279 -0.1654 -0.2010
28069W        W44203  18.031   4.570  14.586  0.0375 -0.0768 -0.0889
28070W        W44204   9.857  16.789   1.755 -0.0241 -0.1609 -0.2359
28071W        W44205   8.893   1.546  11.902  0.0418  0.2291  0.3423
28072W        W44206  18.354  18.539   0.679 -0.0978  0.0972 -0.0760
28073W        W44207   5.036  18.288   1.048 -0.0026 -0.3311 -0.2640
28074W        W44208  17.679  13.926   1.698  0.3106  0.1372  0.3061
28075W        W44209  16.631   2.904   4.416 -0.0554  0.1052  0.0778
28076W        W44210  15.706  17.457   4.372 -0.1223  0.1499 -0.0967
28077W        W44211  11.441  13.234   3.228  0.0712 -0.1579 -0.2642
28078W        W44212   2.249   2.303  12.731 -0.0597  0.0550  0.0607
28079W        W44213  12.260   7.402   2.732  0.1972  0.2541 -0.1698
28080W        W44214   2.628  15.469   4.666 -0.0163 -0.1807 -0.1143
28081W        W44215   2.637   9.855   0.745  0.2919  0.0901  0.0261
28082W        W44216  18.341   5.538   2.252  0.2095  0.0916  0.1580
28083W        W44217  13.628   0.660   3.728  0.0199  0.0904 -0.0748
28084W        W44218   7.522  10.108  11.352 -0.4459  0.0737  0.0016
28085W        W44219  11.577  11.442  10.740  0.1345 -0.2994 -0.3229
28086W        W44220  15.842  15.856   0.342 -0.2118 -0.0207  0.1811
28087W        W44221   6.300  10.140   9.609  0.0138 -0.1039 -0.3962
28088W        W44222  12.576   9.844  11.322 -0.2858 -0.1623  0.0874
28089W        W44223   0.491  14.525   3.484  0.1200  0.1657 -0.0811
28090W        W44224  10.261   1.557  12.283 -0.2426  0.1432  0.0443
28091W        W44225   4.011   0.326  12.455 -0.1696  0.1168 -0.1332
28092W        W44226   1.312  15.598  14.029 -0.0008 -0.1606 -0.0414
28093W        W44227   5.383  16.031  10.456 -0.2114 -0.0271  0.0813
28094W        W44228   0.507  13.818  14.463 -0.1448  0.1718 -0.1947
28095W        W44229  16.916   8.718   5.569 -0.0571 -0.2586 -0.2232
28096W        W44230   9.269   8.482  12.135 -0.0081  0.2488  0.0522
28097W        W44231   6.676   5.914   2.371 -0.0152 -0.1222 -0.0419
28098W        W44232   0.529   9.033   0.241  0.0047  0.1852 -0.0035
28099W        W44233  15.439  18.138   0.494  0.1689  0.2992 -0.0677
28100W        W44234   2.064  17.653   5.386  0.1001  0.1949  0.1690
28101W        W44235  15.543   0.627  15.036 -0.1109 -0.0245  0.0926
28102W        W44236   3.488   1.364   1.274  0.2524  0.0909 -0.2928
28103W        W44237   5.393  12.960   3.773 -0.0917  0.2632  0.2098
28104W        W44238   9.754  15.863   1.898 -0.1128 -0.1443 -0.1691
28105W        W44239   6.263  17.756   0.170  0.0068  0.1042 -0.0416
28106W        W44240  17.790   4.941  10.800  0.0342 -0.0472  0.1762
28107W        W44241  10.960  14.907   3.394  0.0823  0.0539  0.0531
28108W        W44242   5.747   2.831  14.504 -0.4419  0.2103  0.0474
28109W        W44243  16.133   0.870   2.698  0.3259  0.1839 -0.2656
28110W        W44244   2.245  15.540  11.074 -0.0380  0.1694 -0.1720
28111W        W44245   8.498  12.481  15.156  0.3406  0.1941  0.1157
28112W        W44246   5.538   0.603   1.048 -0.0772 -0.1975  0.0282
28113W        W44247   0.576   2.028   1.441  0.0969  0.1362 -0.0863
28114W        W44248  10.211  17.363   3.032 -0.1489 -0.0283  0.1167
28115W        W44249   7.639   7.840   2.701 -0.2540  0.0851 -0.3494
28116W        W44250   8.253   6.432  13.135  0.0987 -0.1628 -0.0975
28117W        W44251   9.199   3.811  12.591 -0.0604 -0.1177 -0.4225
28118W        W44252  16.075   2.334   1.421 -0.3141  0.1153 -0.0233
28119W        W44253  10.206  16.047   2.668 -0.1531 -0.2563  0.1951
28120W        W44254   9.459  13.324  10.841 -0.4693  0.0915 -0.0256
28121W        W44255  16.458   9.944   1.908 -0.0288  0.1859  0.2219
28122W        W44256  18.357   1.512   2.525  0.0486 -0.3848  0.0242
28123W        W44257  15.190   5.760   1.166  0.0055  0.0449  0.1119
28124W        W44258   5.055   5.620   0.607  0.3371  0.0155  0.0666
28125W        W44259   5.568   2.767   4.052  0.2758 -0.3081 -0.0337
28126W        W44260   4.601  12.538   0.688 -0.0600 -0.1297 -0.2451
28127W        W44261  18.689   6.327   4.367 -0.1407 -0.0700 -0.5092
28128W        W44262   8.475  13.428   5.033  0.0712 -0.1942 -0.2003
28129W        W44263  12.043  14.417  10.717 -0.1085 -0.0809  0.3976
28130W        W44264   6.065  15.581  11.773  0.0728  0.0442 -0.2325
28131W        W44265   4.218  15.272  11.593  0.1257 -0.1027 -0.0589
28132W        W44266  11.237   7.750  12.141  0.1200 -0.0485 -0.0973
28133W        W44267   3.287   9.490   1.373  0.1140  0.1361  0.1652
28134W        W44268  15.496  13.969   1.636 -0.1503  0.0353 -0.2294
28135W        W44269  17.588  13.528   0.857 -0.0866  0.3058 -0.0340
28136W        W44270   5.727  12.316   1.122 -0.2667 -0.2033  0.3255
28137W        W44271   6.893   1.638   4.627  0.0917 -0.3319 -0.1024
28138W        W44272  10.368   6.837   2.270 -0.2388 -0.0748  0.0190
28139W        W44273   4.481   2.778  14.044 -0.0300  0.1263  0.3501
28140W        W44274  11.905   7.791   5.387  0.2758 -0.2973  0.5085
28141W        W44275  17.324  12.496   3.117 -0.0016  0.0058  0.2294
28142W        W44276   7.151   6.369   4.375  0.4537 -0.0479  0.2104
28143W        W44277   3.720  12.844   9.900  0.1478  0.1693 -0.0700
28144W        W44278  14.600  13.857  10.518 -0.0203 -0.1459 -0.1152
28145W        W44279   4.181  13.417   1.092 -0.1631  0.1146  0.0723
28146W        W44280  16.210   0.749   3.887 -0.1650 -0.0421  0.2608
28147W        W44281   5.137   3.032   3.894  0.0361 -0.1558  0.2206
28148W        W44282   0.976   0.607  11.583 -0.0408 -0.2671  0.0081
28149W        W44283  18.914  17.128   5.186 -0.0855  0.2178 -0.2734
28150W        W44284  16.684  13.513   4.152 -0.1862  0.0481 -0.2518
28151W        W44285  14.831  17.305  13.805  0.1813  0.0587  0.0161
28152W        W44286  11.158  13.480   3.972 -0.4198  0.0486  0.0531
28153W        W44287  10.522   2.175  12.853  0.0906 -0.1221 -0.2050
28154W        W44288   7.764  12.660  11.332  0.4068 -0.1167  0.0878
28155W        W44289   6.141   0.464  11.640  0.1054  0.0731  0.0434
28156W        W44290  18.473   8.911   4.712 -0.1911 -0.0648  0.2856
28157W        W44291  15.207   8.025  13.452 -0.0954  0.1344 -0.4645
28158W        W44292   6.564  17.946  14.757 -0.1231 -0.1276 -0.3646
28159W        W44293   6.976   3.824  13.826  0.1899  0.1425  0.0834
28160W        W44294  10.675   9.852   1.419  0.0857  0.1619 -0.0823
28161W        W44295  13.147  18.847   1.049  0.0742  0.1987 -0.1992
28162W        W44296   4.992  10.409  11.233  0.0739 -0.2891  0.2908
28163W        W44297  18.142  11.818  10.692 -0.0411 -0.1503 -0.0184
28164W        W44298   2.729   8.958   2.357  0.2094  0.0923 -0.1673
28165W        W44299   8.790  18.559  13.465 -0.1480  0.0032  0.2579
28166W        W44300   3.050  10.286   5.209 -0.1105  0.2773 -0.0759
28167W        W44301  15.225  18.297   3.563  0.4505 -0.1425  0.1629
28168W        W44302  15.858   0.517   1.910 -0.2446  0.1531 -0.0067
28169W        W44303  16.898  10.749   4.974  0.0941 -0.0304  0.2148
28170W        W44304   8.631  11.740  10.440 -0.1352  0.0594 -0.0503
28171W        W44305  16.095   9.426   2.809  0.0121  0.2994  0.2334
28172W        W44306   5.261  16.712  13.934  0.1501  0.1636 -0.0029
28173W        W44307   1.312  15.176   1.519 -0.0290  0.0287 -0.0952
28174W        W44308   4.066   5.611   3.748  0.1759  0.2043 -0.2061
28175W        W44309   4.467   3.856   3.916 -0.0969  0.2061 -0.1096
28176W        W44310  13.104  11.045  14.131 -0.1833 -0.0314  0.2210
28177W        W44311  16.291   2.737   3.339 -0.0998 -0.0525  0.3249
28178W        W44312   9.363  15.453  12.409  0.1167  0.0138  0.0416
28179W        W44313   9.355  13.569   4.114  0.0073  0.0767 -0.1554
28180W        W44314   3.319  14.844  10.752 -0.0260  0.2569 -0.2450
28181W        W44315  11.876  15.998   0.833 -0.0154 -0.1251  0.1266
28182W        W44316  10.013  11.482  15.189 -0.1367  0.2385 -0.0081
28183W        W44317  15.173  13.206  12.902  0.1708 -0.1372  0.2056
28184W        W44318   5.984   0.709   1.694 -0.2044  0.2019 -0.1993
28185W        W44319   5.485   9.595  12.197 -0.1310  0.0328  0.2716
28186W        W44320  17.876   9.706   4.828 -0.1013 -0.1649  0.1292
28187W        W44321  12.467   5.629   2.626 -0.1896 -0.0390  0.0603
28188W        W44322  15.780   8.928  13.999 -0.1038 -0.1009  0.1659
28189W        W44323   6.861  11.642  14.411 -0.3123 -0.0954  0.2202
28190W        W44324   2.072   0.546   0.177  0.4139 -0.3465 -0.2624
28191W        W44325  15.497   7.462   1.360 -0.3031 -0.0347  0.3453
28192W        W44326  11.605   7.541   4.030 -0.0777  0.2300  0.2153
28193W        W44327   2.317   3.794  12.801 -0.0905  0.0847 -0.0762
28194W        W44328   4.467  13.914  12.413  0.1080 -0.1451 -0.0391
28195W        W44329   5.404  12.695  11.299 -0.3840  0.1929 -0.0223
28196W        W44330   1.511   4.295  11.997  0.1249 -0.0363 -0.0351
28197W        W44331   4.635   8.268  14.860 -0.1314  0.0865  0.0685
28198W        W44332   1.991  11.128  12.616 -0.2587  0.3548  0.4943
28199W        W44333  17.273   2.611   3.510 -0.0087 -0.1387 -0.0087
28200W        W44334   8.151  18.539  13.011 -0.2605  0.1850  0.1040
28201W        W44335  14.933   4.433  10.988  0.2370  0.0059 -0.3324
28202W        W44336  16.534   0.355   4.030  0.0286  0.2867 -0.0521
28203W        W44337  18.597   9.735  12.342  0.0508 -0.2144 -0.3666
28204W        W44338   0.066   9.683   1.677 -0.2760 -0.0159 -0.2641
28205W        W44339   4.739  10.352  11.727 -0.0801  0.1619  0.1217
28206W        W44340  11.896   6.675  11.783 -0.2603  0.0725  0.1083
28207W        W44341   4.336  11.911   1.866 -0.0842 -0.1490  0.1159
28208W        W44342   0.426  12.149   0.461  0.0101 -0.3233 -0.0604
28209W        W44343  13.652   2.846   0.496 -0.1845 -0.1224  0.0437
28210W        W44344  10.292  11.023   0.224  0.0831  0.0067 -0.1058
28211W        W44345   9.964   5.440  14.270  0.1179 -0.0662  0.2380
28212W        W44346  17.229  15.944   5.312 -0.4191  0.0955 -0.0657
28213W        W44347   7.744   4.151  13.511  0.0685  0.0403  0.2520
28214W        W44348  11.808   0.307  11.802  0.0267 -0.2066 -0.0146
28215W        W44349  16.520  18.808   6.222  0.0280 -0.1266  0.2529
28216W        W44350  12.143  18.458  15.057 -0.0856  0.2794  0.0217
28217W        W44351  16.829   1.332  15.263 -0.0368 -0.2428  0.1174
28218W        W44352  14.303   7.985   1.457 -0.0930  0.2784 -0.0275
28219W        W44353   1.107   8.424   0.363  0.0348 -0.2146  0.0422
28220W        W44354   4.477  18.193   4.831 -0.0478  0.1047  0.1288
28221W        W44355  11.953  11.852   2.939 -0.1176 -0.1591 -0.1578
28222W        W44356  16.814  17.464  12.691  0.1193 -0.3220  0.0553
28223W        W44357  13.008  14.272  13.938 -0.1087 -0.0511  0.0559
28224W        W44358   7.633   4.421  10.914  0.1972 -0.1785  0.0052
28225W        W44359   6.426   5.927  15.065 -0.1267 -0.1543  0.0933
28226W        W44360  17.917   9.923  14.649 -0.0779  0.3226 -0.1116
28227W        W44361   6.757  14.436   2.313  0.2325 -0.2326 -0.0972
28228W        W44362  18.163   5.059   2.379 -0.3978  0.1767 -0.2267
28229W        W44363  15.191  18.719  13.882 -0.0149 -0.0986 -0.0463
28230W        W44364   2.175  13.040  11.410  0.2090 -0.1523 -0.0464
28231W        W44365  13.016  11.830   0.262  0.0763 -0.1740 -0.2291
28232W        W44366   6.494  16.704  12.350  0.0699 -0.3067 -0.0788
28233W        W44367   0.351  18.029  11.089 -0.2567  0.0260  0.1286
28234W        W44368  11.706   8.600   5.256  0.1926  0.2294  0.1024
28235W        W44369   9.092   9.510   4.336 -0.1706  0.0523  0.2628
28236W        W44370   9.627   7.795   4.836  0.1713 -0.0359 -0.0097
28237W        W44371   2.163  11.334   2.161 -0.1975  0.0116 -0.0640
28238W        W44372   4.152   6.337  14.524  0.1274  0.0561 -0.2223
28239W        W44373  14.466  14.476  14.193 -0.1150  0.2193  0.0444
28240W        W44374   0.353   2.155  12.458 -0.1953  0.0452 -0.0791
28241W        W44375   3.315  10.010  10.805  0.4750 -0.1783 -0.3058
28242W        W44376   7.145   5.721   2.665 -0.0901  0.4843  0.1162
28243W        W44377   7.777   1.955   3.208  0.1039 -0.3189  0.2441
28244W        W44378  16.420  13.350  15.041  0.2780 -0.0650  0.2390
28245W        W44379   0.270  12.641  12.893  0.4481  0.1157 -0.2273
28246W        W44380   2.644   7.987  15.020  0.3891 -0.4069  0.0853
28247W        W44381  12.085   0.858  10.201 -0.0302 -0.3323  0.4202
28248W        W44382   2.777  14.862   4.157  0.1900  0.0293 -0.1758
28249W        W44383  15.179  16.484  12.716 -0.1316  0.3197  0.2996
28250W        W44384  11.317   0.225  14.591  0.1007 -0.0836 -0.3265
28251W        W44385  17.951  13.090   1.600 -0.1696  0.0487 -0.0744
28252W        W44386  12.028  18.897   1.756  0.2777 -0.0046 -0.0222
28253W        W44387  12.949   6.081  11.183  0.0190 -0.0998  0.0786
28254W        W44388  12.879   6.141   1.489 -0.0938  0.0858  0.2596
28255W        W44389  14.731  16.703  12.633 -0.1699  0.2699 -0.0706
28256W        W44390  13.089   8.401   0.211  0.0459 -0.1245 -0.2408
28257W        W44391  10.694   6.207  13.546  0.0857  0.0732  0.0672
28258W        W44392   1.696  12.725  11.426 -0.1279 -0.2219 -0.0982
28259W        W44393  15.829   3.143   1.667  0.0276  0.1371  0.0623
28260W        W44394   5.428  15.155   1.410  0.0694 -0.1674 -0.0851
28261W        W44395   5.625   4.109   4.865 -0.0830  0.1598 -0.3070
28262W        W44396  17.020   1.288  14.753  0.2091  0.0339  0.2842
28263W        W44397  15.979  12.272   1.068 -0.3906  0.4855 -0.0902
28264W        W44398  13.618  17.788  12.567 -0.2158 -0.0026  0.2126
28265W        W44399  14.634  16.426  11.768  0.2524 -0.2489 -0.0236
28266W        W44400   9.043   1.044  12.057 -0.0674  0.1126  0.1326
28267W        W44401  12.848  11.508  14.204 -0.2625 -0.2912 -0.2414
28268W        W44402   8.178   0.137  11.054  0.2072  0.1142 -0.1555
28269W        W44403  18.427   7.974   5.281 -0.3809 -0.5015  0.0352
28270W        W44404  16.060   0.566  15.272  0.2812  0.1499 -0.1314
28271W        W44405  12.378   1.500  14.797 -0.3348  0.0409  0.2151
28272W        W44406   8.944   4.229   4.921  0.2283 -0.0533  0.5590
28273W        W44407   8.773   4.255   3.929 -0.0365  0.2163 -0.0539
28274W        W44408   3.426  16.049  15.276 -0.1209  0.0544 -0.0768
28275W        W44409  16.867  17.776   4.031  0.0177 -0.0398 -0.1402
28276W        W44410   4.658  10.191   3.397 -0.1191 -0.1963  0.2982
28277W        W44411   2.860  14.640  12.919 -0.0444 -0.0553 -0.0565
28278W        W44412   1.561  16.954   1.363 -0.1879  0.0156  0.0210
28279W        W44413   2.578  11.897  13.881 -0.2332 -0.0174  0.0052
28280W        W44414   1.074   5.769  11.916  0.5041  0.0341 -0.0388
28281W        W44415  11.442   1.990   3.625  0.1725 -0.0116 -0.0766
28282W        W44416  12.796   8.294  12.127 -0.0679  0.1292  0.2037
28283W        W44417   7.183  17.378  11.321  0.2686 -0.2015 -0.0852
28284W        W44418   1.398  14.051  12.272  0.0323 -0.0269 -0.1171
28285W        W44419   7.539  10.752   4.677 -0.2716  0.1570 -0.0034
28286W        W44420   7.834  10.887  14.561  0.1149 -0.1866 -0.0243
28287W        W44421   7.182   1.841   2.398  0.0570 -0.0116 -0.2838
28288W        W44422  13.348  17.834  14.136 -0.1329 -0.1093  0.0649
28289W        W44423  13.615  13.328  13.010 -0.1907 -0.0487 -0.0910
28290W        W44424   5.908  13.552   9.510 -0.4084  0.2346  0.1226
28291W        W44425  12.143   2.486   1.526  0.1318 -0.1356 -0.1849
28292W        W44426   1.679   6.651   1.684  0.0207 -0.1302 -0.1962
28293W        W44427   8.288  12.941   9.814 -0.0577  0.0982  0.0746
28294W        W44428  15.312   6.738   4.285  0.3167 -0.1780  0.1016
28295W        W44429   1.136   3.059  14.161 -0.3663 -0.2530  0.1041
28296W        W44430  18.651   2.283  14.661  0.0484  0.4916 -0.0665
28297W        W44431   0.304  18.400   4.151  0.2474 -0.1951  0.0981
28298W        W44432   9.761   4.935   3.196  0.0028 -0.3553  0.1864
28299W        W44433   0.165   8.929   5.208  0.0512  0.0088 -0.2426
28300W        W44434  14.195  10.085   4.002  0.2053 -0.2642  0.2494
28301W        W44435   7.886   9.252  13.407 -0.2294  0.0376  0.0431
28302W        W44436   2.602  13.521   4.170 -0.1760  0.0436 -0.1273
28303W        W44437  10.209  16.184   1.226 -0.3217 -0.0666  0.3203
28304W        W44438   6.528  11.518  12.081 -0.2319 -0.2036 -0.1066
28305W        W44439   4.700   4.271   2.138 -0.0710  0.3966  0.0817
28306W        W44440  16.748  10.938   2.004 -0.0308  0.2065  0.1815
28307W        W44441   5.753   3.188   4.983  0.1570 -0.0103 -0.0766
28308W        W44442   2.182  11.999  15.107 -0.0622  0.0930 -0.3761
28309W        W44443   2.405   3.946   1.923 -0.1103  0.2307  0.1913
28310W        W44444   8.595   6.011   9.752 -0.0247 -0.0626  0.2803
28311W        W44445   0.076  11.869   0.720 -0.1803 -0.2690 -0.2648
28312W        W44446  18.444  16.983   0.806  0.0055 -0.0997  0.5223
28313W        W44447  16.666   7.721  11.539 -0.3606  0.1455  0.1960
28314W        W44448  18.284   8.133   1.707  0.2577 -0.3015  0.0870
28315W        W44449  15.833   0.997   2.006  0.1128 -0.2370 -0.2942
28316W        W44450   0.012   9.623   5.178 -0.0695 -0.2740  0.1256
28317W        W44451   7.404  12.236  10.523 -0.5477  0.3846  0.0485
28318W        W44452   4.117  16.188   3.479  0.1927 -0.1444  0.1358
28319W        W44453   4.112   6.007  13.534  0.4099  0.0117  0.0547
28320W        W44454   6.028   3.064  13.105  0.3163  0.0416 -0.0996
28321W        W44455  17.808  12.221   0.990 -0.0634 -0.1527  0.0384
28322W        W44456  11.319   5.532  11.757 -0.2115 -0.2373 -0.1602
28323W        W44457  17.547  10.615  13.061 -0.2438  0.0957 -0.0104
28324W        W44458   8.168   5.181  11.149 -0.1039  0.2461 -0.0716
28325W        W44459   4.935  13.141  12.809 -0.0199 -0.0532  0.0170
28326W        W44460   8.853   9.310  14.516 -0.1250  0.2971 -0.0152
28327W        W44461   8.174   7.038  11.288 -0.0250  0.1713  0.1883
28328W        W44462  16.977  18.382  13.894 -0.2520  0.0607  0.1402
28329W        W44463   4.923  12.960  13.349 -0.1757  0.1343 -0.1520
28330W        W44464   3.322   1.657  13.052  0.0847 -0.3955  0.0578
28331W        W44465  17.973  14.495   3.037 -0.0971  0.2330 -0.0544
28332W        W44466  10.800   8.771   3.041 -0.0131 -0.0914 -0.4087
28333W        W44467  17.339   2.937   1.382  0.0796 -0.1131 -0.1938
28334W        W44468   2.532  11.660   2.033 -0.0284  0.0219  0.0912
28335W        W44469   3.342  17.322   2.790  0.2498  0.0817 -0.1239
28336W        W44470   9.760   0.199   0.608  0.0702  0.1684 -0.1542
28337W        W44471   3.758  12.735   4.189  0.1961  0.2711 -0.0560
28338W        W44472  16.749   3.489  10.248  0.3691 -0.2112 -0.0247
28339W        W44473  14.872   9.814  12.240  0.1579 -0.1025 -0.0785
28340W        W44474   2.748   6.876   0.389 -0.0543  0.0949 -0.1728
28341W        W44475  12.263  16.979   1.375  0.0884 -0.4368 -0.0505
28342W        W44476  15.459   8.000   3.375  0.0899 -0.0589  0.0712
28343W        W44477  11.986  18.842  14.093  0.2272 -0.2583  0.2149
28344W        W44478  17.268   7.301   1.175 -0.0147 -0.0392 -0.0908
28345W        W44479   5.490  16.514   2.343 -0.2843 -0.0389  0.1515
28346W        W44480  18.383   5.834   4.479  0.0486 -0.0304 -0.2171
28347W        W44481   5.365   7.068  10.762  0.0509  0.2622  0.1873
28348W        W44482   6.207  14.400   4.031 -0.1679 -0.0025  0.1566
28349W        W44483  12.338  10.403   2.915  0.1609 -0.2199 -0.1028
28350W        W44484   7.895  17.175  13.731 -0.4412  0.0890  0.1293
28351W        W44485  11.094   2.078  10.688 -0.2551 -0.2663  0.1211
28352W        W44486  10.612   4.114   1.297 -0.1468 -0.1993  0.2554
28353W        W44487  15.825   0.806   1.475  0.0776  0.1056 -0.1638
28354W        W44488  12.893  18.722  11.528  0.1041 -0.1082  0.1992
28355W        W44489  17.713  15.869  12.253 -0.1097  0.2610 -0.0847
28356W        W44490   7.548  12.236  11.196 -0.0627  0.2208  0.0617
28357W        W44491  17.935  18.899  15.035 -0.2474 -0.3893  0.0608
28358W        W44492  14.468  14.687   4.746  0.0792 -0.0355  0.1548
28359W        W44493  18.001  15.417   0.305 -0.0719  0.0946 -0.1701
28360W        W44494  11.217   9.037   3.826  0.3049  0.1299  0.1275
28361W        W44495  14.928  13.608  12.687 -0.1441 -0.0777  0.1254
28362W        W44496  11.355   6.850  13.677 -0.1095  0.1400 -0.0324
28363W        W44497   3.089  14.203  11.983 -0.1306  0.0811 -0.0498
28364W        W44498   1.357   7.242  11.795  0.2760  0.1447 -0.0363
28365W        W44499  16.596  14.714   3.450  0.0935  0.0185  0.0343
28366W        W44500  13.278   8.903   2.678 -0.0759 -0.1129  0.0484
28367W        W44501  18.246   1.056   2.236 -0.0527 -0.2993  0.1805
28368W        W44502   9.920  15.741   3.042 -0.2756  0.2006  0.1366
28369W        W44503  14.840  18.576  14.739 -0.1244 -0.1679  0.2408
28370W        W44504   9.442   2.796   1.407 -0.2650 -0.0540 -0.0802
28371W        W44505  14.320  10.965   4.003  0.2635  0.1686  0.0354
28372W        W44506  11.944  11.626  11.315 -0.3194  0.0278  0.2108
28373W        W44507  13.528   7.444  11.162 -0.1738 -0.0460  0.2746
28374W        W44508   3.982   6.193   1.383 -0.2660 -0.4466  0.1808
28375W        W44509  13.919   4.038   2.899 -0.2186  0.2601  0.1335
28376W        W44510  13.350   3.626   2.616 -0.0057 -0.0306  0.0026
28377W        W44511  10.425   0.799   2.079 -0.1388  0.2624 -0.1946
28378W        W44512  11.437  15.274  10.136 -0.1071 -0.0736 -0.0645
28379W        W44513  16.472   2.844  12.355  0.0163 -0.4440 -0.3060
28380W        W44514   4.049  11.858  13.871 -0.5261  0.1636 -0.1816
28381W        W44515  11.603  14.471  10.317  0.3455  0.0961 -0.0051
28382W        W44516   9.608   0.617   3.182 -0.2504 -0.0362 -0.2645
28383W        W44517   7.435   5.860   5.057 -0.0686  0.0950  0.1413
28384W        W44518   3.821   4.978   0.728 -0.1972  0.3697 -0.1305
28385W        W44519  13.832  14.640   2.257 -0.2302 -0.2454  0.0706
28386W        W44520   7.758   7.642  13.821 -0.0519 -0.0984  0.1441
28387W        W44521  16.451  14.749   1.993  0.0790  0.1877  0.1576
28388W        W44522   0.797   1.085   0.735  0.2237  0.0500 -0.1155
28389W        W44523  18.481   8.392   3.528  0.1559 -0.1321 -0.1564
28390W        W44524  16.079   0.020   3.621  0.1277  0.0366  0.0325
28391W        W44525   4.275   2.299  10.978 -0.1720 -0.0375 -0.0469
28392W        W44526  15.800   3.148   5.720 -0.1836 -0.0994 -0.0615
28393W        W44527  13.410   8.152  13.490  0.2633 -0.0388 -0.1743
28394W        W44528  12.616   7.759   2.388  0.1328 -0.1154  0.0121
28395W        W44529   0.591  15.226   2.670  0.0023  0.0508  0.0732
28396W        W44530  14.381  14.157   4.961 -0.2274 -0.0428  0.0599
28397W        W44531   0.104   0.925  11.372 -0.2262  0.1138  0.2131
28398W        W44532  11.583   0.985   4.627  0.2059 -0.0533  0.0085
28399W        W44533   9.916   2.411   0.974 -0.1598  0.0925 -0.0463
28400W        W44534   0.623  14.849   0.486  0.2319  0.1014 -0.0818
28401W        W44535  14.715  11.445  13.324 -0.1130  0.1248 -0.0253
28402W        W44536  15.308   7.066  14.357  0.0864 -0.1870  0.3620
28403W        W44537   6.992  15.797   3.668  0.1578  0.1799  0.1090
28404W        W44538   3.548  18.398  12.468  0.1893  0.1414  0.0642
28405W        W44539   6.692  13.206   1.059  0.1037 -0.0292 -0.0826
28406W        W44540  14.945  14.771   0.863  0.0099 -0.1180  0.0274
28407W        W44541  17.612  14.163  13.669 -0.2210 -0.3222  0.0110
28408W        W44542  13.437  15.460   5.057  0.0429  0.3251 -0.3770
28409W        W44543   2.805   4.229   0.228  0.1865  0.0680  0.1170
28410W        W44544  15.484   6.115  13.626  0.0302  0.0515  0.2463
28411W        W44545  10.733  12.658  11.122 -0.0985 -0.3753  0.0365
28412W        W44546   7.598  18.571  13.257 -0.0916 -0.0345 -0.1188
28413W        W44547   9.894   0.611   4.888  0.0369  0.0213 -0.0107
28414W        W44548  18.924   4.659  11.128 -0.0541  0.2408  0.2653
28415W        W44549   7.930  13.514  14.938  0.3138 -0.0682 -0.1709
28416W        W44550  10.601   1.396   0.459  0.1647  0.3337 -0.2614
28417W        W44551  10.529   9.579   1.860  0.2395 -0.0348  0.1542
28418W        W44552   5.146  13.380  14.281 -0.1344  0.0621 -0.0189
28419W        W44553   6.369  11.975  13.391 -0.0987  0.0762  0.0846
28420W        W44554   1.798   3.159  15.007  0.0553 -0.0610 -0.0808
28421W        W44555   4.466  11.782   3.683 -0.0682 -0.0093  0.1137
28422W        W44556   0.066  13.943  13.037  0.0199 -0.2500  0.0361
28423W        W44557   5.440  16.113  12.275 -0.0130 -0.1637 -0.2888
28424W        W44558   0.024   0.981  11.889 -0.1665 -0.2120 -0.3079
28425W        W44559   4.837   1.680   2.755 -0.0938  0.0453  0.1370
28426W        W44560   6.967   3.382   5.160  0.0212 -0.1053 -0.2484
28427W        W44561   3.035   3.287  13.145  0.2411  0.2251  0.0963
28428W        W44562   3.917  13.126  12.806  0.1425 -0.0094  0.1328
28429W        W44563   4.085  16.741  12.154  0.0884  0.0904 -0.1476
28430W        W44564  14.267   8.273   4.176  0.1597 -0.0212 -0.1145
28431W        W44565  14.279  12.493   3.281 -0.2284 -0.1829  0.0366
28432W        W44566  14.642  17.266   0.481  0.0215  0.0262  0.0297
28433W        W44567   0.269  13.216   1.206 -0.0325 -0.1521 -0.3492
28434W        W44568   7.564  13.935  10.963  0.1232  0.0201  0.2331
28435W        W44569   8.686   2.194   4.293 -0.1410  0.1145  0.4015
28436W        W44570  16.230  12.631  10.776 -0.2021 -0.0857  0.0497
28437W        W44571   4.942  18.783  14.433  0.3475  0.0211  0.3049
28438W        W44572   7.498   9.710   1.371 -0.1463 -0.3170 -0.0324
28439W        W44573   6.526  16.428  13.274 -0.1322  0.3206  0.1178
28440W        W44574  18.859  12.859   0.408  0.0436 -0.2379  0.3051
28441W        W44575   0.738  16.663   5.260 -0.0371  0.2674 -0.1897
28442W        W44576   6.303   3.052  12.652 -0.1314  0.2633 -0.3619
28443W        W44577   8.341  18.009   0.025  0.4079 -0.0167  0.4455
28444W        W44578   3.372   4.154   2.592  0.3534 -0.0584  0.0049
28445W        W44579   1.557   9.054   3.887 -0.1255 -0.0268  0.3300
28446W        W44580  17.508  10.954   0.377  0.1551 -0.0796  0.1501
28447W        W44581   1.271  12.892   0.176 -0.0748 -0.3732  0.1400
28448W        W44582  18.748  14.736  13.412 -0.1646  0.0116  0.3186
28449W        W44583   1.362  17.152   3.864 -0.0658 -0.4434  0.2493
28450W        W44584  13.040   0.683  14.888  0.1303 -0.0894 -0.0819
28451W        W44585   9.286  12.130  11.968 -0.1320  0.2589  0.2590
28452W        W44586  17.109  12.839  13.077  0.2802 -0.0033  0.1822
28453W        W44587   8.054   1.159   4.939  0.1062 -0.0389  0.0485
28454W        W44588   7.927  18.046   3.160  0.0428  0.0868 -0.1448
28455W        W44589   4.367  10.251  13.104  0.3655 -0.2637  0.2532
28456W        W44590  15.169   1.810   2.765  0.4705 -0.1612 -0.2092
28457W        W44591  12.332  15.833  13.642  0.0501  0.0746 -0.2615
28458W        W44592   7.598   7.566  10.131 -0.1515 -0.0195 -0.0330
28459W        W44593  15.334  17.684   2.065 -0.0761  0.3108 -0.1329
28460W        W44594  14.299   9.349   1.203  0.1204  0.2036 -0.0442
28461W        W44595   7.397  13.890   3.394 -0.0659 -0.1950  0.1787
28462W        W44596  12.222   7.037  11.046 -0.0276 -0.0363  0.1651
28463W        W44597  16.452   3.315  15.235 -0.1030  0.0410  0.0342
28464W        W44598   4.147  10.872   4.075 -0.1867 -0.0205  0.1116
28465W        W44599   6.789  11.446   0.675 -0.1763 -0.2182  0.3399
28466W        W44600   4.872   5.119  14.152  0.4287 -0.0489 -0.1647
28467W        W44601  16.497   4.117   4.121 -0.2005 -0.1874  0.0659
28468W        W44602   7.361   7.921  13.826 -0.1864  0.2398  0.2595
28469W        W44603   8.127  10.144  12.737  0.0252 -0.0377 -0.2303
28470W        W44604  18.575  13.502   3.782 -0.1562 -0.1514  0.0588
28471W        W44605  13.575  10.345  15.177  0.1438 -0.0654  0.0313
28472W        W44606   9.027   4.681   2.659 -0.1787  0.2038  0.0090
28473W        W44607   5.373  17.083  10.088  0.2000 -0.3633  0.4117
28474W        W44608  12.618  13.565   0.866 -0.2654 -0.3798  0.1201
28475W        W44609   4.503   5.783   3.454 -0.1326  0.1578  0.0972
28476W        W44610   4.234  11.204   2.320 -0.1419 -0.2196 -0.0730
28477W        W44611   1.017   3.867   1.684  0.0032 -0.0039 -0.0123
28478W        W44612   3.168  12.040   2.763 -0.1196 -0.0586 -0.0433
28479W        W44613  17.679   6.267   1.967 -0.3982 -0.1026 -0.0674
28480W        W44614   5.562   6.453   5.525 -0.3957  0.0130 -0.0405
28481W        W44615  18.825   2.567   1.155 -0.1920 -0.4461  0.2879
28482W        W44616   2.528  12.401   0.581  0.0104  0.0489  0.2839
28483W        W44617   7.395   1.333   3.817 -0.1879 -0.1384 -0.1425
28484W        W44618   8.647  12.695   0.636 -0.0363 -0.1701 -0.2871
28485W        W44619   6.075  18.146  13.345  0.1461  0.1173 -0.1852
28486W        W44620  11.306   9.647  15.068  0.1550 -0.0767 -0.0963
28487W        W44621  12.548   7.828   5.107 -0.2657  0.3190 -0.1317
28488W        W44622  11.240   3.446   1.233  0.3021 -0.0894  0.0293
28489W        W44623  11.670   9.186  11.075 -0.0250  0.1947 -0.2526
28490W        W44624   7.545  13.273  11.936  0.1713 -0.2221 -0.1911
28491W        W44625  18.003   7.579  11.662  0.1620 -0.0648 -0.1471
28492W        W44626  17.648   3.007   4.110 -0.1124 -0.2646 -0.3849
28493W        W44627   8.813   7.558  10.291  0.1317 -0.4444  0.1077
28494W        W44628   3.754   3.435  12.923  0.2730  0.2390  0.0384
28495W        W44629   8.952   1.626   4.532  0.2025 -0.0243  0.1063
28496W        W44630   1.472  10.338   0.867  0.0379  0.0837 -0.1402
28497W        W44631  10.472   4.969   0.908 -0.0852 -0.1834 -0.1858
28498W        W44632  16.763  12.612  13.374 -0.1236 -0.1865  0.1112
28499W        W44633   6.885  13.824   3.445  0.0510 -0.0232  0.2995
28500W        W44634  16.834  16.065  12.337  0.1237  0.3415 -0.0141
28501W        W44635   8.822  14.150   0.031 -0.1969  0.0148  0.1295
28502W        W44636   0.525   5.608   3.126  0.0542  0.0034 -0.2170
28503W        W44637   7.828   8.876   4.434  0.1347  0.0578  0.1253
28504W        W44638  13.862  14.746  13.839 -0.0221 -0.3015 -0.3352
28505W        W44639   2.506   9.446  14.524  0.1447  0.1134 -0.1021
28506W        W44640  18.515  15.691   3.317 -0.3891 -0.0723 -0.2285
28507W        W44641   4.936   4.313   5.419  0.1638 -0.1458 -0.1852
28508W        W44642  17.956  15.851  13.451  0.0059 -0.3619 -0.0611
28509W        W44643  15.588  16.140  11.742  0.2834  0.1081  0.0292
28510W        W44644   5.947  10.936   4.880 -0.1695  0.0744 -0.0123
28511W        W44645   6.499   9.910  13.741  0.3291 -0.1786  0.1947
28512W        W44646   5.242  17.889  14.633  0.0646 -0.1833  0.2766
28513W        W44647   2.596  15.389   3.735 -0.0809 -0.0351  0.1744
28514W        W44648  12.528   6.070   1.189 -0.1584  0.1194  0.1601
28515W        W44649   7.566  15.457   4.406  0.0278  0.0375 -0.0625
28516W        W44650   8.525   4.121   0.822  0.0184  0.2299  0.1567
28517W        W44651  14.644   0.733  10.504 -0.0164  0.2203 -0.0342
28518W        W44652   8.886   5.814  13.113  0.3618  0.2180  0.0434
28519W        W44653   8.182  16.667   3.998 -0.1622 -0.0230 -0.1647
28520W        W44654   4.064  13.146   2.920 -0.1163  0.0029 -0.1771
28521W        W44655  12.896  17.787  14.967  0.0409 -0.2249 -0.0619
28522W        W44656   1.155  18.521  12.008  0.1087 -0.0162  0.0273
28523W        W44657  10.640  16.587   2.271  0.1198  0.0161  0.1330
28524W        W44658  13.681  11.162  10.852 -0.2581  0.1409  0.0816
28525W        W44659   9.803  17.881  13.075 -0.1105  0.1542 -0.0950
28526W        W44660   4.334   0.302   3.851 -0.3136 -0.4496  0.0850
28527W        W44661   6.184   8.299   5.696 -0.0636  0.2028  0.0864
28528W        W44662   6.198   1.439   0.224  0.0077  0.0269 -0.2035
28529W        W44663  14.288  11.068  12.636 -0.0730 -0.2148 -0.3089
28530W        W44664   3.793  17.605   5.750  0.0548 -0.0907  0.3684
28531W        W44665   1.803  18.670  10.894  0.0510  0.0583  0.1442
28532W        W44666   8.775   2.345   0.006 -0.3636  0.3559 -0.0007
28533W        W44667   2.372  16.929  14.019 -0.1819 -0.2462 -0.1710
28534W        W44668  18.610  15.477  11.678  0.0891  0.0791 -0.0249
28535W        W44669  16.694  18.105   4.464 -0.5221  0.1145 -0.0055
28536W        W44670   9.346   4.407  14.947 -0.1718  0.1249 -0.0970
28537W        W44671   5.734   6.690   4.813  0.0446  0.0715  0.1664
28538W        W44672  10.685  14.239   5.106  0.0311 -0.1003  0.1237
28539W        W44673  12.954  15.738  11.699  0.3931  0.0470 -0.1671
28540W        W44674  16.879  13.012   1.400 -0.1134 -0.1136 -0.2097
28541W        W44675  10.332  16.132  11.430 -0.0931 -0.2532 -0.0075
28542W        W44676   2.635   6.104  15.286 -0.0002  0.2686 -0.0568
28543W        W44677   0.336  10.740   2.478 -0.1454 -0.1518  0.0674
28544W        W44678   2.074  16.704   1.177 -0.0008 -0.3379 -0.0357
28545W        W44679   3.419   7.415   1.507  0.1750  0.1282 -0.1794
28546W        W44680   3.795  12.577   2.757  0.0753 -0.0487 -0.3239
28547W        W44681   4.275   0.731   2.806 -0.0266 -0.0816  0.0823
28548W        W44682  13.015  17.882   3.439 -0.0075  0.2046 -0.0440
28549W        W44683   1.730   4.848  10.562 -0.1531 -0.2868 -0.1200
28550W        W44684   3.586  15.858   3.024  0.2216  0.1992  0.5356
28551W        W44685  15.718  17.736  15.266 -0.1873 -0.2314 -0.2443
28552W        W44686   2.943   5.212   2.680  0.2836  0.1470 -0.1586
28553W        W44687  12.199   4.420  12.174 -0.0731  0.1422 -0.2677
28554W        W44688  13.168  14.668   2.976  0.2324  0.2933  0.1737
28555W        W44689   7.603  18.548  13.800  0.0970 -0.0236  0.4075
28556W        W44690   8.656   9.093   2.335 -0.0954 -0.2398  0.1280
28557W        W44691   9.522  16.455   4.420 -0.0706 -0.1244  0.3035
28558W        W44692   1.777  12.731  13.347  0.1775  0.2756  0.2640
28559W        W44693  18.524  10.747  11.875 -0.0501  0.1162  0.0416
28560W        W44694   7.460   0.066  10.462  0.1020  0.0752  0.0323
28561W        W44695  11.187  18.322   4.138 -0.3102  0.1152 -0.0845
28562W        W44696   1.525  13.693  12.681  0.1214  0.1448  0.0219
28563W        W44697  14.721  16.199  13.569  0.1724  0.1558  0.1743
28564W        W44698   9.749  16.737   2.535 -0.0195  0.0012 -0.0853
28565W        W44699   5.732   8.306  14.460  0.2024 -0.0707  0.1008
28566W        W44700  15.814   1.100  14.997  0.0313  0.0745  0.1023
28567W        W44701  12.208  18.991   4.722 -0.0553  0.0185  0.0311
28568W        W44702   7.305  15.269   0.139  0.3298  0.1392 -0.0081
28569W        W44703  12.678  13.455   4.124 -0.0073 -0.1569 -0.0925
28570W        W44704   6.659   9.620   3.194 -0.0976 -0.0645  0.1292
28571W        W44705  10.492   7.341   2.407  0.1049  0.1866 -0.0277
28572W        W44706   0.002  13.501   2.724  0.0301  0.0210 -0.1541
28573W        W44707  13.084  17.456   3.085  0.3283 -0.2970 -0.0866
28574W        W44708  10.706  15.779   4.072 -0.0839  0.0842  0.3333
28575W        W44709   3.044  18.737   0.019  0.3537  0.0415 -0.0336
28576W        W44710   9.856   7.501  10.421  0.0438 -0.1703 -0.0629
28577W        W44711   3.135  17.785  13.395 -0.0144  0.1268 -0.0530
28578W        W44712   7.873   7.664   4.937 -0.2305 -0.0184  0.0539
28579W        W44713   6.110   3.458   3.743  0.3902 -0.0112  0.2054
28580W        W44714  11.191  15.158   1.426  0.1994 -0.0883  0.0293
28581W        W44715   3.692   1.178   3.416  0.1270  0.1863  0.3924
28582W        W44716  14.953   3.619   2.628 -0.0748  0.0215 -0.1432
28583W        W44717  15.687  16.420  14.375  0.3061  0.1138 -0.1496
28584W        W44718  13.227  13.048  11.828 -0.2037  0.3634 -0.2055
28585W        W44719   1.726  17.716   2.775 -0.0232  0.0072 -0.2508
28586W        W44720  13.017   1.993   1.340 -0.0641 -0.1465 -0.1266
28587W        W44721  13.227   5.852  10.835  0.1900 -0.2463 -0.1618
28588W        W44722   9.819   9.782  13.586  0.0280 -0.2701  0.1331
28589W        W44723  13.936  10.067  11.024 -0.0283  0.0371  0.1378
28590W        W44724  14.518  11.592   0.155  0.3325  0.3051 -0.1896
28591W        W44725   7.457  11.817  11.469 -0.1619 -0.0821 -0.2005
28592W        W44726   1.220   4.546   3.381 -0.0289 -0.0305  0.1577
28593W        W44727  14.976  17.830   3.643 -0.4076 -0.0219  0.1952
28594W        W44728  10.381   0.369   1.369  0.1099 -0.0328 -0.1302
28595W        W44729   7.679  12.024   4.884 -0.1360  0.2666 -0.4062
28596W        W44730   0.252  14.386   3.079 -0.0235  0.2266 -0.0197
28597W        W44731   3.669  15.532   0.613 -0.2714 -0.1093 -0.0383
28598W        W44732   3.639  14.124   5.858  0.0837 -0.0080 -0.0040
28599W        W44733   8.851  12.312  13.241 -0.3749  0.2168  0.1405
28600W        W44734  10.310   9.643   4.526  0.1472 -0.0054 -0.0374
28601W        W44735  17.086   7.646  11.123 -0.0023 -0.0290  0.0076
28602W        W44736  17.251  13.476   4.776 -0.2664  0.1248 -0.0031
28603W        W44737  16.039   6.274  13.544 -0.3753 -0.2853 -0.0565
28604W        W44738   7.748  13.217   1.450  0.0673  0.0314 -0.1020
28605W        W44739   4.013   4.530   0.916 -0.0730  0.2300  0.3797
28606W        W44740   4.424   1.972   2.717  0.1106 -0.0200 -0.2018
28607W        W44741  14.422   4.456  10.861 -0.1315 -0.0711 -0.3513
28608W        W44742  12.824  14.882  10.674  0.0388  0.0243  0.2185
28609W        W44743   5.977  10.604   0.356  0.0865 -0.2329  0.1600
28610W        W44744  11.655  16.831   4.230  0.1786 -0.1678  0.0723
28611W        W44745   0.416  15.788  15.284  0.1864 -0.1505 -0.0064
28612W        W44746   7.928  18.926  14.445 -0.0073 -0.1428  0.0649
28613W        W44747   2.345   4.741  14.201  0.0399  0.2158 -0.0497
28614W        W44748   7.802  12.784  11.887  0.4281  0.1695  0.2745
28615W        W44749  10.993  12.167  11.323 -0.1841 -0.0499  0.2168
28616W        W44750   9.549   3.371  12.370  0.0243 -0.0558  0.1032
28617W        W44751  13.398   5.986   3.605  0.0165 -0.2514  0.3375
28618W        W44752  18.763  17.921   3.806 -0.0953 -0.2182  0.1050
28619W        W44753  15.961   7.083  13.891  0.0869 -0.2171  0.0597
28620W        W44754   9.821  10.353  11.055  0.1628  0.2661  0.2047
28621W        W44755   4.842   9.580   4.719  0.2728  0.3046 -0.2290
28622W        W44756  16.451  10.238   4.461  0.0694  0.0606 -0.2167
28623W        W44757  16.901   1.779  14.425  0.0115  0.1711  0.2208
28624W        W44758  10.803  11.199  12.818  0.0505 -0.0374 -0.0103
28625W        W44759  12.330   2.628   3.075  0.0625 -0.0461  0.0442
28626W        W44760   4.657   9.098   0.233  0.0579 -0.2048  0.1760
28627W        W44761   0.054  12.465  11.805 -0.2052  0.0469 -0.0519
28628W        W44762  14.392  10.974  10.431  0.1569  0.0683  0.2447
28629W        W44763   2.087  17.661   2.257  0.1110  0.2076 -0.0965
28630W        W44764   6.856  10.070  12.306 -0.0354  0.0125 -0.0128
28631W        W44765  10.201  12.642   0.992  0.1933  0.0394 -0.2819
28632W        W44766  18.901  12.172   2.035  0.0316 -0.3944 -0.0188
28633W        W44767   8.575  15.168   0.963  0.0981 -0.1596 -0.0222
28634W        W44768   9.073  13.019  14.047 -0.0588  0.1179  0.1866
28635W        W44769  11.624  18.225  13.175  0.1616  0.2767  0.2378
28636W        W44770  14.264  15.688   4.620 -0.1983 -0.1065 -0.0298
28637W        W44771  14.741  11.831   4.106 -0.0802 -0.3970  0.0235
28638W        W44772  15.425  14.509   4.802 -0.0844 -0.1102 -0.0459
28639W        W44773   0.070   5.840  12.008  0.2059 -0.0422 -0.1315
28640W        W44774   5.406   2.020   4.290  0.1608 -0.0245 -0.0358
28641W        W44775   8.794   2.277  12.594  0.1907  0.1222 -0.2946
28642W        W44776  18.151   1.027  13.477  0.0272  0.1048  0.0688
28643W        W44777   1.088   7.999   1.699  0.2175 -0.2374  0.0217
28644W        W44778  10.872   5.062   2.279  0.0239 -0.1578  0.0608
28645W        W44779  15.637   1.753  10.934 -0.0368  0.0159 -0.0602
28646W        W44780   7.316  17.493   4.116  0.2658  0.2404 -0.0192
28647W        W44781   8.976  10.107   1.166  0.0131  0.0894 -0.2395
28648W        W44782   2.847  13.964   2.729 -0.1566 -0.1545 -0.0379
28649W        W44783  17.507   9.528  13.223  0.1917  0.3002 -0.2734
28650W        W44784   8.740   3.252  15.055 -0.0019 -0.2180  0.2236
28651W        W44785   9.767   3.566  14.946 -0.0115 -0.4664  0.2073
28652W        W44786   0.949   6.866  12.525  0.2204  0.0844 -0.1646
28653W        W44787  13.431   9.191   2.309  0.0515 -0.1264 -0.0592
28654W        W44788  14.299  14.786   3.388 -0.0507 -0.0676  0.0908
28655W        W44789   8.690   8.835   1.347  0.0061 -0.2772 -0.0844
28656W        W44790   9.120   9.700  10.827 -0.0942  0.1149 -0.2074
28657W        W44791  13.544   5.387  13.443  0.1079 -0.1463  0.0247
28658W        W44792   3.343   2.546  13.241  0.2602 -0.0323 -0.0932
28659W        W44793   6.911  12.785   1.201 -0.1009  0.1719  0.0241
28660W        W44794   6.518  15.162   0.031  0.1699  0.0694 -0.4330
28661W        W44795  16.138   0.610   4.404 -0.2796  0.2520  0.0601
28662W        W44796   7.709  16.932  13.237 -0.2003  0.1097  0.1136
28663W        W44797   2.829   4.791  11.779 -0.0094  0.0300 -0.1607
28664W        W44798   6.774  14.506   6.042  0.1188  0.0758  0.1708
28665W        W44799   3.396   6.015   4.842  0.0341 -0.0794  0.3239
28666W        W44800  10.190  16.546   2.695  0.3867 -0.1518  0.1667
28667W        W44801   1.417  15.524   5.584 -0.1826 -0.0489 -0.0650
28668W        W44802   7.308  11.552  10.925 -0.0364 -0.0709  0.2320
28669W        W44803   7.596   1.265   0.162 -0.2044  0.0533  0.2127
28670W        W44804   6.920  18.593  15.008  0.2857  0.1185 -0.2062
28671W        W44805   4.803   7.156   0.717  0.2652  0.1764 -0.1842
28672W        W44806   2.141  13.087  13.261 -0.0162  0.1156  0.1759
28673W        W44807  13.450   7.449   4.738 -0.1735  0.2536  0.0730
28674W        W44808   0.052  11.031   3.913  0.1252 -0.2651  0.0790
28675W        W44809   1.718   4.495   1.192  0.1575  0.0005 -0.0468
28676W        W44810   6.278   0.774  12.457  0.3683 -0.0877  0.0230
28677W        W44811   0.555   5.130  10.849  0.0119 -0.0429 -0.1050
28678W        W44812   6.624  15.632   5.185  0.2503 -0.1613 -0.2081
28679W        W44813  14.577   1.066  13.187  0.0030  0.1383 -0.0459
28680W        W44814   9.298   8.240   2.028  0.0124 -0.2119  0.0965
28681W        W44815  13.961  16.951   5.163 -0.3037  0.1556  0.0698
28682W        W44816  15.023   9.301   0.989 -0.1638 -0.3261 -0.3077
28683W        W44817  11.777   1.550   0.341 -0.0530 -0.1182  0.1250
28684W        W44818  14.576  10.661   0.246 -0.1426  0.0688 -0.4121
28685W        W44819   2.654   2.933   0.392 -0.0154 -0.1106  0.2619
28686W        W44820  16.955  11.093  11.590  0.1015  0.1749 -0.0200
28687W        W44821  16.078  12.741   5.593  0.3489 -0.0440 -0.3030
28688W        W44822   4.719   4.238  13.626 -0.1078 -0.3695  0.3716
28689W        W44823   1.465   4.407   2.635  0.3679  0.2862 -0.1221
28690W        W44824  14.722  11.854  14.683  0.2444 -0.5520 -0.0108
28691W        W44825  17.717   6.815  12.397 -0.0493 -0.0932 -0.0538
28692W        W44826  10.712   6.684  12.145 -0.4199 -0.0275  0.0224
28693W        W44827   6.096   6.784  15.286 -0.0819 -0.0023 -0.0715
28694W        W44828   7.402   6.124   1.125 -0.0016 -0.2306  0.2823
28695W        W44829   4.973  14.295   0.318  0.0464  0.2444 -0.3086
28696W        W44830   8.699  17.333   1.112 -0.3197  0.0520  0.1925
28697W        W44831   8.981   0.659   0.823 -0.0310 -0.1071  0.1285
28698W        W44832  18.892   0.182   4.901  0.2407  0.1092  0.0979
28699W        W44833   7.787   2.437  10.613  0.2391 -0.1625  0.0369
28700W        W44834  16.506   8.132  13.418  0.1734 -0.0045 -0.0376
28701W        W44835  17.865  11.053  12.733  0.0745  0.1345  0.0994
28702W        W44836  16.465   4.848  11.440  0.0350 -0.1856  0.0433
28703W        W44837  18.044   9.342   2.608  0.1492  0.4221  0.1103
28704W        W44838  18.122  18.710   4.425 -0.0448 -0.1817  0.1813
28705W        W44839  17.917  12.721   3.596 -0.3204 -0.1369  0.0316
28706W        W44840  17.607  13.575   5.261  0.1986 -0.0274  0.0969
28707W        W44841  12.613   1.583   0.052 -0.4329 -0.1394 -0.0830
28708W        W44842  10.241   3.236  13.435  0.0591  0.2883  0.3389
28709W        W44843  17.468   3.319   2.914  0.0831  0.1447 -0.1681
28710W        W44844   0.727   2.334  12.717 -0.3483 -0.0859 -0.0068
28711W        W44845  11.309   5.204  14.719 -0.1177 -0.1099 -0.1846
28712W        W44846  12.885   9.848  13.187  0.2498  0.0515 -0.0910
28713W        W44847   0.488   8.995   0.767  0.2100 -0.1370 -0.4407
28714W        W44848  16.040  17.682   2.979 -0.0538 -0.0118 -0.0625
28715W        W44849  12.621  16.332   5.471  0.0327 -0.0115 -0.1097
28716W        W44850  17.484   5.110   3.274  0.2325  0.0017 -0.1081
28717W        W44851  11.644   5.965  11.543 -0.1426  0.0622 -0.2179
28718W        W44852   4.076  12.890   2.469  0.2301 -0.0040 -0.3159
28719W        W44853   1.282  13.765  13.195 -0.4068  0.1234 -0.0617
28720W        W44854   5.789   7.051  13.353 -0.0769 -0.0593 -0.1315
28721W        W44855   6.896   2.349   2.125 -0.0027  0.2150 -0.0903
28722W        W44856   7.820   5.957   0.462 -0.0706 -0.0383 -0.1610
28723W        W44857   2.722  14.387  10.939 -0.0361  0.1976  0.1237
28724W        W44858   7.124   7.613   5.601 -0.1185 -0.1212 -0.2506
28725W        W44859   3.045  10.180   0.411 -0.0921 -0.2333 -0.1797
28726W        W44860   0.449   9.260  12.069 -0.0402  0.3564  0.1807
28727W        W44861  14.493   9.149   3.047  0.5249 -0.0105  0.3766
28728W        W44862  16.697  12.161  11.729  0.1301  0.2614 -0.1454
28729W        W44863  16.809   4.944  12.800  0.0502 -0.0935  0.2119
28730W        W44864  15.351  13.305   3.833 -0.2898  0.0164  0.1178
28731W        W44865  10.283   0.482   4.401  0.2841 -0.1994  0.2607
28732W        W44866  11.231  18.836   1.862 -0.1564 -0.2060  0.0938
28733W        W44867   8.768   3.575   2.633 -0.1368 -0.2276  0.1318
28734W        W44868   5.859  11.953  11.022 -0.2754  0.1074 -0.0702
28735W        W44869   3.768   6.147   4.421 -0.1159  0.1367  0.0635
28736W        W44870  10.212  15.854   3.479  0.0056 -0.0880  0.2232
28737W        W44871   7.612  11.950  12.939 -0.0210  0.2020 -0.2771
28738W        W44872  17.197  13.251   1.072  0.1903  0.3443  0.0995
28739W        W44873   5.138   7.688   2.671  0.0931  0.3182  0.1952
28740W        W44874  17.102  18.126  14.346  0.0883 -0.2072  0.0759
28741W        W44875  12.729  18.440   0.562 -0.0910  0.0607 -0.2381
28742W        W44876   2.070   4.257  12.771  0.1735 -0.3327 -0.0402
28743W        W44877  15.129  16.154  10.998  0.1392 -0.0734  0.2743
28744W        W44878   5.367  10.922   2.120 -0.0698  0.3024  0.1448
28745W        W44879  15.390   8.288  10.910 -0.2987 -0.3754  0.0576
28746W        W44880   0.485   7.400   0.568 -0.3038 -0.0613  0.0198
28747W        W44881   0.161   3.161   3.236 -0.0608 -0.3705  0.0522
28748W        W44882  18.198   6.786   5.424  0.4602 -0.0742  0.1445
28749W        W44883  18.812  11.163  11.347  0.1857  0.1063 -0.1347
28750W        W44884   9.296   7.683  13.748 -0.1464  0.1429  0.0347
28751W        W44885   8.200   1.230   2.158 -0.1794  0.1343  0.1193
28752W        W44886   7.452  11.672   1.249  0.0671 -0.1321 -0.1797
28753W        W44887  13.759   7.893   3.688 -0.1750  0.0524 -0.2086
28754W        W44888   9.166   4.810  14.612  0.1094 -0.3269 -0.0344
28755W        W44889   5.661  15.994   1.101  0.0517 -0.2267 -0.4849
28756W        W44890   0.659  16.972  11.850 -0.0698  0.0319  0.0239
28757W        W44891   7.853   4.336   0.623  0.1926 -0.1784 -0.1695
28758W        W44892  17.061   3.202  12.783 -0.0966 -0.4396  0.3001
28759W        W44893   7.250   0.464  12.033 -0.1172  0.1373  0.1466
28760W        W44894   5.469  12.360   5.246 -0.0147  0.1602  0.1172
28761W        W44895   4.028   5.734  13.953  0.0437  0.0102 -0.2395
28762W        W44896   6.675   7.926   4.083 -0.1283  0.2151 -0.0883
28763W        W44897   8.939   4.408  13.159 -0.0572 -0.0748  0.1896
28764W        W44898  13.768   2.757  12.116 -0.1335  0.1595 -0.3414
28765W        W44899  14.296   1.252  12.303 -0.0401  0.0198  0.3632
28766W        W44900   1.295  15.334  14.539 -0.0298  0.1962  0.1203
28767W        W44901   7.774  11.423   5.029 -0.2197 -0.0244 -0.2161
28768W        W44902   8.186  16.789   2.781 -0.1040 -0.0267  0.0296
28769W        W44903  13.397  16.435   3.500  0.0086  0.1226 -0.2176
28770W        W44904   9.563  13.223  13.856  0.0680 -0.5495  0.1463
28771W        W44905  18.848   6.957   3.878 -0.2418  0.0462  0.0794
28772W        W44906   0.958   8.563  10.108 -0.1796 -0.0869  0.4688
28773W        W44907   7.514  12.111   4.432 -0.0131  0.1770 -0.0375
28774W        W44908   7.155  12.003   3.536  0.3337 -0.1044  0.1721
28775W        W44909   3.386  16.125  11.926  0.1286  0.0493 -0.3308
28776W        W44910  16.502  12.137  12.180  0.1381  0.1164 -0.3150
28777W        W44911  16.317  11.232  14.706 -0.2669  0.1765  0.0232
28778W        W44912   6.407  12.629  11.659 -0.0159  0.4857  0.0530
28779W        W44913   5.041   4.386  10.794 -0.2796 -0.0536 -0.0147
28780W        W44914   6.545  11.114   4.930 -0.1622  0.1243  0.1382
28781W        W44915  16.167  15.380   3.192 -0.0818 -0.1912  0.0697
28782W        W44916   6.391   2.450   2.172 -0.2617  0.1058 -0.0060
28783W        W44917  14.341  16.614   2.409  0.1647 -0.1159  0.0225
28784W        W44918  12.625  15.173  12.461 -0.1461 -0.1713 -0.1387
28785W        W44919  14.055   5.625  12.683  0.2021 -0.2282  0.1580
28786W        W44920   9.789  10.681  11.990  0.0999 -0.0339 -0.2759
28787W        W44921   8.053   1.236   2.739 -0.0130  0.1864  0.0364
28788W        W44922  12.363   9.789  12.595  0.0661  0.3032 -0.3102
28789W        W44923  10.227   2.804   1.720  0.0166 -0.1520 -0.0289
28790W        W44924  12.427   3.420   4.466  0.3340  0.1844 -0.1132
28791W        W44925  14.489   2.155   3.990  0.0640  0.1155 -0.0988
28792W        W44926   8.291  14.446  12.029 -0.1527 -0.0067 -0.0293
28793W        W44927  14.526  14.872   1.056 -0.0651  0.3189 -0.4567
28794W        W44928   7.415   1.024  14.950  0.0469 -0.0206  0.0552
28795W        W44929   7.735   8.838   1.145 -0.2334  0.0892  0.0652
28796W        W44930  10.930  10.932   3.192 -0.0660 -0.0829 -0.2455
28797W        W44931   1.621  17.586  10.701 -0.1856  0.1993  0.1679
28798W        W44932  18.988  15.153   1.891 -0.0037 -0.1922  0.2505
28799W        W44933  16.544  17.843  12.917  0.0742 -0.1872  0.1834
28800W        W44934   2.926  18.634  12.832 -0.0947  0.2812 -0.0187
28801W        W44935   3.320   0.055   0.681 -0.1610  0.1441  0.0850
28802W        W44936   2.892  11.229   0.750 -0.1910 -0.1666  0.0874
28803W        W44937   4.932  11.989   0.498 -0.0876  0.2190 -0.1038
28804W        W44938   6.060  11.312   1.288  0.0131  0.3107  0.2981
28805W        W44939  17.374   5.248   5.287  0.1026  0.0934  0.0015
28806W        W44940  13.532  13.866  13.109  0.0293 -0.0762 -0.0774
28807W        W44941   8.796   3.622   0.784  0.1324 -0.1904 -0.0793
28808W        W44942   6.205  14.430   3.053 -0.2249 -0.0318  0.2431
28809W        W44943   7.993   5.240   2.760  0.4628 -0.1949 -0.0902
28810W        W44944   6.014  17.026  14.292 -0.3325 -0.0234  0.0463
28811W        W44945  18.811  13.361   4.747  0.0769  0.0681 -0.1614
28812W        W44946   2.473   9.440   4.724  0.0430 -0.1308 -0.0499
28813W        W44947  15.368  15.665   1.292 -0.2060  0.0645 -0.0086
28814W        W44948  10.908   5.804  13.870 -0.3555 -0.2959 -0.2468
28815W        W44949   0.101   3.816   0.190 -0.0637 -0.0675  0.0285
28816W        W44950  14.668  18.625   3.429  0.0740  0.0256  0.0962
28817W        W44951   4.063  13.923   2.243  0.0209 -0.0642  0.1621
28818W        W44952  11.330   9.361   5.112 -0.3030  0.0494  0.0974
28819W        W44953   6.350   9.765   0.430  0.1668  0.0452 -0.4340
28820W        W44954  11.006  12.160   2.689 -0.1531 -0.0214 -0.0657
28821W        W44955  15.937   3.488  10.389  0.2264  0.0573 -0.2655
28822W        W44956   1.708   0.114  11.574  0.0745 -0.2970  0.2893
28823W        W44957  12.997   4.779  12.522 -0.2338 -0.3548 -0.2569
28824W        W44958  11.995   6.759  10.686  0.2551  0.1064 -0.1650
28825W        W44959  14.305   0.242   0.672  0.1140 -0.0377 -0.0924
28826W        W44960  12.006   4.738   3.084 -0.1002  0.1534 -0.1335
28827W        W44961   4.341   1.237  15.104 -0.0144 -0.1788  0.1578
28828W        W44962  11.850  10.230  15.105 -0.2562  0.1472  0.2144
28829W        W44963   3.673  16.143  12.992  0.2023  0.3706 -0.0326
28830W        W44964  15.716  10.220   0.153  0.0392 -0.1383 -0.1477
28831W        W44965  17.796  14.904  11.052  0.0299 -0.6067  0.1984
28832W        W44966  13.423  12.471  11.978  0.2615  0.2013  0.0076
28833W        W44967  10.285  14.806  11.890 -0.2820  0.0384  0.0094
28834W        W44968   8.166  10.447  11.174 -0.0735 -0.2549  0.0299
28835W        W44969  13.637   5.679   9.537 -0.0038 -0.2867 -0.1487
28836W        W44970  18.522  12.909   4.477  0.2505  0.1445 -0.0396
28837W        W44971   8.692  17.456  12.381 -0.2034 -0.2492  0.0498
28838W        W44972  15.617   3.580   4.301  0.1204  0.0530  0.0581
28839W        W44973   1.646  10.168   5.502  0.2848  0.4771 -0.0066
28840W        W44974   9.201   4.872   5.428 -0.1949 -0.0250  0.0253
28841W        W44975   1.491  18.647  11.633 -0.1507  0.2948  0.1223
28842W        W44976   5.247   5.765  13.586 -0.1006 -0.0042 -0.0652
28843W        W44977   2.612  12.388   5.705 -0.1128  0.1793 -0.1566
28844W        W44978   4.288  16.219  13.097 -0.0855  0.0843 -0.0479
28845W        W44979   5.123  11.605   0.857  0.1811 -0.0489 -0.0352
28846W        W44980  18.921   2.700   3.156 -0.0847  0.1120 -0.1473
28847W        W44981  11.967   9.645   4.572 -0.3120  0.0164  0.3068
28848W        W44982   2.604   9.936  12.675  0.0294 -0.0483  0.0088
28849W        W44983   2.385   0.189   0.403 -0.3447  0.0802 -0.0837
28850W        W44984   8.684  14.649  14.801 -0.1108 -0.2342 -0.2344
28851W        W44985   7.415   9.359  12.733  0.2598  0.2825 -0.0248
28852W        W44986   4.394   2.608   3.442  0.2584 -0.2062 -0.1317
28853W        W44987  13.293  17.696  10.838 -0.0973 -0.0769  0.0297
28854W        W44988   9.070   0.607   3.187  0.0954 -0.1999 -0.0568
28855W        W44989   6.748  12.314  13.251 -0.3791 -0.0833 -0.0649
28856W        W44990  12.267   3.241  10.706 -0.1769  0.3825 -0.0901
28857W        W44991   0.664  15.985   4.066 -0.0635 -0.2605 -0.0038
28858W        W44992  17.927   1.764  12.762  0.1382 -0.0363 -0.0046
28859W        W44993   0.065   5.803  13.016 -0.2667 -0.0059 -0.0052
28860W        W44994  18.104   3.589   4.772  0.1960 -0.1521  0.1005
28861W        W44995   1.571  16.725  11.125  0.1070 -0.0496 -0.2364
28862W        W44996  11.929  15.913  11.455 -0.2553  0.1922 -0.2073
28863W        W44997  18.856  13.122  15.254  0.3037  0.0736  0.2417
28864W        W44998   5.724   9.550  15.204 -0.1903  0.1238 -0.1633
28865W        W44999   7.176   4.515  11.182 -0.1972  0.0885  0.2396
28866W        W45000   5.806   2.930   0.265  0.0633  0.1911 -0.1344
28867W        W45001  11.023  18.810   5.051 -0.1996 -0.2399  0.1178
28868W        W45002  15.407   5.122   1.636 -0.0549 -0.0593 -0.0095
28869W        W45003   5.283   2.791  12.409 -0.2004 -0.0221 -0.0686
28870W        W45004  13.912   4.300  13.689  0.0340 -0.2041 -0.1981
28871W        W45005  14.939  16.009  11.866 -0.1375 -0.1500  0.3038
28872W        W45006   7.799   7.201   1.959  0.1400  0.1584  0.3862
28873W        W45007  12.851  17.455  11.033 -0.2058  0.1982  0.1870
28874W        W45008   3.071   6.721  10.442 -0.1494 -0.2931 -0.0819
28875W        W45009   5.307  11.263  11.347  0.1305  0.0343  0.4480
28876W        W45010  15.933   2.395  13.068 -0.4267 -0.1603  0.0476
28877W        W45011  12.210  13.246  13.133 -0.1440  0.2743  0.0793
28878W        W45012  16.746   8.455   9.473 -0.0946 -0.0051 -0.0125
28879W        W45013   5.516  15.485  13.141 -0.2296 -0.1649  0.2223
28880W        W45014   7.540   4.645   4.488  0.1401  0.0775  0.1606
28881W        W45015  13.186   8.711   1.330  0.1552 -0.0996  0.1128
28882W        W45016   3.623   6.331  15.207  0.0774  0.2398 -0.1224
28883W        W45017   0.682   1.218  12.917  0.3252  0.0953 -0.0162
28884W        W45018  17.940  16.193  12.723 -0.0093 -0.0064 -0.2553
28885W        W45019   4.118   6.084   3.572 -0.3116 -0.0335  0.0487
28886W        W45020   2.568   5.790  11.730 -0.0709  0.0848 -0.3865
28887W        W45021   5.097  11.951  15.166 -0.3186  0.0503  0.0760
28888W        W45022   6.545  13.506  13.928 -0.0031 -0.1545  0.0523
28889W        W45023   7.879  11.464   1.426 -0.0329 -0.0607 -0.1785
28890W        W45024  16.623   4.345  13.637 -0.0581  0.0412  0.1780
28891W        W45025   5.627   1.573  10.741  0.0958  0.0621 -0.0151
28892W        W45026   4.161  17.414  10.440  0.0931  0.1654  0.1278
28893W        W45027  13.622   1.630   1.904 -0.0084 -0.2002 -0.0224
28894W        W45028  12.332  14.113  12.145 -0.1425  0.1717 -0.1007
28895W        W45029   2.962  10.654   1.385 -0.4816  0.0526 -0.1580
28896W        W45030   9.177  14.040  14.300  0.0926 -0.2229 -0.0738
28897W        W45031  15.547   7.515   3.244  0.1941  0.1591  0.4287
28898W        W45032   5.317   7.547  10.673 -0.2599  0.1798 -0.1650
28899W        W45033   6.047   2.054   3.592 -0.2278  0.2741  0.1777
28900W        W45034   7.325   8.573   3.791 -0.1661 -0.0912  0.1881
28901W        W45035   4.396  13.513   5.250  0.1141  0.0468 -0.4004
28902W        W45036  10.636  12.345   2.367 -0.0818  0.3168  0.3333
28903W        W45037  13.557   8.622   6.023 -0.1624  0.0903  0.0083
28904W        W45038   2.656   8.346  13.115 -0.1754  0.1134 -0.1317
28905W        W45039   4.001   8.637  13.455 -0.1384 -0.0124 -0.0650
28906W        W45040   8.628  17.027  14.067  0.0484 -0.0948  0.0013
28907W        W45041   7.969   2.894   2.698 -0.1835  0.1649 -0.2256
28908W        W45042   0.285  12.786   5.146 -0.2331 -0.1258 -0.1940
28909W        W45043   0.008  15.222   5.545 -0.3582  0.2349  0.1005
28910W        W45044   2.546  15.140   9.926  0.2159 -0.1654 -0.2363
28911W        W45045  16.352   2.375  13.884  0.0616 -0.0416 -0.0013
28912W        W45046  15.851  10.604   1.916 -0.1870  0.2420  0.4438
28913W        W45047   4.152  12.421  13.898 -0.2277  0.1361 -0.1935
28914W        W45048  13.500   5.496  11.090  0.0139  0.4074  0.1452
28915W        W45049  18.178  12.501  14.239 -0.1501  0.0626 -0.0091
28916W        W45050  10.160   9.781  11.004 -0.0347  0.1320 -0.1137
28917W        W45051   3.325   9.531  11.016 -0.2843 -0.0840 -0.3140
28918W        W45052   7.640   5.266  11.150  0.1970 -0.0799  0.3976
28919W        W45053  18.283  16.251   1.195  0.1816 -0.0455 -0.2435
28920W        W45054   9.410  12.150   0.238 -0.2105 -0.0341  0.1114
28921W        W45055  12.635   3.045   2.100  0.0470 -0.0739  0.3951
28922W        W45056   5.758   7.648  10.923  0.2435 -0.1223  0.0375
28923W        W45057   3.614   5.632   4.332  0.4169 -0.0689 -0.2622
28924W        W45058   9.891   4.965  12.893  0.0842 -0.0810 -0.2359
28925W        W45059   7.378  17.333   3.176 -0.1855  0.0122  0.0597
28926W        W45060  13.031   4.459   3.705 -0.1477  0.0988 -0.1049
28927W        W45061  17.425   7.482   4.663  0.3086 -0.0445 -0.1361
28928W        W45062  11.245  12.544  10.253 -0.0991  0.1802  0.1742
28929W        W45063  18.461   3.545   4.422 -0.0093 -0.1947 -0.0456
28930W        W45064  18.901  16.975  13.061 -0.1729  0.1134  0.0279
28931W        W45065  17.151  13.021  11.539  0.3991  0.0317 -0.0371
28932W        W45066  11.299   8.917   0.800 -0.0299  0.0735  0.1678
28933W        W45067  16.165  17.587  15.016 -0.2567  0.3633  0.0212
28934W        W45068  11.114  11.076  10.385 -0.0770 -0.2525 -0.1930
28935W        W45069   3.655   9.316  13.786 -0.2700 -0.1015  0.0293
28936W        W45070   8.950  14.993  13.885 -0.1772 -0.1256  0.1553
28937W        W45071  17.070   6.764  11.110  0.2384 -0.0493  0.3342
28938W        W45072  12.343  18.701   0.655  0.0845  0.0034 -0.0703
28939W        W45073  13.262   8.954   1.769  0.3268  0.1851  0.0219
28940W        W45074   4.574   4.623   1.756 -0.1025 -0.2065  0.1812
28941W        W45075   6.328  13.968  11.978  0.3032  0.0306  0.2380
28942W        W45076  11.164   4.490  11.857  0.0106 -0.0639  0.3588
28943W        W45077  11.762   1.035   0.309 -0.2909 -0.2131 -0.4989
28944W        W45078  16.673   1.585   2.227  0.0699  0.1466 -0.1327
28945W        W45079   5.314  18.810   2.946 -0.1736  0.1070 -0.0019
28946W        W45080   9.392   5.442   3.306 -0.0599 -0.0419 -0.0228
28947W        W45081  18.465   6.588   4.984 -0.0546  0.1345 -0.2874
28948W        W45082   6.543  16.483   5.455  0.0603 -0.3306 -0.2553
28949W        W45083  12.466  11.444  14.625 -0.0566 -0.3329 -0.0449
28950W        W45084   0.585  12.088   3.139  0.0726  0.0287 -0.0466
28951W        W45085   4.543   2.490   2.779 -0.0089 -0.2683 -0.0393
28952W        W45086  10.905   2.235  11.434  0.0984 -0.2729  0.0043
28953W        W45087  10.899  14.313   3.248 -0.0253  0.2230 -0.3585
28954W        W45088   1.399   0.810  13.272 -0.0215  0.2728  0.2797
28955W        W45089   3.350  11.341   0.472  0.2036 -0.0662 -0.1098
28956W        W45090  10.098   7.299   4.306 -0.0964  0.2012  0.3057
28957W        W45091  17.291  15.775  14.488 -0.1324  0.1579  0.0146
28958W        W45092  10.047   4.935   2.614  0.0881  0.0578 -0.3183
28959W        W45093  11.221  13.905   5.841  0.2986  0.3190 -0.0219
28960W        W45094  13.390  13.692   3.676  0.1367  0.2522  0.3752
28961W        W45095  15.739  10.229   5.377  0.1948  0.2322 -0.1228
28962W        W45096  13.965   5.409  10.875 -0.1149 -0.1911  0.1647
28963W        W45097   5.389   9.191  10.824  0.3580  0.1288 -0.1072
28964W        W45098  15.675  15.105   3.457  0.1335  0.0006 -0.2612
28965W        W45099   2.241   7.405  11.154 -0.2186  0.1025  0.2747
28966W        W45100   0.477   1.741  14.476 -0.3702 -0.1085 -0.0022
28967W        W45101  11.138   0.715  11.514  0.1516 -0.2171 -0.0557
28968W        W45102  18.382   5.051   1.568 -0.1236  0.0902 -0.2046
28969W        W45103   0.427  17.620  13.190 -0.1005 -0.3279  0.1797
28970W        W45104  18.038  13.235  14.634 -0.0537 -0.1567 -0.0389
28971W        W45105  12.022   4.449  10.602 -0.0962  0.0990  0.1798
28972W        W45106  17.754  10.507   3.333 -0.4340  0.2979 -0.0618
28973W        W45107  12.887  14.465   4.293 -0.0623 -0.3568 -0.0105
28974W        W45108   7.245   9.010   2.015  0.0883  0.0615 -0.0108
28975W        W45109   7.836  10.316   4.501  0.2890  0.1170 -0.1778
28976W        W45110   7.343   3.438   3.444  0.2560 -0.3035 -0.0581
28977W        W45111   9.974   6.660  11.623  0.1582  0.0766 -0.0130
28978W        W45112  10.659  15.462  12.531  0.0497  0.1365 -0.1043
28979W        W45113   4.350  11.907  11.417 -0.1107 -0.5402  0.1230
28980W        W45114   5.557   9.765  12.662 -0.0035  0.0139  0.1114
28981W        W45115  13.763   1.608   3.917 -0.3073  0.1889  0.0924
28982W        W45116   1.601  17.948  15.089  0.1964  0.2283  0.0667
28983W        W45117   3.468   3.030  13.189  0.2213  0.0588  0.2155
28984W        W45118   7.994   4.615   2.975  0.0420  0.3065  0.0130
28985W        W45119  18.228  17.947   3.656 -0.0594 -0.2409  0.0167
28986W        W45120   4.604  14.218  11.432  0.0159 -0.1382 -0.0178
28987W        W45121  15.156  16.033  13.056 -0.2038  0.1377 -0.1153
28988W        W45122   3.406   7.893  12.129 -0.1134  0.1407  0.1561
28989W        W45123  18.587  14.363   0.700  0.1986 -0.2415  0.1723
28990W        W45124  11.286  15.120   4.514  0.2133  0.0894  0.0712
28991W        W45125   0.651  15.828   1.478 -0.3338  0.1291 -0.0145
28992W        W45126   0.041   6.583   2.349  0.0969 -0.0237 -0.1712
28993W        W45127   2.808   2.062   0.168  0.0657 -0.0175  0.3947
28994W        W45128  10.719  13.749  11.634  0.0244 -0.1527 -0.2132
28995W        W45129   1.072   0.568  13.986  0.2701  0.2763 -0.2527
28996W        W45130   8.653   8.335   0.199 -0.0353  0.1314  0.0229
28997W        W45131   9.673  13.201   6.215 -0.2287  0.1431 -0.1100
28998W        W45132  17.335  12.363  13.947  0.2052 -0.3859 -0.1085
28999W        W45133  15.529  18.397   1.501 -0.1367 -0.1934 -0.0331
29000W        W45134   9.380  12.696   2.824 -0.0769  0.1740 -0.1475
29001W        W45135   6.811   9.067   4.677  0.0184  0.1248  0.0627
29002W        W45136  10.173  17.519  13.307  0.0789  0.1058  0.0016
29003W        W45137  16.503   8.136   2.889  0.4038 -0.1280  0.0261
29004W        W45138  16.821   7.237  13.391  0.2663  0.0253 -0.3143
29005W        W45139  16.504   7.950   0.241  0.3821  0.1712  0.1331
29006W        W45140   2.887  16.826  14.300 -0.0075 -0.1374  0.0461
29007W        W45141  16.776  16.128   1.549 -0.2113 -0.0980  0.0961
29008W        W45142   3.368   2.213   4.822 -0.0378 -0.0454  0.1254
29009W        W45143  13.005  11.665   1.816  0.1516 -0.2128  0.0838
29010W        W45144   6.402  10.810   2.376 -0.1777 -0.0604 -0.1366
29011W        W45145   9.353  12.506   1.828 -0.2061 -0.2754 -0.1141
29012W        W45146   7.023   6.598  14.910 -0.2371 -0.3708 -0.2578
29013W        W45147  16.801   6.550   1.479  0.0735 -0.1573  0.3374
29014W        W45148  14.857   0.984  14.471  0.3095  0.1925 -0.0046
29015W        W45149   7.662   9.169  15.063  0.0790  0.2297 -0.2758
29016W        W45150   9.337  18.911   9.824  0.0069 -0.0639 -0.0586
29017W        W45151  10.440  11.788  13.390  0.2009  0.0713 -0.0394
29018W        W45152  14.699   0.442  15.087  0.2105 -0.0629  0.3371
29019W        W45153  17.693   0.712   3.485  0.2445  0.2382 -0.1264
29020W        W45154  14.873  12.369   2.273 -0.1227  0.0591 -0.3063
29021W        W45155   1.914  14.286   3.743 -0.0783 -0.0017  0.1905
29022W        W45156  12.814   8.130   3.257 -0.1843  0.3983  0.0240
29023W        W45157   9.851  18.415  13.369  0.0810  0.1614 -0.3775
29024W        W45158  15.260  11.954  14.839  0.1243 -0.2904  0.1264
29025W        W45159   7.458  13.136   0.309 -0.1897  0.4514  0.0905
29026W        W45160   4.020   2.131   3.665  0.2056 -0.0212  0.2538
29027W        W45161  12.019  10.821   3.803 -0.2769  0.2050 -0.1469
29028W        W45162   2.086   1.018   2.735 -0.1932 -0.2693 -0.0742
29029W        W45163  16.305   3.353   5.047 -0.4060  0.0920  0.1044
29030W        W45164  11.338   9.534  11.182  0.3836  0.1200 -0.2578
29031W        W45165   7.791   1.056   4.058  0.1919 -0.2683  0.1798
29032W        W45166   9.842  16.175  12.196  0.0888  0.0008 -0.1532
29033W        W45167  16.427  16.847   0.314  0.2315 -0.0411 -0.1236
29034W        W45168   0.533  13.151  14.553 -0.0985 -0.3182 -0.1184
29035W        W45169   8.544  11.017   0.132 -0.1217  0.2336 -0.0992
29036W        W45170  15.737   9.005  12.368  0.0985  0.1025  0.1655
29037W        W45171   7.893   1.976  11.799  0.2160 -0.0411 -0.2333
29038W        W45172   7.153  13.539  11.668 -0.0649 -0.1260 -0.0477
29039W        W45173  11.174   2.830   1.503 -0.1572 -0.1352 -0.0078
29040W        W45174   6.192   4.476  14.991 -0.0772  0.0092  0.1796
29041W        W45175  16.255  15.682  11.661  0.1204  0.0184  0.1470
29042W        W45176   1.591  14.387  11.290 -0.2573 -0.3878 -0.0125
29043W        W45177   0.082  12.677  15.199  0.1112 -0.1668 -0.3354
29044W        W45178  13.913   3.156  13.026 -0.0748 -0.1486  0.5907
29045W        W45179   7.824  12.723  14.378  0.1947 -0.0703  0.2115
29046W        W45180  13.975   1.566   3.460 -0.0944  0.1649 -0.2130
29047W        W45181   8.914  12.769   1.937  0.0195  0.2605  0.2031
29048W        W45182  18.812   5.166  11.623  0.0357  0.2976  0.2108
29049W        W45183   8.934   2.192   0.516  0.3872 -0.3861 -0.1023
29050W        W45184   1.855   1.170  12.162 -0.0191 -0.0154  0.2077
29051W        W45185  16.976   9.290   1.266 -0.1534  0.3096  0.1538
29052W        W45186  17.577  16.989   5.453  0.1001  0.1187 -0.2270
29053W        W45187   7.169  11.615   3.195 -0.0304 -0.3344 -0.1559
29054W        W45188   2.737   0.094  13.457  0.1208 -0.0088  0.1310
29055W        W45189   2.011  10.372   2.677 -0.0261 -0.0294  0.1613
29056W        W45190   2.793   2.461   0.490  0.7286 -0.0692 -0.0108
29057W        W45191  15.279   8.773   2.727 -0.2487 -0.2201  0.0561
29058W        W45192  13.731  16.126   4.056 -0.0439  0.2323 -0.3349
29059W        W45193   1.815  17.059  10.603  0.3500 -0.1002  0.3847
29060W        W45194   7.980  18.467   0.958 -0.2602  0.0152 -0.3561
29061W        W45195   4.471   9.723   3.436 -0.2291  0.1753  0.0482
29062W        W45196   3.915   7.029   0.566  0.0762  0.1864 -0.0584
29063W        W45197   2.898   4.068   2.828  0.1608 -0.3239 -0.0978
29064W        W45198  12.037   6.136   4.555 -0.0930 -0.2662  0.1983
29065W        W45199   5.019  17.012  14.993 -0.0686  0.4886  0.1627
29066W        W45200   8.385  16.877  14.564  0.2619 -0.5596  0.3610
29067W        W45201  16.655  18.631  10.826 -0.1975  0.1138 -0.0036
29068W        W45202  10.359  12.683  12.909  0.2689  0.3483  0.2722
29069W        W45203  18.229   9.322   0.475  0.2773 -0.0834 -0.3469
29070W        W45204  14.632  18.091  12.881 -0.1102 -0.1570 -0.1965
29071W        W45205   6.441  15.335  13.181  0.2096  0.0934 -0.0091
29072W        W45206   0.514   6.871  10.771 -0.0132  0.3958  0.5284
29073W        W45207  13.682  16.024   0.143  0.0460  0.2631  0.1194
29074W        W45208  10.211  15.651  15.213 -0.1268  0.0459 -0.0179
29075W        W45209   9.062   7.372   3.826 -0.3174  0.3200  0.0748
29076W        W45210  16.002  16.851   2.822  0.3267  0.0582  0.1410
29077W        W45211  18.374  10.013  10.247 -0.4025 -0.4196 -0.3227
29078W        W45212   0.749  14.914   3.893 -0.0763 -0.2649  0.0135
29079W        W45213  17.769   4.012   2.176 -0.0295 -0.2656  0.2362
29080W        W45214   5.171   4.118  12.932 -0.1440  0.3739  0.0218
29081W        W45215  16.168  12.253  14.760 -0.0900 -0.1301  0.1186
29082W        W45216   0.980   9.602  11.193 -0.1442  0.0963  0.4617
29083W        W45217  17.881   0.696   3.945  0.0052 -0.0645  0.1732
29084W        W45218   8.503   7.507   2.592  0.0226  0.0147 -0.0459
29085W        W45219  18.066   3.283  11.222  0.1103  0.1871  0.0120
29086W        W45220  15.969  11.922   5.105 -0.4504  0.1421 -0.0342
29087W        W45221  10.203  17.741  12.067  0.0360 -0.1499 -0.0393
29088W        W45222  14.411   1.773  13.590  0.0624 -0.1029  0.0973
29089W        W45223  15.102   1.086   2.707  0.1743  0.0040  0.1321
29090W        W45224   6.900   6.460   3.897 -0.0692 -0.1056 -0.0569
29091W        W45225   3.549   2.911   2.275 -0.0301  0.2010 -0.1108
29092W        W45226   9.094   6.946   4.309 -0.1942  0.4084  0.0197
29093W        W45227  13.351   3.225  11.628 -0.1322 -0.0882 -0.1807
29094W        W45228   8.727   9.707   4.789  0.5904  0.1665 -0.1228
29095W        W45229   0.520  16.033   5.468 -0.0630 -0.0558 -0.0263
29096W        W45230  13.947  12.739   3.633 -0.0286  0.1231  0.3224
29097W        W45231  14.918  15.469   3.004 -0.0842  0.1555 -0.0942
29098W        W45232  16.451   9.507   0.142  0.1241 -0.0787  0.0791
29099W        W45233   1.520  15.134  12.568  0.2261 -0.2405  0.3829
29100W        W45234  12.964  18.626   0.119 -0.2357 -0.3622 -0.0082
29101W        W45235  12.849  18.561   4.979 -0.0111 -0.2031 -0.3617
29102W        W45236  13.555   1.189  13.377  0.1978 -0.1114 -0.2752
29103W        W45237  13.996  16.347  10.515  0.0625  0.1244  0.4067
29104W        W45238  14.689  12.784  10.768 -0.4680  0.1199  0.0036
29105W        W45239  14.340  14.337  10.662  0.1567 -0.0122 -0.0536
29106W        W45240   5.860   9.421  13.446 -0.4245 -0.0849 -0.1685
29107W        W45241   5.750  16.725  11.618  0.0255  0.1717 -0.0305
29108W        W45242  16.059  15.906   3.212 -0.1026 -0.2070 -0.1649
29109W        W45243  14.138  16.041   0.209  0.1807 -0.2102 -0.0873
29110W        W45244   2.342  12.064   2.829  0.2001  0.3154  0.3366
29111W        W45245   9.013   1.100   3.391  0.0263 -0.0512  0.1104
29112W        W45246  11.767   4.143  12.677 -0.0515  0.1506  0.0569
29113W        W45247  11.705   5.895   0.858  0.0214 -0.1420 -0.0140
29114W        W45248  11.270   2.589   0.375  0.1637  0.1895 -0.3291
29115W        W45249  18.686  11.257   3.624  0.0514  0.2640  0.0291
29116W        W45250   1.491   0.003  14.648 -0.2522  0.2379 -0.1087
29117W        W45251   8.005   8.003  10.844 -0.0996  0.2861  0.2084
29118W        W45252  11.513  12.561   1.884 -0.2145  0.0031 -0.0842
29119W        W45253   4.497   6.220  10.323 -0.0655  0.0834 -0.1508
29120W        W45254   0.705  17.939  15.128  0.1746  0.0656  0.0254
29121W        W45255  12.340   7.252  12.869 -0.1446  0.0397  0.0995
29122W        W45256  18.387   1.937   4.253 -0.1017  0.3090  0.0384
29123W        W45257   4.816   4.631  13.922  0.1181 -0.1989 -0.0983
29124W        W45258   6.118   4.255   5.094  0.1088 -0.1062 -0.0401
29125W        W45259  11.508   9.356   1.488 -0.2327 -0.2816  0.2058
29126W        W45260   5.410  14.409   2.668  0.1587 -0.0107 -0.0711
29127W        W45261   0.132  13.097   3.869 -0.2202 -0.0778  0.0858
29128W        W45262   6.993   8.739  14.660  0.3020 -0.1096  0.3838
29129W        W45263   5.062  16.758   0.144 -0.0377 -0.0798  0.0549
29130W        W45264   8.877   1.827  13.972  0.0031 -0.2629 -0.0747
29131W        W45265  18.429   6.445  12.609  0.0698 -0.0744  0.1368
29132W        W45266   8.559   8.881   3.755 -0.2230 -0.1195 -0.0159
29133W        W45267   7.934  13.313   0.132  0.0047  0.2793  0.1137
29134W        W45268  17.037   9.794  10.958  0.0880  0.2139  0.1202
29135W        W45269  15.292  10.532  12.171  0.0738  0.2374 -0.2540
29136W        W45270   5.882  11.526  11.362 -0.3488 -0.1616 -0.0524
29137W        W45271   1.010  15.183  12.748  0.2310 -0.0170 -0.0433
29138W        W45272   6.979   6.955  13.719  0.1476 -0.0437  0.1961
29139W        W45273   1.935  17.676   0.788 -0.4082  0.0644  0.2116
29140W        W45274   2.230  17.134  14.874  0.4297 -0.1447  0.0816
29141W        W45275  16.555   2.864  15.003  0.1484 -0.3611 -0.1585
29142W        W45276   1.410   1.265  10.547  0.0883  0.0967  0.0754
29143W        W45277  12.386   3.245  14.318 -0.2767  0.1629  0.1963
29144W        W45278   2.501  11.590   5.531 -0.0352 -0.2241  0.2760
29145W        W45279   9.138  12.605   1.335 -0.0768  0.0879  0.1860
29146W        W45280   2.897  13.413   2.076 -0.0996  0.2949 -0.1990
29147W        W45281   6.330   5.730  10.760 -0.1086 -0.1240 -0.1731
29148W        W45282  18.542  18.777  12.818 -0.1533  0.0821  0.1217
29149W        W45283   1.760   6.519  12.051 -0.2189  0.2924  0.0732
29150W        W45284  18.536   5.636   0.407  0.0167  0.0559 -0.3584
29151W        W45285   0.366   3.674  11.463  0.1562  0.2473 -0.1047
29152W        W45286  11.234   7.210   4.067  0.0387  0.4821 -0.0394
29153W        W45287  10.015  16.976  12.602 -0.3093 -0.0142  0.1209
29154W        W45288   2.204   8.513   4.105 -0.1301 -0.3501  0.1647
29155W        W45289  12.985  10.097  10.948  0.2269 -0.0200 -0.1296
29156W        W45290   1.448  16.961   4.662 -0.2525 -0.2555  0.1774
29157W        W45291   0.889   6.343   3.675  0.0453  0.0473  0.0329
29158W        W45292  16.910  11.066   1.132 -0.0828  0.0988  0.2583
29159W        W45293  18.633  10.997  13.222  0.1184 -0.2174  0.0344
29160W        W45294  18.381  10.516  13.465  0.1150  0.2059 -0.0275
29161W        W45295  14.515   6.503  13.874  0.2268 -0.1443 -0.5593
29162W        W45296   5.264  14.671   1.239  0.1068 -0.2569 -0.0972
29163W        W45297  13.909  13.577  11.680 -0.0132 -0.0992  0.0565
29164W        W45298   0.352   1.078   3.270 -0.2840  0.1715 -0.2757
29165W        W45299   8.433   5.949   2.235 -0.1494  0.0263  0.0174
29166W        W45300   6.215  15.902   2.772 -0.2257 -0.0942  0.1349
29167W        W45301   6.412  16.463   2.272 -0.2801  0.1676  0.0531
29168W        W45302  10.654  16.840   5.553  0.3096 -0.1885 -0.1063
29169W        W45303   2.462  17.769  11.738  0.1072  0.1385 -0.2198
29170W        W45304  10.107  11.037   1.018 -0.1269 -0.1993 -0.2122
29171W        W45305   4.511   5.513  11.336  0.4350  0.0666  0.0025
29172W        W45306  18.206   4.396  10.041 -0.0077 -0.1619 -0.5668
29173W        W45307  12.585  14.911   4.198  0.0998  0.1875 -0.0974
29174W        W45308  13.101  12.765  14.553 -0.0018  0.0960  0.1230
29175W        W45309   4.701  17.207  13.452 -0.0830 -0.0621 -0.0572
29176W        W45310  13.794   9.156   2.751  0.3434 -0.0498  0.0454
29177W        W45311  14.925  17.949   5.066 -0.3673  0.0296 -0.1179
29178W        W45312  16.628   2.557   0.946 -0.1527  0.1619 -0.6894
29179W        W45313   6.309   9.299  13.565 -0.0078  0.1774 -0.3978
29180W        W45314  14.638   2.767   0.225  0.0138  0.2565  0.2555
29181W        W45315   9.676   3.697  10.402 -0.2444 -0.0788  0.1079
29182W        W45316   7.463   1.895  10.956  0.0983  0.0642  0.1298
29183W        W45317   7.065   7.868   0.787  0.2367 -0.2473 -0.3663
29184W        W45318  11.558   6.258   1.257  0.0602 -0.2262  0.5213
29185W        W45319  12.800   8.740   4.113 -0.2441  0.3059  0.0787
29186W        W45320   3.478  18.730  11.164  0.1922  0.0170  0.0429
29187W        W45321  18.006  11.360  13.167 -0.1153  0.0027 -0.0353
29188W        W45322  10.497  17.881  14.324 -0.0162 -0.1438 -0.0545
29189W        W45323   4.112   0.091   5.008 -0.1011 -0.0258  0.2030
29190W        W45324  12.426   7.439  12.426 -0.2847 -0.1245 -0.0247
29191W        W45325  17.474   3.335   5.613  0.1210 -0.3978 -0.1221
29192W        W45326  17.721  14.029  12.021 -0.2357  0.0644  0.0200
29193W        W45327  15.009  11.028  12.652 -0.2850 -0.0587 -0.3271
29194W        W45328   0.706  12.570  10.243 -0.1009  0.0600  0.0009
29195W        W45329   4.837  14.405   4.451  0.2846 -0.3445  0.1812
29196W        W45330   6.778  17.991   0.367 -0.4922 -0.1180 -0.1398
29197W        W45331   6.245   7.887  11.575 -0.0506 -0.0669 -0.4857
29198W        W45332  13.865   2.404   1.360 -0.0219 -0.1829  0.0722
29199W        W45333   3.680   8.944  13.094  0.0904 -0.3664 -0.0314
29200W        W45334   5.608  10.670  14.739 -0.2850  0.0701  0.1260
29201W        W45335   8.191   0.765  12.448 -0.1485  0.0192  0.1507
29202W        W45336   0.092   6.278  11.785  0.1555  0.2828 -0.0954
29203W        W45337   6.342  13.424   1.365 -0.3981 -0.2391  0.1400
29204W        W45338   1.434   4.865   2.451 -0.2251 -0.0778 -0.1662
29205W        W45339  18.053   1.925  10.863 -0.1981 -0.2868  0.5170
29206W        W45340   6.378   0.667  10.635 -0.0506 -0.0424  0.1191
29207W        W45341  15.566   3.678  11.859  0.0222  0.0381 -0.1040
29208W        W45342   0.610  17.823  13.613  0.3178  0.0412 -0.0464
29209W        W45343   6.874  12.700   4.454 -0.0624 -0.0284  0.0649
29210W        W45344  18.160   4.167   1.386 -0.1649 -0.1247 -0.3811
29211W        W45345   7.494  11.386  15.276  0.3427 -0.0541 -0.0259
29212W        W45346  16.948   0.221   3.806 -0.0613 -0.4456 -0.2535
29213W        W45347   7.551  18.519   0.594  0.0585 -0.3494 -0.1560
29214W        W45348  12.221   9.309   2.130  0.2884 -0.2907 -0.1277
29215W        W45349  12.742  13.850  11.970 -0.0685  0.4911 -0.4437
29216W        W45350  15.616  10.151   2.569 -0.0733 -0.2845  0.1166
29217W        W45351  18.829   1.963  15.050 -0.3628  0.2775  0.0756
29218W        W45352   3.878   9.254  14.210  0.2609  0.0411  0.2102
29219W        W45353   3.334  12.880  14.875  0.0226  0.1203  0.0264
29220W        W45354  14.115   7.677  15.084 -0.0241  0.2017  0.1207
29221W        W45355   6.225   8.376   0.089 -0.0667  0.1162  0.0831
29222W        W45356   3.120  10.503   1.918 -0.2021  0.1218  0.0100
29223W        W45357  16.818   4.272  12.092  0.1510  0.0371  0.0129
29224W        W45358  12.982  18.188  14.166  0.1862 -0.2444 -0.1661
29225W        W45359   9.376  18.950   5.281 -0.3998  0.0337  0.2033
29226W        W45360  16.769  13.309   2.581  0.1034 -0.1064  0.1588
29227W        W45361  17.716  17.732   4.744  0.0367 -0.1194  0.0036
29228W        W45362   6.204   0.125   1.306  0.2673 -0.2156  0.0287
29229W        W45363  12.045  14.445  13.939 -0.0525  0.0504 -0.3110
29230W        W45364  10.939   5.938  11.477  0.1121 -0.2515 -0.1293
29231W        W45365   4.490   0.124   9.433  0.0250  0.0059 -0.1066
29232W        W45366   8.269  16.182   3.547 -0.0051  0.1596 -0.0249
29233W        W45367   0.679   1.525   3.127  0.2358 -0.1068 -0.0194
29234W        W45368  14.418  13.390  10.362 -0.2755 -0.1701  0.0291
29235W        W45369  15.029   7.605  14.361 -0.0514  0.1208 -0.0958
29236W        W45370   6.206   1.262   4.811  0.0451  0.2817  0.0321
29237W        W45371  14.476  16.174   4.246 -0.2339 -0.1260 -0.2474
29238W        W45372  17.373  15.903  12.635  0.1141  0.0057 -0.2484
29239W        W45373  15.516  11.357   0.833  0.3119 -0.1205 -0.2119
29240W        W45374   3.035   4.374   0.650 -0.0206 -0.2149  0.1574
29241W        W45375  12.459  16.252  14.410 -0.1274  0.0054  0.0831
29242W        W45376  13.933  12.374   1.562  0.1475  0.1102  0.0129
29243W        W45377   1.657  10.706   5.460 -0.2908 -0.2978 -0.1604
29244W        W45378   0.552  14.235   1.625  0.2301  0.1402 -0.1610
29245W        W45379  13.272   8.180   1.190  0.2066 -0.0563  0.2112
29246W        W45380  10.079   3.425  14.575 -0.2446 -0.0047 -0.0255
29247W        W45381   0.937   8.725  11.553 -0.1890 -0.3797  0.0467
29248W        W45382  16.382  12.361  12.690 -0.0418  0.2435 -0.0979
29249W        W45383   3.765  12.208  12.504  0.2439  0.0669 -0.0200
29250W        W45384  12.127   0.486   1.156 -0.1040  0.0723  0.0914
29251W        W45385   7.331   7.203   2.075 -0.0064  0.2821  0.1258
29252W        W45386   6.477  17.522   3.601 -0.0938 -0.1118 -0.0297
29253W        W45387   6.287   4.858  13.767  0.0213 -0.0403 -0.0815
29254W        W45388  15.377   1.122  13.881 -0.0726  0.1548 -0.2666
29255W        W45389  15.382   0.268  13.298 -0.2924 -0.2543  0.1376
29256W        W45390   8.673   3.193   4.870  0.0875 -0.1162 -0.4403
29257W        W45391  14.203   3.209  10.362 -0.0301  0.1108  0.0803
29258W        W45392   3.877   2.696  13.907  0.1097  0.2531  0.0767
29259W        W45393   1.706  16.374   1.621 -0.4027 -0.2618 -0.0373
29260W        W45394   7.911   2.636  15.072  0.1223 -0.1680  0.0852
29261W        W45395   2.276  16.772  10.791  0.0118  0.4234 -0.0844
29262W        W45396   6.801   8.737  11.968 -0.0573 -0.0056  0.1201
29263W        W45397   2.204   1.597   3.859  0.0213 -0.0165  0.1706
29264W        W45398   4.413  17.214   4.106  0.1823  0.0600  0.0338
29265W        W45399  16.590  15.200  12.837 -0.0921  0.0500 -0.2130
29266W        W45400   6.831   8.698  13.258  0.1367  0.3202 -0.0777
29267W        W45401  15.913   2.791  14.829 -0.2472  0.2050  0.3871
29268W        W45402  14.142  10.827  14.021 -0.1179  0.0243 -0.1388
29269W        W45403   0.445   3.647   4.887  0.0377  0.2311  0.2748
29270W        W45404  15.941  18.085   4.104  0.0689 -0.0027 -0.1781
29271W        W45405   1.361  13.161   4.067  0.2176 -0.2137  0.2205
29272W        W45406  10.744  14.882   1.140  0.0538  0.0019  0.0105
29273W        W45407  17.075   7.046   1.721 -0.0776  0.0789  0.1021
29274W        W45408  17.379  13.291   3.945  0.2302  0.1864 -0.0986
29275W        W45409   4.305   8.879   0.454 -0.1691  0.0502 -0.0094
29276W        W45410   2.598  13.367  13.397 -0.2819  0.1835  0.2577
29277W        W45411  17.371   4.084   2.479  0.1096  0.0331 -0.1584
29278W        W45412   2.805  10.932  13.520 -0.1889 -0.1547 -0.0104
29279W        W45413  15.810   2.886  11.015 -0.3863  0.0926 -0.1081
29280W        W45414   9.380   6.887  10.750 -0.1369 -0.0727 -0.0897
29281W        W45415  10.780   8.291   4.642 -0.0448  0.3042 -0.1827
29282W        W45416   1.673   1.046   2.978  0.2411 -0.1482 -0.2588
29283W        W45417  16.603   4.750   3.444  0.3731  0.0586 -0.1244
29284W        W45418  14.397   8.192  10.635  0.0395 -0.2431 -0.1669
29285W        W45419  14.942   5.092   3.596  0.0512 -0.1713  0.2770
29286W        W45420  18.811   6.109  14.881  0.0107 -0.3042 -0.2279
29287W        W45421  13.050   2.009   4.978  0.1438 -0.3885  0.0577
29288W        W45422  17.455   9.509   1.155 -0.1405  0.2768 -0.3420
29289W        W45423  10.694  13.844   1.892 -0.0116  0.4062 -0.0493
29290W        W45424  18.296  18.404   3.034  0.1078 -0.0068  0.0604
29291W        W45425  10.224   1.151  10.835  0.1753 -0.6049  0.1999
29292W        W45426  14.273  11.700  12.530 -0.1717 -0.1065 -0.2499
29293W        W45427   9.646   6.333   5.457  0.1314  0.2055  0.0393
29294W        W45428   6.174   4.277   0.207 -0.0296 -0.2316  0.2647
29295W        W45429  17.710   3.888   4.964  0.0069  0.0131 -0.0600
29296W        W45430  16.956  18.433  12.436  0.0258 -0.1070 -0.1016
29297W        W45431   7.996   6.261  12.711  0.0372  0.1401  0.0947
29298W        W45432   1.749  17.708  11.192 -0.1060  0.1756  0.0123
29299W        W45433  10.615  13.102  14.138  0.1092  0.2103  0.0925
29300W        W45434   2.119  15.955  11.780 -0.0224  0.0359  0.0721
29301W        W45435   0.809  17.241   1.161  0.2266  0.0848  0.2618
29302W        W45436  12.481   2.100   4.191 -0.3538  0.2520  0.2022
29303W        W45437  16.649   0.434   4.545  0.0551 -0.2026 -0.1959
29304W        W45438  11.430   9.311  14.150  0.0719 -0.2860  0.1130
29305W        W45439   9.261  11.503   1.475 -0.0978 -0.1767 -0.0565
29306W        W45440  12.035  11.701  11.787 -0.0480 -0.2633  0.1694
29307W        W45441  15.336  14.964   2.697 -0.1976 -0.1720 -0.0042
29308W        W45442  18.171  16.491   2.063 -0.0978  0.1341 -0.1829
29309W        W45443  12.975  15.779   2.503 -0.0914 -0.0287  0.2948
29310W        W45444  13.601   6.800  12.703  0.0544 -0.1671 -0.2781
29311W        W45445   7.517   9.229   1.145 -0.1953  0.4123  0.0551
29312W        W45446  12.338   4.672  13.850  0.2588  0.2695 -0.0421
29313W        W45447  14.221   7.239  12.707  0.0909  0.0655 -0.2327
29314W        W45448  12.428  12.138   2.234 -0.3844 -0.2989  0.0792
29315W        W45449   7.661  11.278   4.087  0.1450 -0.0325 -0.1610
29316W        W45450  13.213   6.867  13.044 -0.2845 -0.2939 -0.1609
29317W        W45451  14.557   1.077  11.882  0.0670  0.1540 -0.0906
29318W        W45452   0.543  14.279  13.109  0.0966  0.0426  0.3530
29319W        W45453   7.525  18.228  12.400 -0.5284 -0.2882  0.0392
29320W        W45454   2.465  17.769   4.365  0.1016  0.1472  0.3348
29321W        W45455  15.866  10.383  10.665 -0.2855 -0.0479 -0.0213
29322W        W45456   5.560   9.429   1.989  0.2488 -0.0641  0.0939
29323W        W45457  17.809  16.489   5.422  0.1292 -0.2188 -0.1014
29324W        W45458  17.605  14.106  12.748 -0.1826  0.0317  0.0926
29325W        W45459  14.641   1.374   1.053  0.1023  0.5207 -0.1199
29326W        W45460   6.995  13.370  12.094 -0.4171  0.3730  0.3493
29327W        W45461   3.878  18.880   2.749 -0.1343 -0.2382 -0.2142
29328W        W45462  12.324  14.450   3.260  0.0085 -0.1487  0.3389
29329W        W45463   4.916   6.669  12.786  0.0860 -0.1415 -0.0461
29330W        W45464   0.854  13.500  14.155 -0.2314 -0.2161 -0.0126
29331W        W45465  18.664   7.108   1.423 -0.0674  0.0268 -0.0869
29332W        W45466   2.263  17.249   9.466  0.0685  0.0115 -0.2632
29333W        W45467   9.100   0.713   3.710 -0.2728 -0.1492  0.0623
29334W        W45468   4.658   4.689  13.478  0.0494 -0.6378 -0.0449
29335W        W45469   9.692   1.137  11.818  0.1269  0.1446  0.0431
29336W        W45470  17.228   3.706  13.720 -0.1277 -0.0238 -0.1472
29337W        W45471  11.086   3.369  14.514 -0.1908 -0.1180 -0.1753
29338W        W45472  13.198  11.512   2.268  0.1731 -0.0915  0.3220
29339W        W45473   0.147   9.234   4.817 -0.2983  0.2667 -0.0778
29340W        W45474   7.265   5.510  11.514  0.0878 -0.2686  0.3533
29341W        W45475   8.908   2.007  11.749  0.4383  0.3875 -0.0835
29342W        W45476  15.529  12.118   2.546 -0.2364 -0.2415  0.2595
29343W        W45477   4.927  18.352  14.673 -0.0634 -0.0671 -0.1349
29344W        W45478   8.010  12.334   5.055 -0.0479  0.0138 -0.0427
29345W        W45479  10.995  18.363  11.127  0.2358  0.2268 -0.0485
29346W        W45480   8.788   4.616  14.998 -0.0055 -0.3199 -0.1754
29347W        W45481  12.449   2.543   2.473 -0.1813  0.1719  0.1234
29348W        W45482   8.895   6.658  15.099 -0.0602  0.0438 -0.3463
29349W        W45483  14.982  17.016   2.575  0.0665 -0.2261  0.4429
29350W        W45484   2.937   7.406   0.314 -0.0718  0.2801  0.0281
29351W        W45485  12.616   0.424   0.437  0.1841  0.0507  0.1797
29352W        W45486  11.026  16.294  14.403 -0.0054 -0.1709  0.0214
29353W        W45487  11.560   5.712   3.154  0.0798 -0.1530 -0.0947
29354W        W45488  12.980   6.545  10.942  0.2814 -0.3103  0.1557
29355W        W45489   4.382   6.397   2.687 -0.0479 -0.0603  0.2460
29356W        W45490   8.160   7.078  12.249 -0.3039 -0.0958  0.3175
29357W        W45491   8.936  13.505  11.193  0.0344 -0.2129  0.0220
29358W        W45492  17.419   4.874  10.429 -0.2321 -0.0380  0.3104
29359W        W45493   8.049  18.615  13.535 -0.1900  0.0362 -0.2063
29360W        W45494   2.159   4.965  10.263  0.0348  0.1872 -0.1617
29361W        W45495   8.190   2.440  11.920 -0.2451  0.2108 -0.3678
29362W        W45496  15.970  14.503  13.091  0.0773  0.0611  0.2712
29363W        W45497   9.490   7.792  10.571 -0.1956 -0.1367  0.2105
29364W        W45498  12.580   2.802   0.588 -0.0796  0.0267  0.1278
29365W        W45499   5.966  13.982   1.261  0.0476 -0.3127  0.0074
29366W        W45500   3.301   5.601   2.518  0.0524  0.0043 -0.1260
29367W        W45501  13.357   1.316   3.029  0.2746  0.0925 -0.1315
29368W        W45502  17.271   7.114  13.557 -0.0945 -0.1881 -0.0041
29369W        W45503   2.995   1.707   9.798  0.0856 -0.2452  0.0621
29370W        W45504  10.712  12.878  13.644 -0.2785 -0.1007  0.0430
29371W        W45505  16.587  10.712   0.173  0.0513 -0.1749  0.3088
29372W        W45506  13.315  15.769  15.234  0.2495  0.3091  0.1632
29373W        W45507   9.707   0.691   0.617 -0.1319  0.0073 -0.0029
29374W        W45508   5.463  14.040   3.435  0.1132 -0.3550 -0.1683
29375W        W45509   9.866   3.904   2.699  0.2772 -0.0396 -0.1920
29376W        W45510   2.276   5.044   1.565 -0.3296 -0.1883  0.0600
29377W        W45511   3.876   6.146  11.834  0.2647  0.1430  0.2787
29378W        W45512   2.491  11.942  12.205 -0.1522 -0.1435  0.0062
29379W        W45513   6.801   2.448   4.213  0.1505 -0.1164  0.0912
29380W        W45514   7.501   0.774  13.986 -0.1805 -0.2403  0.1176
29381W        W45515  14.141   9.420   3.203  0.3496  0.1575 -0.1588
29382W        W45516   0.525  15.283   4.804 -0.2843 -0.0455 -0.0963
29383W        W45517   9.466   2.279   1.310 -0.2681  0.2993  0.0873
29384W        W45518  12.392  17.610  13.880  0.1507  0.1858  0.1986
29385W        W45519   1.777   5.895   0.577  0.1744 -0.3693  0.0538
29386W        W45520  18.567   2.650  11.104 -0.0075 -0.0431 -0.2686
29387W        W45521  13.535   3.114   5.635 -0.0780  0.2511 -0.1097
29388W        W45522  14.988   5.466   1.639 -0.2519 -0.2104  0.2133
29389W        W45523  11.617  10.101   0.210 -0.1387  0.0861 -0.0320
29390W        W45524  11.949   0.361   4.402 -0.2363  0.1865  0.1169
29391W        W45525   5.628  14.177   3.860  0.0631 -0.1196 -0.0082
29392W        W45526   6.435   3.595  15.059 -0.0990 -0.4172  0.2139
29393W        W45527  13.939  14.027   9.381 -0.2699 -0.0108 -0.2841
29394W        W45528   9.250   7.623  13.230 -0.0606  0.4610 -0.1636
29395W        W45529   9.885   9.076   1.506 -0.1584  0.0971 -0.1769
29396W        W45530  11.934   9.809   3.722 -0.0616 -0.1380  0.1775
29397W        W45531   4.618   4.305  13.128  0.1593 -0.0843 -0.1238
29398W        W45532   9.063  18.286  12.211 -0.2285  0.2214  0.0052
29399W        W45533  17.914  14.127   4.372 -0.3892  0.2772  0.1648
29400W        W45534  11.695   0.410  10.889 -0.0266  0.3831 -0.2614
29401W        W45535  18.477  15.658   0.350  0.0930 -0.2593  0.2223
29402W        W45536  17.098   4.538  13.806  0.1875  0.0436  0.0291
29403W        W45537   8.190  10.203   1.898 -0.0680 -0.1658  0.2363
29404W        W45538   0.298   0.326  15.118 -0.0146 -0.3571  0.0694
29405W        W45539  15.235  17.157  13.281 -0.1004  0.0483 -0.2991
29406W        W45540  10.284  13.803  14.268 -0.4168 -0.2075  0.1317
29407W        W45541   4.893   6.367   1.880  0.0277  0.1944 -0.1676
29408W        W45542  16.521  16.386   0.988  0.0499 -0.2795 -0.0017
29409W        W45543  14.420  12.595   0.830 -0.1892  0.1979  0.3004
29410W        W45544   2.584  17.036   2.007  0.3697  0.3280 -0.0922
29411W        W45545  11.351  17.837  11.748  0.1451 -0.0537 -0.0071
29412W        W45546  10.546  14.965  14.673 -0.1964  0.1321  0.0876
29413W        W45547  13.459   9.851   4.549  0.2037 -0.0406  0.1900
29414W        W45548  14.912  16.151   1.184 -0.1102  0.3277  0.1269
29415W        W45549   3.097   7.300  11.579  0.1181 -0.0532  0.2334
29416W        W45550   5.058   0.947   3.431 -0.2077  0.0468 -0.2640
29417W        W45551  13.636  14.066  10.076 -0.0793 -0.1325 -0.0399
29418W        W45552  15.629   2.542  12.590 -0.0533  0.1797  0.0062
29419W        W45553  13.964  10.781  12.414  0.2226  0.2146 -0.1051
29420W        W45554  14.223   7.556   4.183 -0.4293  0.1056 -0.0798
29421W        W45555  17.211   8.881  12.343 -0.0831  0.2088  0.2596
29422W        W45556   7.870  14.567   1.654  0.3589 -0.1122 -0.0648
29423W        W45557  16.561  18.988   2.737 -0.1783 -0.0422 -0.0144
29424W        W45558   8.474   7.456   0.571  0.1954 -0.1785 -0.1341
29425W        W45559   5.235   8.588   0.207 -0.2241 -0.2597 -0.0990
29426W        W45560  17.078   8.709  14.177 -0.1335 -0.3742  0.3513
29427W        W45561   6.680   9.958   2.770 -0.3314  0.2709  0.1809
29428W        W45562  14.587  18.654   5.106 -0.0614 -0.0509 -0.2826
29429W        W45563   1.862  14.522   4.231  0.0738 -0.2828  0.1491
29430W        W45564  14.941   6.527  13.029 -0.1664  0.3405 -0.0517
29431W        W45565  10.300  10.530   1.677 -0.1700 -0.2444 -0.4150
29432W        W45566  15.732   8.472  14.732  0.0757  0.0163  0.2306
29433W        W45567  17.531   4.926  12.087  0.2071  0.2289 -0.2410
29434W        W45568  16.640   2.067  11.460  0.1670  0.0992  0.0802
29435W        W45569   5.457  15.561   0.008 -0.1328 -0.0337  0.1474
29436W        W45570  13.528   9.198  13.655 -0.1213 -0.0236  0.0014
29437W        W45571   5.446  18.218  11.047  0.0531 -0.3003  0.0082
29438W        W45572  11.320   4.023  14.884 -0.3142 -0.1408 -0.0778
29439W        W45573  11.334  11.003   0.127  0.0716 -0.0115 -0.1891
29440W        W45574   8.465  13.427   4.075 -0.1826 -0.2185 -0.0437
29441W        W45575  17.817  14.893   5.060 -0.3092 -0.0106  0.1066
29442W        W45576  13.873   3.275  10.729 -0.6856  0.0352  0.0914
29443W        W45577  15.391   9.095   6.029 -0.1867  0.1203 -0.1284
29444W        W45578  18.240   8.216   4.073 -0.2098  0.2732 -0.1523
29445W        W45579  16.515   6.326  11.009  0.0046  0.1849  0.0539
29446W        W45580  15.564  17.586   2.798 -0.0288 -0.0819  0.0002
29447W        W45581  10.684  15.801   2.520 -0.0762  0.2279 -0.3803
29448W        W45582   9.672   2.303  12.082  0.0577  0.1987 -0.0158
29449W        W45583  14.248   9.546   2.692  0.0138 -0.4599  0.3723
29450W        W45584   5.099   8.929  15.196  0.0680  0.0796  0.4049
29451W        W45585  12.720   6.685  12.122  0.2760  0.0055 -0.4164
29452W        W45586  12.110   6.391   3.193 -0.3013 -0.3010 -0.0645
29453W        W45587   2.882  14.253  13.734  0.0193 -0.0336 -0.0044
29454W        W45588  15.144   1.668  10.741 -0.0543  0.1345  0.4477
29455W        W45589  10.802   2.435   0.135  0.1693 -0.0821  0.3623
29456W        W45590   0.130   8.371  14.092 -0.0813  0.2118  0.0613
29457W        W45591  17.324   9.757  14.867 -0.3800  0.0471  0.2682
29458W        W45592   4.686   3.331  11.815 -0.0901 -0.1088  0.0981
29459W        W45593  18.717   9.809   0.998 -0.0971  0.5210  0.1053
29460W        W45594  10.773  16.086  11.019 -0.2762  0.0716 -0.2720
29461W        W45595   5.801   4.645   4.770  0.3510 -0.0320 -0.1131
29462W        W45596  18.032  18.296   0.952 -0.1688  0.2183 -0.0106
29463W        W45597   0.357   4.520  11.946  0.1873 -0.2177  0.3288
29464W        W45598  10.715  13.777   5.031  0.1848 -0.0873  0.0854
29465W        W45599  11.403   7.218  15.172 -0.2948 -0.1471  0.1835
29466W        W45600   4.076   6.728   3.793 -0.0148 -0.0511 -0.4217
29467W        W45601   2.920  14.383   0.878 -0.2294  0.0025 -0.0820
29468W        W45602  17.432   8.924   0.090 -0.1243  0.3018 -0.1331
29469W        W45603  13.674   8.828   0.674  0.1118 -0.0196 -0.3211
29470W        W45604   8.687   9.214  12.523  0.0465  0.2201 -0.1587
29471W        W45605  13.340  13.432   3.281 -0.2848  0.1246  0.1413
29472W        W45606  12.368   9.006   5.309  0.0137 -0.2634  0.2407
29473W        W45607  11.603  10.747  12.515 -0.0923 -0.0670 -0.0760
29474W        W45608   9.457   3.408  11.178 -0.1659  0.1151 -0.0000
29475W        W45609   8.744   8.858   2.805 -0.3257 -0.2899 -0.0894
29476W        W45610   6.800  14.763   4.330 -0.1888  0.0798  0.0632
29477W        W45611   7.940   9.649   0.509 -0.1861 -0.3222  0.2816
29478W        W45612   2.230  10.143  12.309  0.0780  0.2239 -0.0118
29479W        W45613  18.166  15.737  10.621  0.1033  0.1251  0.1231
29480W        W45614   4.104   8.457  11.127 -0.2202  0.1801  0.0502
29481W        W45615   7.506   5.526   0.223 -0.1812  0.2163  0.2750
29482W        W45616  17.928  18.199  12.481  0.0855  0.2060 -0.2557
29483W        W45617   8.103   7.232  11.777 -0.2362 -0.1148  0.2155
29484W        W45618   4.102  16.562  11.659  0.2136 -0.1841  0.0106
29485W        W45619   9.714   9.321  12.611  0.3392 -0.1433  0.0549
29486W        W45620   4.758   2.918   3.588 -0.3207  0.2059 -0.3952
29487W        W45621  13.605   1.932   0.127  0.1877 -0.1048 -0.1476
29488W        W45622  10.781  15.427   1.125  0.0635 -0.1259  0.1125
29489W        W45623   1.361  14.310  14.787 -0.0281 -0.0232  0.0652
29490W        W45624  18.321   6.384  14.902  0.2225 -0.1876  0.2788
29491W        W45625   9.763  13.702   4.392 -0.2303  0.3202  0.0301
29492W        W45626   9.027   1.999  14.461 -0.3511 -0.0737 -0.1323
29493W        W45627  12.907   8.421   3.671  0.0978 -0.0522  0.0165
29494W        W45628  18.652   3.972   1.256  0.2338 -0.0074  0.3483
29495W        W45629  13.764  15.821  11.953 -0.3354 -0.2193 -0.0624
29496W        W45630  10.478   0.480   3.323 -0.1750  0.1215 -0.1238
29497W        W45631   9.904  15.999  15.281  0.0959  0.1307  0.5231
29498W        W45632  18.462  17.928   0.655  0.0854  0.2030 -0.1170
29499W        W45633  17.535   2.798  13.713 -0.3484 -0.0173 -0.0587
29500W        W45634   3.192  16.549  11.042 -0.2008  0.1741  0.0057
29501W        W45635   8.935  15.814   4.748  0.1215  0.0512  0.2221
29502W        W45636   9.937   4.834  10.899  0.0554  0.1658  0.2620
29503W        W45637   2.167  16.027   5.418  0.0350 -0.2487  0.2242
29504W        W45638  17.608   1.133  10.716 -0.2278 -0.0521  0.2318
29505W        W45639   7.721  15.353   1.032  0.1465 -0.2641 -0.1440
29506W        W45640   8.745   2.410  12.044 -0.0535 -0.1346 -0.0071
29507W        W45641   8.756   1.647  11.410 -0.2208 -0.0996 -0.0506
29508W        W45642  13.413  14.905  15.208 -0.1357 -0.0884  0.0371
29509W        W45643   7.486   3.080  12.755 -0.1603  0.1080 -0.0551
29510W        W45644  15.519   3.834  10.805 -0.0985 -0.0883 -0.2132
29511W        W45645   7.463  14.603  12.039 -0.1348 -0.0362  0.1212
29512W        W45646  13.646  17.207   2.347  0.0646 -0.1509 -0.0086
29513W        W45647  12.742  11.176  11.466  0.1668  0.0545 -0.0490
29514W        W45648  16.866  11.295   1.662 -0.0022  0.3726  0.0045
29515W        W45649  12.827   5.980  10.140 -0.0069 -0.0350 -0.1654
29516W        W45650  11.567   5.334  10.976 -0.1531  0.1013  0.3456
29517W        W45651   9.662  17.490   3.506 -0.0834 -0.4911 -0.0545
29518W        W45652   8.460  13.530  14.286  0.1962  0.3324 -0.2477
29519W        W45653   7.057   8.190  13.146  0.0555  0.2137  0.1821
29520W        W45654  16.296  16.476  11.203  0.0970 -0.0045 -0.1641
29521W        W45655   1.355   5.617  14.978 -0.0666  0.1462 -0.0826
29522W        W45656   5.983  16.837  12.159  0.0193  0.0951 -0.2405
29523W        W45657   9.637  14.617   2.751  0.2640  0.0334 -0.0626
29524W        W45658  14.864   5.128  14.103 -0.2061 -0.2897  0.1819
29525W        W45659   0.793  11.314  14.773 -0.1096 -0.2291  0.0396
29526W        W45660   8.749   4.075  12.669  0.2908  0.0863 -0.0426
29527W        W45661  11.677   6.707   2.404 -0.2688  0.1382 -0.1807
29528W        W45662   2.249  15.613   0.863 -0.1039  0.2441 -0.3515
29529W        W45663   2.083   3.605   4.532  0.1341  0.0146  0.1143
29530W        W45664  12.767  15.393  14.312 -0.0747  0.2555 -0.1634
29531W        W45665  13.682  14.175   2.583  0.0190 -0.1010 -0.2462
29532W        W45666   5.088   6.119   3.386 -0.1338 -0.0482  0.2974
29533W        W45667  14.940  10.670   2.963  0.2264 -0.2954 -0.0311
29534W        W45668  10.598  12.280   4.446  0.2217  0.1828  0.2055
29535W        W45669  15.978   5.765  13.656 -0.1299 -0.0385  0.0536
29536W        W45670   2.234   8.293   5.506  0.1376  0.2915 -0.1533
29537W        W45671   8.399   0.380  14.849 -0.2071 -0.1483 -0.2078
29538W        W45672   1.416   1.892   0.742  0.0266  0.0016 -0.0703
29539W        W45673  17.843  12.557  13.877 -0.1407 -0.1063 -0.4345
29540W        W45674   0.947  17.440  13.907  0.4063  0.3502 -0.1490
29541W        W45675   2.747  10.649  14.952  0.0550  0.2198 -0.0121
29542W        W45676   2.958   2.580   9.363 -0.1867 -0.1633 -0.5287
29543W        W45677   8.117   5.289   5.051 -0.0682  0.0562 -0.0229
29544W        W45678  13.428   4.492   1.523 -0.2349  0.0791  0.0195
29545W        W45679  15.436  13.226  14.162  0.0680  0.0908  0.1023
29546W        W45680   0.480  15.201  11.867  0.0183  0.1982 -0.3062
29547W        W45681   5.121   8.508   2.164  0.1814  0.3276 -0.0177
29548W        W45682  11.436  11.190  13.951  0.0326  0.2132  0.0317
29549W        W45683  17.078   7.790   5.215 -0.0962  0.3636  0.0445
29550W        W45684   0.066   5.674   5.191 -0.0755 -0.4443  0.2284
29551W        W45685   1.950  13.480  12.853 -0.2900 -0.0296 -0.0830
29552W        W45686   6.386   5.506   2.546  0.0631  0.2219  0.0724
29553W        W45687  14.841   9.830  11.230  0.2385 -0.0201  0.0953
29554W        W45688  15.191  17.805  14.346  0.2690  0.2803 -0.0795
29555W        W45689   4.406   7.075  13.785 -0.4822  0.3187 -0.2060
29556W        W45690   0.420  13.138   3.455  0.1175 -0.1409 -0.0495
29557W        W45691  18.207   3.693   1.340 -0.0996  0.1040 -0.0892
29558W        W45692  13.808  18.792  14.037  0.0825 -0.0151 -0.2496
29559W        W45693   7.477   0.220  12.476 -0.1764  0.1248 -0.0368
29560W        W45694   4.377   4.644   2.232  0.0725 -0.0247 -0.0434
29561W        W45695  11.776   6.881   0.854  0.0313  0.1125  0.0794
29562W        W45696  16.546   6.410  13.645 -0.0400  0.0302 -0.2115
29563W        W45697   3.025  15.541  14.304 -0.2448 -0.1406 -0.0106
29564W        W45698  12.132  11.633  10.748 -0.0111 -0.0648 -0.1636
29565W        W45699  16.327   7.000   4.890 -0.1003  0.2857  0.0574
29566W        W45700   1.821   2.651   1.340  0.1610  0.0444  0.0861
29567W        W45701  10.397  10.679  11.865 -0.1986  0.1482 -0.3210
29568W        W45702  16.503   0.882  12.342 -0.1082 -0.0194  0.3718
29569W        W45703   8.976  12.220  11.429  0.3021  0.1044  0.1806
29570W        W45704   5.319  10.392  11.629 -0.0009 -0.2400  0.3497
29571W        W45705   5.958   7.075  12.808 -0.1197 -0.2382 -0.0365
29572W        W45706   8.719   5.998   3.610  0.0828 -0.4012 -0.1220
29573W        W45707  16.144  16.458   0.064 -0.1382 -0.1279 -0.0950
29574W        W45708   4.486  17.683  12.896 -0.0554  0.0542 -0.0347
29575W        W45709  10.055   4.463  11.253  0.0502  0.1288 -0.3277
29576W        W45710  17.659  11.752   1.340  0.3795 -0.1433 -0.1504
29577W        W45711   7.058   2.032  15.200  0.0214 -0.2349 -0.2171
29578W        W45712   7.031   6.144   4.851 -0.1248  0.2282 -0.0194
29579W        W45713   6.273  13.488  10.997  0.0744  0.1896 -0.0343
29580W        W45714  11.789  17.310   2.277 -0.0878 -0.1459  0.2190
29581W        W45715   1.848   4.773   0.758  0.2059 -0.3291 -0.2702
29582W        W45716   8.905  14.261   1.912  0.3305  0.1019 -0.2660
29583W        W45717   2.662   1.936  11.624 -0.0060  0.0645  0.0023
29584W        W45718  12.348  11.792  14.309 -0.1556  0.0763 -0.2064
29585W        W45719  11.596  13.879  13.312  0.0804 -0.1844 -0.1541
29586W        W45720   2.458   4.206   9.852  0.0163  0.2905  0.3106
29587W        W45721  12.986  13.362   9.293 -0.0170  0.0042  0.1314
29588W        W45722   2.170   4.395  14.650 -0.0066  0.2277  0.0377
29589W        W45723  14.471  13.260  14.674  0.2012  0.1824  0.0681
29590W        W45724  17.235   3.074  10.985 -0.1756  0.1676  0.0227
29591W        W45725  14.698   0.536   3.481 -0.1839  0.5664 -0.3082
29592W        W45726   7.984  16.101  11.681 -0.1251  0.2098  0.0527
29593W        W45727   4.707  11.767  14.496 -0.3285 -0.2108  0.1080
29594W        W45728   5.961  14.114  12.271  0.1400  0.2537  0.1202
29595W        W45729   7.002  16.180   2.811  0.1033  0.2462  0.1735
29596W        W45730   6.347   8.417  13.913  0.1180  0.0245 -0.3225
29597W        W45731  18.438  13.523  13.529 -0.0333 -0.0106 -0.2712
29598W        W45732  18.847  17.443  11.541 -0.1579  0.2065 -0.0427
29599W        W45733  14.030  17.026   2.607 -0.1899  0.0901  0.0064
29600W        W45734   1.772  18.490  12.231  0.1260 -0.0279  0.2125
29601W        W45735   8.284  18.331   2.750 -0.0619 -0.1159 -0.1859
29602W        W45736   3.926  12.142   1.728  0.3369 -0.3346 -0.0425
29603W        W45737  12.616   1.552   4.104 -0.1526 -0.2469 -0.0219
29604W        W45738   0.157  10.198  12.151  0.2461 -0.1312 -0.2052
29605W        W45739   1.325  18.038  12.261  0.1667  0.0243 -0.1356
29606W        W45740   5.311   9.218  14.149 -0.1854  0.3017 -0.1821
29607W        W45741  12.130  12.544   4.156  0.1429 -0.1821 -0.1001
29608W        W45742   5.139   5.330   1.687 -0.2838 -0.0054 -0.0533
29609W        W45743   7.630  13.754  11.576 -0.2546  0.1833  0.0723
29610W        W45744   1.621   0.140   4.414 -0.0685  0.0833  0.0957
29611W        W45745   5.532  16.291  13.780 -0.3409  0.0423 -0.1889
29612W        W45746  18.706   2.056  10.775 -0.3188  0.0904 -0.0375
29613W        W45747  13.129   5.639  11.448 -0.0242  0.0668 -0.2626
29614W        W45748   3.529  13.973  13.290  0.2086  0.2873  0.0031
29615W        W45749   2.411   5.308   3.382 -0.2407  0.0339 -0.3434
29616W        W45750  18.626   4.203  13.110  0.0662  0.3711 -0.1288
29617W        W45751   8.579   3.565  11.849 -0.1456 -0.0931 -0.1157
29618W        W45752   4.448   4.540  12.695  0.2114 -0.1123  0.2991
29619W        W45753  17.052   4.888  14.619  0.0492 -0.0772 -0.2420
29620W        W45754  17.681  11.950   3.670 -0.0861 -0.2910 -0.2527
29621W        W45755   8.625  17.890   1.035 -0.1996 -0.0538 -0.1495
29622W        W45756   6.101   2.482   2.956  0.0384  0.2507 -0.0675
29623W        W45757  12.767  15.822  15.189 -0.0266 -0.1140  0.1562
29624W        W45758   5.105   3.670  11.840  0.1155  0.0666 -0.4147
29625W        W45759  17.510  13.121  13.304  0.3767 -0.0537  0.1024
29626W        W45760  16.901   1.344  10.836  0.0022  0.0663 -0.3080
29627W        W45761   3.638   8.192  13.435  0.1751 -0.2397 -0.2223
29628W        W45762  18.706   5.488   1.764  0.1401 -0.2686 -0.0499
29629W        W45763   6.101  10.597  14.268 -0.2085  0.1469 -0.2250
29630W        W45764  14.738   9.229   1.565  0.0422 -0.0288  0.0546
29631W        W45765   6.782   4.060  13.415 -0.1067 -0.1162 -0.1628
29632W        W45766   4.586   1.087  14.604  0.2025  0.0144 -0.1352
29633W        W45767   4.845  13.254  12.314 -0.0567 -0.0817  0.0232
29634W        W45768  16.672  10.549  12.783  0.0576 -0.2527 -0.1591
29635W        W45769   4.867   8.210   4.325  0.1470  0.0384  0.3275
29636W        W45770  10.915   5.806   2.037 -0.0150 -0.0724 -0.3673
29637W        W45771   4.375   5.981   9.814  0.2537 -0.0891  0.2401
29638W        W45772  17.627   6.452   1.460 -0.1075 -0.2189  0.3569
29639W        W45773  13.341  17.068  10.161  0.1614 -0.2355  0.0115
29640W        W45774   5.325   0.229   0.789  0.0942 -0.5590  0.2201
29641W        W45775  11.234  10.890  11.490 -0.0828 -0.0427  0.0275
29642W        W45776   0.037   4.319   0.373  0.0602 -0.1223  0.3242
29643W        W45777   8.750   9.692  11.595 -0.5543  0.0546 -0.0189
29644W        W45778   3.661  12.169   2.593  0.3615 -0.0156  0.2705
29645W        W45779  14.904   1.647  11.368  0.0195 -0.2176  0.2418
29646W        W45780   5.264   5.022   3.483 -0.0452 -0.3510  0.1071
29647W        W45781   3.363  17.625  10.714  0.1335  0.1882  0.0985
29648W        W45782   7.613   6.365  11.619  0.2052  0.0569  0.1416
29649W        W45783   6.273  14.870  15.041  0.2482  0.0615  0.2755
29650W        W45784  18.704  11.816   2.309 -0.0427 -0.1785 -0.1159
29651W        W45785  14.792  11.611  11.604 -0.1147  0.0405 -0.4887
29652W        W45786  15.828   5.676  11.489  0.0060 -0.1337  0.4978
29653W        W45787  10.798   9.754  13.738 -0.1011 -0.0093 -0.2409
29654W        W45788   5.165   4.274  13.382 -0.2923  0.1062  0.0310
29655W        W45789   7.881   3.235  12.377  0.1172 -0.2561  0.2694
29656W        W45790  14.229   6.097   4.699  0.0404  0.0145  0.2682
29657W        W45791   5.672  12.436   0.615  0.0349  0.0719  0.2566
29658W        W45792   5.942   7.107   2.476  0.0529  0.1560 -0.2066
29659W        W45793   8.501  18.324   1.345  0.0336  0.0473 -0.0731
29660W        W45794  18.072  17.181   5.289 -0.0228 -0.0760  0.2609
29661W        W45795   4.826   8.763  12.813  0.2766 -0.1619 -0.0924
29662W        W45796   0.345  13.688   0.901  0.3068 -0.0368  0.0148
29663W        W45797   4.874  16.554   2.834  0.0544  0.2818  0.2014
29664W        W45798   2.474  17.797  12.462 -0.0077  0.3093  0.0144
29665W        W45799  13.611   0.186   5.091 -0.3173 -0.0650  0.5690
29666W        W45800  12.256  13.552  13.631 -0.1411 -0.0391  0.3726
29667W        W45801  15.353   2.524   3.832  0.3229 -0.1881  0.1621
29668W        W45802   5.515   6.891  10.296  0.3054 -0.2708 -0.1803
29669W        W45803   7.407  14.738  13.115 -0.1424  0.0528  0.0834
29670W        W45804  13.171   9.032  10.938  0.1752  0.0082 -0.0310
29671W        W45805  14.717  14.900   2.952  0.2665 -0.1085 -0.2003
29672W        W45806   5.381  13.092   2.800  0.1822 -0.1118  0.0662
29673W        W45807  18.483  10.036  10.717 -0.1842  0.0558 -0.0597
29674W        W45808  17.697  14.952   3.099  0.0691 -0.3102 -0.1225
29675W        W45809  14.419   5.600  12.326  0.0385 -0.0748  0.1926
29676W        W45810  15.057  13.456  13.645  0.4076 -0.1035 -0.0026
29677W        W45811  11.138   4.250  10.101 -0.0894 -0.1429  0.0789
29678W        W45812  13.805  11.037   3.749 -0.3970  0.0440  0.1096
29679W        W45813  12.837  10.936   0.027  0.1091 -0.2984  0.0590
29680W        W45814   7.350   0.944  14.421  0.0642 -0.2015  0.2052
29681W        W45815  14.658   9.702   1.297 -0.0769  0.0462  0.1455
29682W        W45816  18.995   2.489  14.339 -0.3163 -0.0362 -0.0948
29683W        W45817   9.770   4.785   4.550  0.0470 -0.0818 -0.0101
29684W        W45818   8.451   3.569   4.677  0.0758 -0.3011  0.0142
29685W        W45819  16.110   3.167  13.085  0.2676  0.0488  0.1849
29686W        W45820   3.751   0.359   4.060 -0.1300 -0.0987 -0.1356
29687W        W45821   1.395  16.943   2.230  0.3238 -0.0492 -0.1761
29688W        W45822  13.327   2.190  10.894 -0.2246  0.6017  0.1591
29689W        W45823   0.465   6.243   2.165  0.3875 -0.3100 -0.0323
29690W        W45824  14.710  12.081  11.209  0.0336  0.1605  0.2498
29691W        W45825  15.584  11.003   5.878 -0.1757 -0.0875  0.0308
29692W        W45826  14.063  17.941  11.523  0.1831 -0.0296  0.1439
29693W        W45827  10.602   5.162  13.480  0.0431  0.2611 -0.0673
29694W        W45828  11.692  12.754   1.459  0.3631  0.0055 -0.0124
29695W        W45829   2.478  18.634   3.281 -0.0447  0.1577  0.1532
29696W        W45830   3.793  16.439   1.516 -0.5640  0.1008  0.1596
29697W        W45831   2.926  12.292   5.084 -0.1406  0.2000 -0.1189
29698W        W45832  17.049  16.693  12.953  0.0197 -0.1275 -0.1658
29699W        W45833   4.997   2.568   2.607 -0.2945 -0.1859  0.0837
29700W        W45834   7.829   1.011  11.870 -0.0047 -0.1668 -0.0359
29701W        W45835   2.306   2.846   2.015  0.1503  0.0559 -0.1616
29702W        W45836  15.681   1.825  12.458 -0.2869  0.0259  0.0513
29703W        W45837   5.239   4.718   0.255  0.0464 -0.1515 -0.0994
29704W        W45838   5.353   5.642  14.389  0.2319 -0.0172  0.2875
29705W        W45839  17.874  16.648   2.846 -0.3107  0.1018 -0.2259
29706W        W45840  12.673   8.918   3.581 -0.1391 -0.0869 -0.1432
29707W        W45841   0.486  15.450   6.612  0.2978 -0.1263  0.1935
29708W        W45842   5.647  12.655  13.788 -0.0604  0.2502 -0.0953
29709W        W45843  14.866  11.229   4.186 -0.0234  0.1449  0.1125
29710W        W45844   3.052  15.984   1.679  0.1552  0.1849 -0.0918
29711W        W45845   8.179   0.635  14.442  0.2388  0.3294  0.0555
29712W        W45846  12.912  15.658   1.522 -0.0531  0.0834  0.0214
29713W        W45847  18.561   4.737  13.266 -0.2128 -0.0665  0.1536
29714W        W45848  11.746   2.796  12.030 -0.0672  0.0695 -0.0747
29715W        W45849  12.315  14.656  14.792  0.3485  0.0605  0.0018
29716W        W45850   3.974   4.718  10.526  0.1192 -0.1151 -0.1017
29717W        W45851   7.021  11.740  12.550  0.0912 -0.2052  0.2122
29718W        W45852  16.811   2.268   0.481  0.0165  0.1094 -0.1133
29719W        W45853  14.558   3.905   3.017  0.3729 -0.3226  0.2918
29720W        W45854   6.019  10.989   3.111  0.1583 -0.3541  0.1424
29721W        W45855  14.717  11.328  12.385  0.2039 -0.0987  0.1409
29722W        W45856   9.888   4.396   2.458  0.2044  0.3911 -0.2982
29723W        W45857   3.628  10.038   3.598  0.0439 -0.2048  0.1974
29724W        W45858   0.429   1.225   1.484 -0.2489 -0.1027  0.1418
29725W        W45859   8.185   2.818   1.030 -0.1149 -0.2405  0.0060
29726W        W45860   6.421   0.564   9.461 -0.1254  0.0955  0.0222
29727W        W45861  18.496  11.516  13.187  0.1053 -0.0369 -0.1481
29728W        W45862   3.124   6.520   0.351 -0.1266  0.2939 -0.1327
29729W        W45863  13.865  12.974   3.170 -0.0046  0.4971 -0.1367
29730W        W45864   6.793  16.889  13.372 -0.3652 -0.1624  0.0876
29731W        W45865  13.398  18.034  15.260 -0.1080  0.3813  0.0764
29732W        W45866  13.076  17.839   4.552  0.0118 -0.1200  0.0607
29733W        W45867   8.937   1.344   1.514 -0.1379 -0.1035  0.1329
29734W        W45868  13.983   9.522  11.167 -0.1344  0.0053 -0.2178
29735W        W45869  18.875  10.693  11.238 -0.1860 -0.2072 -0.0161
29736W        W45870  17.312  11.786  13.222 -0.1737 -0.2349 -0.3154
29737W        W45871   0.080  11.445   0.973 -0.0675 -0.1306  0.0832
29738W        W45872   6.617  17.815  12.067  0.2344 -0.0923 -0.1066
29739W        W45873  12.837   4.894   2.354  0.0895 -0.0407 -0.3009
29740W        W45874  14.049  14.332   2.944 -0.2316  0.2813 -0.0038
29741W        W45875   1.652   3.610   2.394  0.2573 -0.2379  0.2945
29742W        W45876  12.293   8.193  12.829 -0.1301 -0.1270  0.2561
29743W        W45877   7.871   2.108   4.850  0.0138  0.2764  0.1183
29744W        W45878   2.818   8.381   4.957  0.0608  0.0987  0.2653
29745W        W45879   1.898  17.535   3.229 -0.0102 -0.0332  0.0856
29746W        W45880  11.017   4.212   4.142  0.2176  0.0893  0.1181
29747W        W45881   5.001   9.145  13.779  0.1286  0.0915  0.0133
29748W        W45882  17.525  10.532   5.200  0.0432 -0.0635  0.0029
29749W        W45883   3.558   5.981  11.469  0.2466 -0.0864 -0.0034
29750W        W45884   3.420   6.918   3.509  0.1752 -0.3427 -0.3038
29751W        W45885   5.993   0.508   0.099 -0.0203  0.2680 -0.0588
29752W        W45886   8.367   5.047   2.972 -0.0508  0.2149 -0.1694
29753W        W45887   3.860  16.286  10.645  0.3208  0.2626  0.0909
29754W        W45888   7.121   3.709  10.360 -0.0651 -0.3237  0.0381
29755W        W45889  15.834   2.104   1.009 -0.2865 -0.1718 -0.2360
29756W        W45890  12.172  16.348  11.432 -0.1201 -0.0318 -0.3005
29757W        W45891   5.046  16.893   5.466 -0.1964 -0.0468 -0.3040
29758W        W45892   2.771   3.576   1.728 -0.1769 -0.1446 -0.0796
29759W        W45893   7.180  17.620  13.969 -0.5246 -0.1413  0.0084
29760W        W45894  16.594  12.694  14.133 -0.0804  0.2576  0.1300
29761W        W45895  15.443  16.833   2.560 -0.0810  0.2115  0.2052
29762W        W45896   0.782  11.697   2.353  0.0990  0.0058  0.2803
29763W        W45897  10.193   7.251  10.704 -0.4235 -0.2122 -0.0497
29764W        W45898  13.695   3.004  13.418 -0.2439  0.0394 -0.1553
29765W        W45899   1.161  12.026   4.260  0.3332 -0.1586 -0.2007
29766W        W45900  15.931  12.441  15.169 -0.0306 -0.2673  0.1191
29767W        W45901   0.052  14.756   2.797  0.2723 -0.1478  0.3285
29768W        W45902   0.045   0.407   3.588  0.0044 -0.0198  0.1854
29769W        W45903  10.899  10.316  13.756 -0.2732 -0.2520  0.2081
29770W        W45904   3.505  17.275   4.935 -0.0913  0.0458 -0.1291
29771W        W45905  16.314   8.467  10.358 -0.0627 -0.1594 -0.1476
29772W        W45906  10.250  12.398  15.033 -0.0733  0.0002 -0.0398
29773W        W45907   0.993  15.948  11.960  0.0161 -0.3434  0.2097
29774W        W45908  10.693   4.063   2.298  0.4125 -0.1431  0.1409
29775W        W45909  16.826  15.586  14.343 -0.0552  0.1634  0.2317
29776W        W45910   6.600  18.387   0.730 -0.2222  0.2769  0.1676
29777W        W45911   7.017   3.575   9.914 -0.1051  0.2247 -0.1379
29778W        W45912   0.012  17.130   5.711  0.3408 -0.2897  0.0447
29779W        W45913   5.170  13.319   0.937  0.2102 -0.1232  0.2573
29780W        W45914   8.676  18.501   5.655  0.1377  0.1879 -0.0548
29781W        W45915   2.470   0.087   3.509  0.1371 -0.2154  0.0410
29782W        W45916  14.313   0.086   1.170 -0.3190 -0.1228 -0.1445
29783W        W45917  14.778   8.167   1.621  0.0123 -0.1272 -0.0470
29784W        W45918  10.163   8.331  14.678  0.2820  0.1825  0.1902
29785W        W45919   4.618   6.174   4.364  0.1416  0.4314 -0.1200
29786W        W45920  11.652  12.628  13.304 -0.4593  0.0693 -0.0116
29787W        W45921   3.612  18.163   4.972 -0.4907 -0.1636 -0.1635
29788W        W45922   7.073   9.481  12.335 -0.0799  0.0556  0.0562
29789W        W45923   7.766   6.185  10.248  0.0681 -0.0743  0.1203
29790W        W45924   7.427   1.714  14.216  0.0867  0.1934 -0.3846
29791W        W45925  15.159   8.487  12.696 -0.2115  0.3685  0.2115
29792W        W45926  12.370  13.540   3.278  0.1233 -0.0232  0.0152
29793W        W45927   6.037   9.304  14.934 -0.3258  0.0375  0.0776
29794W        W45928   9.323  10.141   2.129 -0.3462 -0.1804 -0.0287
29795W        W45929   4.217  14.632   2.076  0.0915 -0.0927  0.0604
29796W        W45930   8.113   9.296   3.134 -0.0607  0.0195 -0.2712
29797W        W45931   6.466   2.784  10.558  0.0112  0.3744 -0.0848
29798W        W45932   4.819  18.869   2.904 -0.1152  0.0167  0.1382
29799W        W45933   9.337   4.100   0.073  0.1101  0.1476 -0.0606
29800W        W45934  14.582   0.107   2.636  0.2034  0.1299  0.0037
29801W        W45935  10.778  11.228   9.951 -0.1992  0.1132 -0.0805
29802W        W45936  13.084   8.440  13.313  0.2357 -0.0051 -0.0736
29803W        W45937  13.539  15.607  12.375  0.0827 -0.1669  0.0648
29804W        W45938   2.434   9.035   0.407  0.0492 -0.2962  0.1086
29805W        W45939   1.742  11.260   4.320 -0.1009  0.0378 -0.1167
29806W        W45940  12.743   5.602  11.077 -0.0078  0.2619 -0.0660
29807W        W45941  17.621   5.409  12.226  0.3824  0.0871 -0.0421
29808W        W45942  17.738   5.035  13.342 -0.1540 -0.0260 -0.0322
29809W        W45943   6.515  16.955   2.174  0.0796 -0.1937  0.1177
29810W        W45944  11.881  14.944   4.993  0.0466  0.1929  0.4980
29811W        W45945  16.162  18.914  12.202  0.0379  0.1434  0.1176
29812W        W45946  15.380   1.686   0.274 -0.0976  0.2701 -0.1419
29813W        W45947   7.794   4.254   4.304  0.2960 -0.1269  0.5157
29814W        W45948  14.674  18.810   3.907 -0.1192  0.1230 -0.0103
29815W        W45949   0.359  15.236  13.247  0.0411 -0.1335 -0.1029
29816W        W45950   5.394   5.524   4.053 -0.0251  0.0537 -0.2654
29817W        W45951   9.193   3.031   4.571 -0.2215  0.0784  0.2419
29818W        W45952   1.551  18.972  11.127  0.2042 -0.1202  0.0326
29819W        W45953  12.765   5.944  13.368  0.1900 -0.0749 -0.1262
29820W        W45954  11.949   9.171  11.815 -0.1033  0.0064 -0.1276
29821W        W45955   9.126  13.951  12.822 -0.2200 -0.1286 -0.0012
29822W        W45956  12.875   2.860   2.494  0.1101  0.0931 -0.1011
29823W        W45957   9.995   2.234   5.346  0.0005 -0.2816  0.0441
29824W        W45958   7.268   7.321  11.810  0.2040 -0.1694  0.1139
29825W        W45959  14.837  18.165   3.192  0.0949  0.1083 -0.1655
29826W        W45960   8.803   0.011  11.029  0.0649 -0.1699 -0.0543
29827W        W45961  10.133   8.119  11.159  0.0627  0.3085  0.0853
29828W        W45962  16.616   7.201   2.154 -0.0836 -0.0128  0.4100
29829W        W45963   6.393   9.101   2.346 -0.2044  0.1466 -0.2729
29830W        W45964   3.294  13.287  12.137 -0.0203  0.3057 -0.2134
29831W        W45965   4.429   4.508   3.135  0.3675  0.0578  0.1776
29832W        W45966  12.604  14.513  14.227  0.0602  0.1543 -0.2682
29833W        W45967  12.955  16.840   4.259 -0.0124 -0.0213  0.1199
29834W        W45968  18.395   8.975   1.610  0.0142  0.0054  0.0680
29835W        W45969  14.972   2.047   3.215 -0.0595 -0.0483  0.0216
29836W        W45970  17.312   9.388  12.206  0.2440 -0.0431  0.0752
29837W        W45971   6.296   9.189   4.420 -0.3496 -0.2443  0.1724
29838W        W45972   3.419  10.165   2.840 -0.1953 -0.2386 -0.0865
29839W        W45973   7.991  14.288   2.477  0.0870 -0.1303 -0.1325
29840W        W45974  18.026   1.121  12.177  0.0826 -0.0188 -0.3509
29841W        W45975   4.568  16.525   1.035  0.0216  0.3845  0.3751
29842W        W45976  11.293   0.985   1.123  0.0130 -0.2675 -0.0470
29843W        W45977   2.877   4.647  12.642  0.1149  0.0469  0.0677
29844W        W45978   4.410   4.146   3.477 -0.1972  0.0054 -0.0760
29845W        W45979   8.793   7.849   0.576 -0.1796 -0.2903 -0.1763
29846W        W45980   2.815   1.456   1.786 -0.0579  0.1121  0.0270
29847W        W45981  15.861  17.499  11.240  0.0786 -0.2347  0.2344
29848W        W45982  12.393  14.080  11.624  0.3680  0.0510  0.1253
29849W        W45983   0.736  10.859  13.361  0.0736 -0.1686 -0.1661
29850W        W45984   1.115  16.616   1.310  0.1275  0.1880  0.0099
29851W        W45985   4.350   6.124   5.519 -0.3685  0.0860  0.1838
29852W        W45986   6.901  11.596   2.326 -0.0601  0.0023  0.1190
29853W        W45987  13.495   9.620  11.931  0.0275 -0.0836  0.1704
29854W        W45988  13.307   5.040  10.372 -0.0897 -0.3387 -0.0161
29855W        W45989  14.621   2.277  12.481  0.0475  0.2961  0.0634
29856W        W45990  12.497   7.290  10.023  0.0654  0.1708 -0.1166
29857W        W45991   1.783   4.448   0.360  0.1885 -0.2103 -0.1769
29858W        W45992  18.500  14.928   4.928 -0.2968  0.0767 -0.1998
29859W        W45993   2.935   9.323   4.063  0.0631  0.0213 -0.0166
29860W        W45994   4.514  11.344  13.717  0.0722  0.0155  0.1268
29861W        W45995  15.269   5.391  10.330 -0.1582  0.0068 -0.0354
29862W        W45996   4.859   6.894  15.067  0.0110  0.2381  0.0955
29863W        W45997  18.427  16.987   3.425  0.0014 -0.0653 -0.0315
29864W        W45998  13.294   2.536   2.789 -0.2010  0.0065 -0.0752
29865W        W45999   1.810  11.846   2.736  0.4212  0.0462  0.0965
29866W        W46000   3.934  13.902   0.398 -0.2520  0.1006  0.2627
29867W        W46001   6.084  17.865  12.041 -0.0146 -0.0412 -0.1060
29868W        W46002  14.199   8.106  11.100 -0.0510  0.1049 -0.2672
29869W        W46003   5.184   9.117  14.701 -0.0055  0.1292 -0.1609
29870W        W46004   3.533  18.801  15.153  0.0843  0.1653  0.2646
29871W        W46005  17.190   3.646  12.499  0.1328 -0.0448 -0.2353
29872W        W46006   1.072   8.493  12.913 -0.2935  0.0465  0.1845
29873W        W46007   2.278  10.506  15.090  0.1988 -0.0201  0.1642
29874W        W46008   2.907   0.801  11.060  0.1289  0.0192 -0.0084
29875W        W46009   6.763  14.608  11.019 -0.0949 -0.0855  0.0284
29876W        W46010  14.469   6.418  13.052  0.2082  0.0384 -0.1167
29877W        W46011  15.073   9.570   2.198 -0.2183 -0.0654  0.0328
29878W        W46012   8.017  10.985  12.470 -0.2030 -0.0921 -0.0587
29879W        W46013  15.365   8.612   2.147  0.1589 -0.2650  0.5375
29880W        W46014  17.652   2.383  15.080 -0.2807 -0.1095  0.1286
29881W        W46015  16.789   8.255   0.437 -0.1054  0.1646 -0.1030
29882W        W46016  10.617   4.093   0.608 -0.1109 -0.4379  0.1741
29883W        W46017  17.285   2.181   0.076 -0.0927  0.3731  0.1817
29884W        W46018  18.054   2.760  13.865  0.3627  0.2229  0.3243
29885W        W46019  12.419   7.664  13.732  0.0376 -0.1583  0.0255
29886W        W46020  17.006  13.404   0.196 -0.0204  0.1608  0.0001
29887W        W46021   1.753   7.481   5.328  0.2172 -0.0668 -0.3296
29888W        W46022   2.632   6.827   2.497 -0.1507 -0.2759 -0.2275
29889W        W46023  10.904   4.418  13.231 -0.0713  0.1864  0.3315
29890W        W46024   3.368  11.871  12.409 -0.1200 -0.1715  0.3322
29891W        W46025   5.020   2.367  12.751 -0.0223  0.1008  0.0238
29892W        W46026   0.545  11.484  12.579  0.3368  0.2193  0.2851
29893W        W46027  15.039  17.637   4.134 -0.1032  0.0831 -0.1444
29894W        W46028   7.638   2.099   2.589  0.0305  0.1171  0.1481
29895W        W46029   9.550  12.341   4.328  0.4206 -0.2822 -0.1210
29896W        W46030   5.050   1.317   3.062  0.1212  0.3489  0.5295
29897W        W46031   9.542  18.388   0.046 -0.0265  0.3841  0.2363
29898W        W46032  18.166   3.433   0.195 -0.3162 -0.1624  0.2747
29899W        W46033   5.476   0.255  12.891  0.1614  0.0308 -0.0859
29900W        W46034  13.426   4.302  14.919  0.2483  0.1487 -0.1696
29901W        W46035   7.277  17.244  12.424 -0.2086 -0.0816  0.0444
29902W        W46036   3.038  13.642   1.490  0.1010 -0.1785 -0.1366
29903W        W46037   6.514   1.836   3.640  0.1632 -0.0794 -0.0806
29904W        W46038   1.495  13.834  14.652  0.0850 -0.0108  0.0472
29905W        W46039  14.876   0.475  12.336 -0.0460  0.2011  0.0268
29906W        W46040   3.586  16.650   0.064  0.0999  0.1452 -0.1444
29907W        W46041   3.299  18.098  12.119  0.0385 -0.0621 -0.0959
29908W        W46042   3.908   0.498   3.588  0.0055 -0.0708  0.0214
29909W        W46043  17.299   4.818   5.548  0.3728  0.0708 -0.0927
29910W        W46044  15.106  12.155   3.773 -0.4170  0.0020 -0.0059
29911W        W46045  13.138   8.336   2.904 -0.0011 -0.0326 -0.0768
29912W        W46046  14.930   6.774   3.283  0.2949 -0.3767 -0.0076
29913W        W46047  11.970   4.029   1.343 -0.3181 -0.1326  0.0918
29914W        W46048   7.563   7.618   1.628 -0.1839  0.1252 -0.1504
29915W        W46049   8.027  14.648  10.505 -0.4836  0.2545 -0.2654
29916W        W46050   9.879  13.608   5.239 -0.1915  0.1954  0.0628
29917W        W46051   6.341   0.103  11.405  0.3143  0.1953 -0.0173
29918W        W46052   6.849   2.532   3.577 -0.0919  0.1478 -0.0985
29919W        W46053  15.252   6.095  14.853 -0.2759  0.0803  0.0247
29920W        W46054   0.878   9.807  10.729  0.2798  0.1479  0.2993
29921W        W46055  14.976  13.483  14.804 -0.0769 -0.0976  0.0483
29922W        W46056  12.482  13.978   0.655 -0.1100  0.1098  0.1665
29923W        W46057   1.390   9.892   4.378  0.1079 -0.3550  0.2142
29924W        W46058   8.385   3.142  14.335  0.2604  0.0084  0.0203
29925W        W46059   5.808   5.668  12.213 -0.1052  0.0667 -0.1042
29926W        W46060  18.619   4.689  13.792 -0.1336  0.1727  0.1856
29927W        W46061   1.591   1.802   0.208 -0.0994 -0.0217 -0.2150
29928W        W46062   6.700  14.399   4.021 -0.1289 -0.1524 -0.0701
29929W        W46063  16.668   0.983  14.563 -0.0085 -0.0085 -0.3252
29930W        W46064  12.605   5.138  12.329 -0.1945 -0.3255 -0.1820
29931W        W46065   0.297  10.903  14.414 -0.0181 -0.1110  0.0448
29932W        W46066  11.927  10.188  10.746 -0.0089  0.0719  0.3728
29933W        W46067  12.861   4.919  11.796  0.1142  0.1157  0.0314
29934W        W46068  10.301  18.853  10.682 -0.1133 -0.2050 -0.2657
29935W        W46069  10.137   0.771  14.358  0.2877  0.0105 -0.2836
29936W        W46070   4.586   3.471  11.326  0.1781 -0.0255  0.2576
29937W        W46071   6.175   6.891   3.149 -0.2688  0.0793  0.1184
29938W        W46072   4.205   8.398  12.057 -0.0447  0.1056  0.3990
29939W        W46073   4.905  16.833  13.102  0.0814 -0.0792 -0.0190
29940W        W46074  18.430  15.982   1.576  0.0990 -0.0195 -0.0378
29941W        W46075   8.605   0.875   5.844  0.2675  0.1321  0.0101
29942W        W46076  12.035   0.626  12.572  0.0143 -0.1780 -0.1441
29943W        W46077   0.547  11.358  13.641 -0.2283  0.1757 -0.0290
29944W        W46078   1.813  17.673  14.146 -0.0631 -0.2536  0.0657
29945W        W46079   7.550   8.341  10.133  0.2446 -0.2997 -0.3015
29946W        W46080   9.784  15.476  11.616  0.1578 -0.0096  0.0590
29947W        W46081  10.069   1.726  15.229 -0.2974  0.0322  0.1513
29948W        W46082  16.555  14.647  13.941 -0.1493 -0.1284 -0.0743
29949W        W46083   4.135   6.758   2.426 -0.2740  0.2118 -0.0397
29950W        W46084  11.879   8.427   1.723  0.2041  0.1484 -0.0105
29951W        W46085  12.173   9.569   4.105  0.0505 -0.2904 -0.1674
29952W        W46086  15.310   4.427  14.717  0.2152  0.1437  0.3411
29953W        W46087  13.013  14.333  12.280  0.0330  0.1798  0.1190
29954W        W46088  18.346   0.850   3.914 -0.1932 -0.1007  0.1210
29955W        W46089  11.450  14.782   3.567 -0.1951  0.2310 -0.1785
29956W        W46090   5.626   1.999   0.076 -0.0897  0.1819 -0.1536
29957W        W46091   1.037   6.779  13.325  0.0866  0.0646 -0.1471
29958W        W46092  11.140   2.894  14.449  0.2063  0.0778  0.1515
29959W        W46093   0.830   2.812  12.534 -0.0168  0.0013  0.0229
29960W        W46094  12.831  15.034   3.718 -0.0116 -0.0059 -0.3006
29961W        W46095  11.690  16.473  11.323  0.0629  0.1172  0.1283
29962W        W46096  13.532   5.140   0.295  0.1988  0.0280 -0.0912
29963W        W46097   3.062   9.952  12.519  0.2459 -0.0241 -0.2888
29964W        W46098  14.594  16.098  14.528 -0.0593 -0.0468 -0.6927
29965W        W46099   3.082   1.886   2.003  0.0018 -0.1188  0.0332
29966W        W46100   8.104   4.353   2.104 -0.0502  0.1059 -0.1226
29967W        W46101  13.288  12.266   0.326  0.2552 -0.2911  0.0631
29968W        W46102  12.650  10.040  15.085 -0.0836 -0.1515 -0.2410
29969W        W46103   1.696  10.699   4.196 -0.1307 -0.0551 -0.1215
29970W        W46104   5.713   5.734  11.745 -0.1067 -0.0185 -0.1213
29971W        W46105   4.490   7.855   5.791  0.2607  0.1935 -0.2379
29972W        W46106  15.757  10.424   3.621  0.0406  0.1646 -0.0182
29973W        W46107   1.713   6.183   1.824  0.1760  0.0438 -0.0425
29974W        W46108   0.091  12.429  14.761  0.0247 -0.2396 -0.0123
29975W        W46109   6.360   8.976  11.744  0.0702 -0.1192  0.0956
29976W        W46110  14.477   2.406  10.783 -0.2016  0.0353 -0.1932
29977W        W46111   2.849   7.077  12.924 -0.1877 -0.0359 -0.2448
29978W        W46112  13.683   3.554   4.805  0.0538  0.2244  0.1553
29979W        W46113   9.740   1.385  12.347 -0.0318  0.1593  0.2098
29980W        W46114   1.849   2.174  11.021 -0.1831 -0.0001  0.1181
29981W        W46115  14.012  13.151   1.301 -0.1030  0.1297 -0.2963
29982W        W46116   6.082   2.543   3.500  0.0007  0.1071  0.0787
29983W        W46117  11.669   1.854   2.894 -0.2317  0.1958  0.0092
29984W        W46118   2.641  11.305  11.116  0.2351  0.1087 -0.1444
29985W        W46119   1.124  13.854   2.848 -0.1281 -0.0409 -0.1562
29986W        W46120   7.590  10.315  14.105 -0.2153  0.1555 -0.0580
29987W        W46121  15.825  13.263   2.526 -0.4254 -0.2256 -0.0826
29988W        W46122   4.321   1.095  10.706 -0.0225 -0.0139 -0.0601
29989W        W46123  17.969  12.286   2.062  0.1822 -0.0600  0.1099
29990W        W46124  15.745  16.865  10.625 -0.1296  0.1847  0.1013
29991W        W46125   7.787  15.054   1.600 -0.1525  0.2316 -0.2999
29992W        W46126   1.222  12.767   3.070 -0.0694 -0.4775  0.1986
29993W        W46127  16.166   5.987  11.180 -0.1577 -0.1050 -0.1432
29994W        W46128  13.105   4.324   2.738 -0.0869  0.2777  0.0907
29995W        W46129  13.817  12.419   2.377 -0.0201  0.5825 -0.0288
29996W        W46130   7.739   6.505  13.155 -0.2134  0.1659 -0.0538
29997W        W46131   5.208   7.893  11.059  0.0043  0.2193  0.1871
29998W        W46132  11.770   7.839   4.441 -0.0890  0.2592  0.0991
29999W        W46133   2.296   1.821  11.257  0.3467  0.3272 -0.0662
30000W        W46134  13.420  14.671  12.210 -0.2475 -0.1820 -0.1622
30001W        W46135  12.174   9.164  13.318  0.1046 -0.1913 -0.1242
30002W        W46136   7.426  13.183   2.775  0.1693 -0.2434  0.0325
30003W        W46137  10.248   6.496   3.759  0.0136 -0.0557 -0.0378
30004W        W46138   9.809  16.052  11.682 -0.1024  0.2303 -0.2103
30005W        W46139   0.548  11.235   1.076 -0.2495  0.0186 -0.1992
30006W        W46140   8.028  12.903   4.130  0.1453 -0.0489 -0.1729
30007W        W46141  10.489   8.085  12.400 -0.1293  0.1328 -0.0901
30008W        W46142   1.544   8.128   1.856 -0.0210 -0.1822  0.1362
30009W        W46143   1.236   5.037   3.430  0.2799 -0.2429 -0.3212
30010W        W46144  16.048  17.309   5.029 -0.0051  0.0155  0.0832
30011W        W46145   3.229  10.970  12.130 -0.3575 -0.1159 -0.0572
30012W        W46146   2.570  15.289   0.075 -0.1963  0.1434  0.0553
30013W        W46147  13.621  18.145  11.496 -0.3822 -0.4483  0.1032
30014W        W46148  16.903  17.046   9.865 -0.1210  0.2704 -0.0312
30015W        W46149  13.646   4.939   1.376  0.2048  0.0231  0.0794
30016W        W46150   7.026   0.449  14.589  0.0247  0.1057  0.0853
30017W        W46151   5.887   4.380   1.235 -0.0298  0.1128 -0.3013
30018W        W46152  11.694   5.053  11.445 -0.3115  0.1686 -0.1228
30019W        W46153   3.562  11.279  12.346 -0.1311  0.0242  0.0631
30020W        W46154   3.995  13.617  15.269  0.0840  0.0145 -0.1288
30021W        W46155  11.976   8.183  11.389 -0.1367 -0.0191  0.0741
30022W        W46156   3.903  11.098   5.208 -0.2039  0.0305  0.0063
30023W        W46157  16.327  12.140   4.127 -0.0023 -0.1396 -0.1417
30024W        W46158  13.197  11.079   1.770 -0.1743 -0.3576  0.0188
30025W        W46159  10.213  12.718   4.264 -0.1079  0.1403  0.3616
30026W        W46160  16.759  11.954   3.199 -0.1855  0.1808  0.2020
30027W        W46161   7.869   3.349   3.217  0.1502 -0.0668  0.1006
30028W        W46162  16.456   3.255  13.550  0.2685 -0.0523  0.1076
30029W        W46163  11.690  12.119  11.935 -0.0463 -0.1299  0.3924
30030W        W46164  10.238  11.840   4.701  0.1823 -0.1242 -0.4134
30031W        W46165  11.623   7.946  10.031  0.0561  0.4288  0.5010
30032W        W46166  12.758   4.317  14.621 -0.0395  0.1632  0.0024
30033W        W46167   8.092  17.006   5.000 -0.1598 -0.2137  0.0202
30034W        W46168   7.882   7.792   1.311 -0.0488  0.1816 -0.0474
30035W        W46169  10.612   3.536  14.665 -0.1090  0.2482 -0.1694
30036W        W46170   5.405   7.245  12.331 -0.0056 -0.2191  0.2176
30037W        W46171  18.042   2.381  13.550 -0.0463 -0.2379  0.0329
30038W        W46172   9.086  14.099  13.634 -0.0197 -0.1579 -0.1856
30039W        W46173   9.990   7.304  14.871 -0.1511  0.2773  0.1334
30040W        W46174   3.609   4.524   0.476 -0.1783 -0.2575 -0.2770
30041W        W46175  13.326  15.469  12.961 -0.0870  0.1597  0.1908
30042W        W46176   3.716   5.952   3.922  0.3478  0.0335 -0.1530
30043W        W46177   8.759  18.023   2.597  0.2547 -0.0319  0.2339
30044W        W46178  10.565   7.629   0.307 -0.2755 -0.1121  0.1479
30045W        W46179   2.800  12.702  12.837 -0.0531 -0.0236  0.0007
30046W        W46180  11.127   8.165  13.155  0.1664  0.0723  0.0990
30047W        W46181  16.194   3.570   0.358 -0.1180  0.1284 -0.2271
30048W        W46182  17.218   8.803   3.262  0.2701 -0.1044  0.1810
30049W        W46183   8.681  17.351  11.024  0.1309  0.2171  0.1787
30050W        W46184  10.919   8.612   0.801  0.1154 -0.2206 -0.3380
30051W        W46185  11.246  17.554  14.719 -0.0673 -0.2448  0.1355
30052W        W46186   0.426  11.069   4.346  0.1001 -0.0231  0.2482
30053W        W46187   9.046  18.417  14.134  0.2461  0.0446 -0.2878
30054W        W46188  10.988   9.763  12.650 -0.0062  0.0719 -0.1258
30055W        W46189   5.936   9.617   1.713  0.0823  0.0123  0.0380
30056W        W46190   3.556   8.594   1.001  0.2730 -0.1451  0.1229
30057W        W46191   4.135   3.315   2.854  0.2886 -0.0689  0.2416
30058W        W46192  15.903  16.691   5.062  0.1783 -0.2260  0.4859
30059W        W46193   9.192   2.361  12.989  0.1946  0.2630  0.0269
30060W        W46194   7.544   0.687  13.379  0.0637 -0.1630 -0.0814
30061W        W46195   6.129  11.981  14.459  0.0949 -0.0534  0.0853
30062W        W46196  15.640   7.257   2.837  0.1255 -0.1054  0.1473
30063W        W46197   0.544   2.851   3.145 -0.0307  0.2018 -0.1658
30064W        W46198   8.658   0.212   0.852  0.4466  0.1672 -0.0617
30065W        W46199   7.617  18.031  14.151  0.0429 -0.1644  0.1444
30066W        W46200  14.255   8.762  14.264  0.6136 -0.2696 -0.0034
30067W        W46201   0.923   6.744   2.542  0.1720  0.1518 -0.5434
30068W        W46202   9.321   8.736   2.007 -0.0338 -0.1429  0.2354
30069W        W46203   4.676  17.089   2.296 -0.1841 -0.0269  0.3173
30070W        W46204  14.656   0.412  14.599 -0.0614  0.0754  0.1896
30071W        W46205   4.264   7.878   0.400 -0.1297  0.2701 -0.1630
30072W        W46206   3.281  12.131  14.336 -0.0442 -0.0141  0.2419
30073W        W46207  10.308  11.646  13.884 -0.1293 -0.3181  0.1369
30074W        W46208  16.153   0.161  11.815 -0.2196 -0.3563 -0.1985
30075W        W46209  18.428  13.395   1.461 -0.0728  0.1521  0.0791
30076W        W46210   1.258  15.842  13.239  0.1553 -0.3372 -0.0773
30077W        W46211  17.496   8.485  15.019 -0.1589  0.0997  0.0708
30078W        W46212   0.863  15.307   5.294  0.1572 -0.3402 -0.2181
30079W        W46213  16.304   8.983   2.862 -0.1411 -0.2578 -0.1893
30080W        W46214   1.909  15.216   2.259 -0.1361 -0.1957 -0.1598
30081W        W46215  12.828   5.449   3.334  0.1070  0.2024 -0.2510
30082W        W46216  17.449   8.693  14.538  0.1045  0.0143 -0.0590
30083W        W46217   5.550  18.773   0.539 -0.0566  0.3105 -0.0614
30084W        W46218   3.811  15.073  14.078 -0.1443 -0.1259 -0.0359
30085W        W46219  18.849   4.310   3.925  0.0868 -0.2752 -0.1627
30086W        W46220   7.464   9.603   3.914 -0.1646 -0.1463 -0.0475
30087W        W46221   9.729  17.955  15.085 -0.1515  0.0339 -0.0241
30088W        W46222   8.490  11.553  11.993 -0.1178 -0.0845 -0.1550
30089W        W46223   3.770   6.700  11.976  0.1086  0.1007 -0.1584
30090W        W46224   3.188  16.111   2.689  0.1792  0.4241 -0.5754
30091W        W46225   7.306  13.149   4.496 -0.0112  0.2566 -0.1759
30092W        W46226  14.507   1.163   1.451 -0.1521  0.1342  0.3572
30093W        W46227   7.297   3.360  15.199 -0.0578  0.1203 -0.0982
30094W        W46228  10.859  17.953  12.918 -0.2101  0.1118  0.2490
30095W        W46229  16.120  10.152  12.645 -0.1138 -0.1395 -0.2334
30096W        W46230  15.345   2.094   3.569  0.0238  0.1393  0.1381
30097W        W46231   9.281   5.277  14.846 -0.2362  0.3133 -0.0427
30098W        W46232  17.241  13.087   2.897 -0.2165 -0.0769  0.0084
30099W        W46233  17.347  10.991   3.216  0.0576 -0.0675 -0.2503
30100W        W46234   2.244   4.636  11.181 -0.1232 -0.2187  0.0164
30101W        W46235   6.612  17.097   2.708 -0.2069  0.0183  0.2797
30102W        W46236   8.295   2.053  10.553 -0.2593  0.0579 -0.1345
30103W        W46237   3.434   0.726   3.475  0.2100  0.1091  0.1263
30104W        W46238  13.018   1.982  10.560  0.0153 -0.0713 -0.2633
30105W        W46239   1.531   3.611   1.501 -0.0275 -0.1080  0.1549
30106W        W46240   0.795   0.742   5.635 -0.1603  0.5553 -0.3658
30107W        W46241   8.822  17.184   4.828  0.0377 -0.4623 -0.0864
30108W        W46242  10.291  15.629  14.726 -0.1482 -0.1054  0.1066
30109W        W46243   6.380  11.170  15.063  0.0699  0.2404 -0.3355
30110W        W46244   9.020   1.445   2.841  0.1684  0.0653 -0.2523
30111W        W46245   1.102  18.319   0.507  0.0260  0.1682  0.0735
30112W        W46246   6.150  13.097   0.648  0.0610  0.0354 -0.0676
30113W        W46247   3.159  13.141   1.595 -0.0477 -0.2187 -0.2335
30114W        W46248   3.660   7.938  14.733  0.0326  0.3516 -0.0652
30115W        W46249  14.099   6.555   3.744  0.1023 -0.1313 -0.1241
30116W        W46250   0.845   5.339   4.978 -0.1091 -0.1494  0.3439
30117W        W46251  15.533   1.862   3.063  0.2864 -0.2269 -0.2369
30118W        W46252  17.488   1.483   2.812 -0.1119  0.0376 -0.0259
30119W        W46253   0.302   9.732  11.957 -0.0210  0.1079 -0.0699
30120W        W46254   3.667  12.976   1.809  0.3606  0.0217  0.0451
30121W        W46255  11.492   8.548   4.013  0.3950  0.3030 -0.0633
30122W        W46256  18.760  12.726  11.385  0.1629 -0.0061  0.1226
30123W        W46257   5.880  14.864   0.543 -0.0870 -0.0128  0.3547
30124W        W46258  13.875   0.766  14.673  0.1804  0.1449  0.1075
30125W        W46259  15.796   9.966   3.838 -0.1246  0.0502 -0.1993
30126W        W46260   6.971  17.425  14.447 -0.1329 -0.1158 -0.2241
30127W        W46261   2.147   7.215   2.905 -0.2255 -0.0806 -0.2833
30128W        W46262  18.553  13.134   2.008 -0.0215  0.0771 -0.1572
30129W        W46263   4.015   2.662  12.114 -0.1809  0.1952 -0.4090
30130W        W46264   1.904   8.732   3.681  0.2491 -0.2210 -0.0591
30131W        W46265   6.581   1.551  10.064  0.2924 -0.0310  0.1962
30132W        W46266  10.509  16.470  15.080 -0.1059  0.2433 -0.0805
30133W        W46267  10.069   2.409  12.388 -0.0259 -0.1387 -0.1281
30134W        W46268  14.504   2.468  11.576 -0.4284 -0.0646  0.3591
30135W        W46269  16.649  15.152   0.066 -0.0557 -0.1279 -0.3578
30136W        W46270   7.335  18.196   1.553 -0.0168  0.3265 -0.2912
30137W        W46271   1.117   9.445   1.072  0.0464  0.2622 -0.1036
30138W        W46272  13.786  15.877  10.617 -0.1402 -0.2130  0.0750
30139W        W46273  13.310   8.132   3.613 -0.0867  0.0567  0.1063
30140W        W46274  18.014   2.025   4.593 -0.2028 -0.0846  0.1241
30141W        W46275   1.465   9.459   2.860  0.2341  0.0050 -0.1861
30142W        W46276  14.687   4.498   0.571 -0.1300  0.0957 -0.0504
30143W        W46277   4.472   2.180   3.217  0.1663  0.0339 -0.3502
30144W        W46278   0.101  17.166  15.217  0.0319  0.3044 -0.2574
30145W        W46279  14.329   5.563  14.874  0.1397 -0.0862 -0.0508
30146W        W46280  14.570   1.199   0.563 -0.0000 -0.1429 -0.2020
30147W        W46281   4.054   4.106   9.665  0.2160 -0.1436 -0.2299
30148W        W46282   3.546   1.931  12.607 -0.0151  0.1952 -0.2070
30149W        W46283  11.017   8.093   1.949 -0.0749  0.2663  0.4857
30150W        W46284   5.444  15.056   1.928 -0.0471  0.2346  0.1775
30151W        W46285  18.543  14.865   6.027 -0.0252  0.2046 -0.0429
30152W        W46286  17.136   5.674   1.685  0.0128  0.2410  0.0735
30153W        W46287  14.902   8.130  11.753  0.0055  0.0937  0.1969
30154W        W46288  14.214  10.316  14.258  0.1322  0.0447 -0.0248
30155W        W46289  16.167  14.589  14.343 -0.3808 -0.0612  0.3303
30156W        W46290   8.240   6.628  11.930 -0.1796  0.2880 -0.2810
30157W        W46291   0.993  11.875  14.902  0.0232 -0.0941  0.2489
30158W        W46292   1.729  17.159  13.431  0.0111  0.2398  0.1859
30159W        W46293   4.975   6.419   2.892 -0.2037 -0.4181 -0.2536
30160W        W46294   6.535  10.003   1.676  0.1847  0.0364  0.2357
30161W        W46295  14.427  18.162  10.894 -0.2195  0.0425  0.2857
30162W        W46296  14.515  11.314  11.287 -0.1323 -0.0284 -0.0954
30163W        W46297  12.703   5.822   9.686 -0.0699 -0.2064  0.2930
30164W        W46298  11.923  13.462  12.750 -0.0001  0.0856  0.4414
30165W        W46299  14.677  13.450  15.195 -0.3000 -0.1931  0.0615
30166W        W46300  16.203  12.776   2.577 -0.0589 -0.2179 -0.0146
30167W        W46301   5.247   4.950   2.621  0.0435 -0.0515  0.0050
30168W        W46302  17.654  14.722  14.158 -0.1833 -0.3407  0.0570
30169W        W46303  12.759   6.415   3.526  0.0800  0.1115  0.0918
30170W        W46304   5.544   2.171   3.505 -0.2018 -0.3123 -0.1783
30171W        W46305  14.509  12.161  12.798 -0.2549 -0.0850 -0.0308
30172W        W46306  13.631  18.145   9.693 -0.2370 -0.2456 -0.1780
30173W        W46307   0.421   8.494   3.668 -0.0669 -0.1095 -0.0748
30174W        W46308   7.177   7.715  13.015 -0.3274 -0.0044  0.2629
30175W        W46309  18.740   0.248  11.145  0.1768 -0.2953 -0.2112
30176W        W46310  10.108   6.178  10.697 -0.1609 -0.0074  0.1993
30177W        W46311   7.875   6.264  11.195  0.1618 -0.2373 -0.1783
30178W        W46312  11.909   7.400   0.148 -0.0809  0.1693  0.1336
30179W        W46313  12.279  16.595  15.236  0.0403 -0.0386 -0.2525
30180W        W46314   9.392   4.234   1.847  0.0820  0.0298 -0.0920
30181W        W46315   2.681   2.697   3.224  0.5312  0.1671  0.3294
30182W        W46316   7.449   8.570   4.407  0.0411 -0.0021  0.0637
30183W        W46317  11.379   3.099  14.945 -0.0786  0.0666  0.1484
30184W        W46318  14.071   4.172   0.016 -0.0539 -0.3036  0.2778
30185W        W46319   5.747  16.844   4.862  0.0789 -0.1343  0.2454
30186W        W46320   5.168   8.076  13.308 -0.2325 -0.2893  0.1108
30187W        W46321   7.252  14.843  13.567 -0.0439  0.3605  0.2312
30188W        W46322  18.468  15.889  11.445  0.1492 -0.1105  0.4401
30189W        W46323  11.847   4.441   3.464  0.2049 -0.2678 -0.0182
30190W        W46324  11.597   3.091   0.990 -0.0249 -0.2145 -0.0215
30191W        W46325  11.081  15.675   2.806  0.3737 -0.0303 -0.0837
30192W        W46326   7.752   2.843  13.771 -0.1799 -0.2315 -0.2874
30193W        W46327   5.875  18.601  13.365  0.1011 -0.0224 -0.0228
30194W        W46328   4.675   8.969   3.461  0.0625  0.2772 -0.2203
30195W        W46329   1.585   1.840   1.278 -0.0075 -0.0050 -0.1883
30196W        W46330   0.281  13.872   2.509  0.0104  0.1390 -0.0603
30197W        W46331  15.087  12.757  12.444  0.1156  0.2260  0.0137
30198W        W46332  15.284  17.355   1.685 -0.0118  0.0823 -0.2872
30199W        W46333  16.672   7.485   3.631 -0.0403 -0.3611  0.1075
30200W        W46334   2.793   3.695  11.534  0.2219 -0.5981 -0.2134
30201W        W46335  10.562   3.772  11.336 -0.0031  0.5079 -0.4964
30202W        W46336  14.476   8.461  13.245 -0.2144 -0.0084 -0.0131
30203W        W46337  18.285   1.099   4.626  0.0541  0.0207 -0.3506
30204W        W46338   5.776   4.219   4.415 -0.2810 -0.0835  0.2173
30205W        W46339   6.150  17.295   1.444  0.2802  0.0793  0.0578
30206W        W46340   0.088  12.002  11.193 -0.2003 -0.1435  0.1421
30207W        W46341  15.870  14.092   1.937  0.2100  0.0798 -0.3232
30208W        W46342   2.702   8.088  12.025 -0.0653 -0.2961  0.2135
30209W        W46343  18.639   5.364   6.056  0.2977  0.1024 -0.0633
30210W        W46344   1.443  17.221  13.940 -0.0805 -0.2703 -0.0973
30211W        W46345  15.650   0.428  14.225  0.0137  0.0361 -0.0422
30212W        W46346  14.414  12.831   5.541  0.1359 -0.0382 -0.1376
30213W        W46347  15.938   8.751   1.197  0.0611 -0.0964  0.1840
30214W        W46348  17.822   6.169   1.110 -0.0875 -0.0903 -0.1828
30215W        W46349  14.640  17.217  11.844 -0.1220  0.1251  0.1370
30216W        W46350   1.493   1.102   3.426  0.2327  0.0394  0.0770
30217W        W46351   1.572   8.774  10.936 -0.1528 -0.1207  0.3416
30218W        W46352  12.079   4.894  12.263 -0.0428  0.0601  0.1012
30219W        W46353  14.958  17.399  11.491  0.0543 -0.2087  0.0479
30220W        W46354  16.060   0.566   3.445  0.2212  0.0435 -0.0647
30221W        W46355   1.697   1.448   4.235 -0.0586  0.0923  0.0526
30222W        W46356   8.879  16.282   1.579 -0.0928  0.2424  0.0660
30223W        W46357  15.406  18.989  10.568  0.3541  0.0548  0.2040
30224W        W46358   0.517   1.992   2.960 -0.1949 -0.0179  0.3180
30225W        W46359  14.846   8.193   0.270 -0.1968  0.0101 -0.1763
30226W        W46360  14.507   0.371   4.114 -0.5562  0.1195  0.2185
30227W        W46361  11.272   8.234   0.942  0.2352  0.4864  0.0919
30228W        W46362   1.846   1.718  11.802 -0.1285 -0.3780  0.0104
30229W        W46363  15.518  16.839  12.903  0.1371  0.2530 -0.0669
30230W        W46364  14.996   1.511   0.595  0.3801  0.1667 -0.1288
30231W        W46365  11.372   1.926   2.509  0.2097 -0.1053  0.1476
30232W        W46366   8.588  16.071   1.201  0.1347  0.1591 -0.1055
30233W        W46367   7.012  17.678  12.334 -0.0129  0.3470 -0.0098
30234W        W46368   6.905  13.477  12.554 -0.1477  0.1839 -0.4122
30235W        W46369   0.763   6.356   1.599 -0.0444 -0.2022  0.0134
30236W        W46370   2.229  16.172  10.303  0.1369  0.3159 -0.3646
30237W        W46371  12.128   2.598   0.493  0.0647 -0.0114  0.4976
30238W        W46372   1.574  14.495  10.201 -0.0575  0.1030 -0.0518
30239W        W46373   8.988   2.260   1.533  0.1505  0.2879  0.3118
30240W        W46374  11.985   7.696  12.848 -0.1287 -0.0393 -0.1302
30241W        W46375   0.689  10.481  12.367  0.1181  0.2235 -0.2359
30242W        W46376   3.617   9.813   1.463 -0.0639 -0.3033 -0.0559
30243W        W46377   9.906  16.039   0.833  0.1055  0.1351 -0.1726
30244W        W46378   4.078   9.572  10.807 -0.1083  0.2174 -0.0021
30245W        W46379  11.517   8.388  11.412  0.1748  0.5142 -0.0351
30246W        W46380   5.459   4.658  13.323  0.1072 -0.2233  0.2460
30247W        W46381  11.510   9.071   0.362  0.2259 -0.0757 -0.1881
30248W        W46382   7.578   6.490  14.917 -0.2245 -0.1626  0.0165
30249W        W46383  12.822  14.248   4.732  0.1378 -0.0123 -0.3968
30250W        W46384  12.477  18.020   3.267 -0.1164  0.0114 -0.0028
30251W        W46385   9.532  16.074   1.280 -0.0481  0.2033 -0.2287
30252W        W46386   8.184  13.931   0.799  0.1317 -0.0177  0.0995
30253W        W46387  16.635  18.900   4.769 -0.1512  0.0336  0.1760
30254W        W46388   0.719   5.548  12.140  0.4897 -0.4392  0.2589
30255W        W46389   2.499   1.103  14.689  0.1887  0.0417  0.0383
30256W        W46390  12.261   9.589   0.866  0.0486 -0.0159 -0.1281
30257W        W46391   5.271  16.517   9.792 -0.1641 -0.0626 -0.1438
30258W        W46392   6.906   9.659  14.056  0.0544 -0.1803  0.1060
30259W        W46393  17.644  13.606   2.074  0.1278 -0.0398  0.4183
30260W        W46394  12.613   1.232   1.654 -0.1506  0.2474 -0.0141
30261W        W46395   4.759  12.149   0.911  0.3252 -0.4050 -0.0092
30262W        W46396   6.341   5.881  14.073 -0.0695 -0.1222  0.2296
30263W        W46397   2.163   5.426  11.873 -0.0430  0.1390  0.1683
30264W        W46398  16.903   5.509  12.764  0.0911 -0.3856  0.0318
30265W        W46399  13.669   6.429   2.935  0.1434  0.2606  0.0951
30266W        W46400  12.296  11.536  13.129  0.0946  0.1544 -0.0003
30267W        W46401  13.761   5.580   0.041 -0.0959 -0.1029 -0.0100
30268W        W46402   9.789   2.539   1.671 -0.2604  0.1965 -0.2444
30269W        W46403   5.525  18.024   1.822  0.3998 -0.1880  0.0505
30270W        W46404   0.542  18.940  14.855 -0.0672  0.0716  0.0239
30271W        W46405  13.759   7.114   4.455  0.3331  0.0665 -0.3895
30272W        W46406  17.203   3.095  11.650  0.1397 -0.1831  0.0769
30273W        W46407   1.010   2.117   0.543 -0.0372 -0.1273 -0.1668
30274W        W46408   6.731  13.543   5.140 -0.0064 -0.0501  0.2208
30275W        W46409   8.003   3.942   9.745 -0.2664  0.1674  0.0047
30276W        W46410  12.427   6.161  13.649  0.0750 -0.1777 -0.0601
30277W        W46411   7.177   4.346  13.654 -0.2606  0.0659  0.1453
30278W        W46412   5.100  14.642  12.081  0.2725  0.0352 -0.0058
30279W        W46413   9.839  14.153   1.931 -0.0339 -0.3301 -0.1690
30280W        W46414  10.092   7.749   4.006 -0.1385 -0.1714  0.1355
30281W        W46415  17.481   6.531   0.232 -0.0574 -0.2364 -0.3299
30282W        W46416   4.835   1.965   9.930  0.0500 -0.1395 -0.1057
30283W        W46417   0.704   8.956   3.796  0.1883  0.0379 -0.2683
30284W        W46418  16.650  13.645  11.234  0.0760 -0.0976  0.1004
30285W        W46419   9.866  14.586   9.968  0.1264 -0.1991 -0.0748
30286W        W46420   0.374   8.357   2.266  0.2572 -0.0468 -0.1142
30287W        W46421  13.183  12.546  12.647  0.3718  0.3250 -0.2873
30288W        W46422  14.750  15.778   4.424  0.0858  0.0835  0.3181
30289W        W46423   2.043   6.088  14.147 -0.2974 -0.1370  0.1034
30290W        W46424   6.380  15.001  10.829 -0.1864  0.6472 -0.1179
30291W        W46425   4.913   9.157   4.365  0.0554 -0.1741 -0.0398
30292W        W46426  14.553  17.486   4.377 -0.1132  0.0813  0.0986
30293W        W46427   7.119   1.986   4.330  0.0441 -0.2109  0.2401
30294W        W46428  11.832   9.528   5.051 -0.0583 -0.0034 -0.1632
30295W        W46429  13.399   1.032  10.773  0.2628 -0.0438  0.0010
30296W        W46430  10.044   8.796  14.384  0.4262  0.0821  0.1702
30297W        W46431  18.983  18.465  12.793  0.2360 -0.1513  0.1167
30298W        W46432  17.016  13.889  10.927 -0.1944  0.1913  0.0326
30299W        W46433  17.168  13.838  12.650 -0.2886 -0.0073 -0.2378
30300W        W46434  10.337   9.162   1.660  0.0844  0.0107 -0.0965
30301W        W46435  18.961  15.015  15.261 -0.0248 -0.0532  0.0653
30302W        W46436   5.808   6.771   0.445 -0.0255 -0.3389  0.0600
30303W        W46437   8.606   6.920  12.136  0.0728 -0.2883 -0.0199
30304W        W46438  12.117   3.152   3.019 -0.0879 -0.0362  0.0272
30305W        W46439  15.108   2.900   0.139 -0.0959 -0.3205  0.1497
30306W        W46440  15.581   1.020  10.248  0.1087 -0.1980  0.1960
30307W        W46441  11.375  12.522  11.645 -0.0548  0.0958  0.2984
30308W        W46442  13.019   3.630  12.072  0.0559  0.1932  0.0027
30309W        W46443  13.275   8.554  15.046  0.1722 -0.4079  0.1517
30310W        W46444   0.981   6.653  10.725  0.4366 -0.0733  0.2637
30311W        W46445  16.856  15.752   3.746  0.1060  0.3803 -0.1504
30312W        W46446   3.851   6.496  12.805  0.0466 -0.1727 -0.0708
30313W        W46447   3.774   6.036  10.673  0.0694 -0.1721  0.0560
30314W        W46448  16.703  11.442   0.732 -0.0485 -0.2006  0.4223
30315W        W46449   5.333   8.215   2.478  0.0112 -0.0603 -0.2395
30316W        W46450  11.209   1.553   2.884  0.0391  0.3111 -0.4973
30317W        W46451   5.167   0.018   4.700 -0.4113  0.0931 -0.0406
30318W        W46452  12.417  12.790  12.367 -0.1547 -0.1915 -0.1589
30319W        W46453  11.614   1.187   4.047  0.3764 -0.0818  0.1564
30320W        W46454   2.930  17.293  13.621 -0.1426  0.0667 -0.1051
30321W        W46455  16.372   3.582  12.001  0.0609 -0.4085 -0.2337
30322W        W46456  16.086  13.797   3.658  0.0806 -0.0940  0.2553
30323W        W46457   8.143   5.484  13.893 -0.4575  0.1388 -0.2686
30324W        W46458   7.983   8.558  14.078  0.0029  0.1463 -0.0989
30325W        W46459   3.297   7.030  14.186  0.2623  0.2164 -0.2408
30326W        W46460  10.579   3.148  13.105 -0.0721 -0.2774  0.0332
30327W        W46461  16.719  17.116   1.974 -0.1554  0.2080 -0.0199
30328W        W46462   3.742   3.849  14.376  0.0754 -0.2180 -0.1658
30329W        W46463  10.601  12.091   3.951 -0.2553  0.0005 -0.1982
30330W        W46464   6.164  13.606   0.471  0.2766 -0.2061 -0.3710
30331W        W46465   2.308   7.835  10.677 -0.1891 -0.1883  0.2114
30332W        W46466  15.637   8.702   1.715  0.0022  0.0137  0.0294
30333W        W46467  17.731   8.948  14.935  0.0912  0.0581 -0.0180
30334W        W46468   6.339  15.935   2.321  0.0270 -0.2034  0.1332
30335W        W46469  13.296   6.091  13.175  0.0207 -0.1664  0.2678
30336W        W46470   9.337   1.359   1.902  0.2428  0.0205  0.2252
30337W        W46471   3.158   9.787   3.025 -0.1235 -0.1097  0.0263
30338W        W46472  10.536   2.938   0.010 -0.4183 -0.0131 -0.1840
30339W        W46473  11.531  11.131   1.762  0.1993  0.0746  0.2023
30340W        W46474   5.422  14.414  12.410 -0.0827 -0.0818 -0.0909
30341W        W46475   0.887   8.178   3.530 -0.0122  0.0063  0.3717
30342W        W46476   2.785   1.005  12.147  0.0317  0.1157  0.1430
30343W        W46477  14.945   9.867   2.542 -0.1587  0.0663  0.1793
30344W        W46478  14.400   0.564   2.463  0.2105  0.2659 -0.0071
30345W        W46479   2.445   2.134   3.986 -0.1595 -0.1147 -0.1395
30346W        W46480  13.247  18.639   3.435  0.2026 -0.1031  0.1020
30347W        W46481   2.089  12.143  11.013  0.4925 -0.1103  0.2013
30348W        W46482  10.278   1.911   9.473 -0.5545  0.0201  0.1767
30349W        W46483   7.326  17.061  10.957 -0.0588  0.1132 -0.1270
30350W        W46484  11.763  14.391   0.114 -0.2619  0.0376 -0.1334
30351W        W46485  14.000  11.523  15.243  0.0961  0.0970  0.0116
30352W        W46486  11.924  11.218   0.942  0.2017  0.0008 -0.0676
30353W        W46487   7.934  18.444  14.842  0.4263  0.1047 -0.0975
30354W        W46488   6.881   9.982  12.911  0.0474 -0.1721  0.1618
30355W        W46489   2.206   0.878  11.579  0.2009 -0.3548  0.0041
30356W        W46490   0.771   9.906   4.611  0.0652 -0.2553 -0.0769
30357W        W46491   4.039  12.167  11.731 -0.0415  0.1873 -0.0818
30358W        W46492  14.870  16.312  10.648  0.3159  0.0103  0.4308
30359W        W46493  15.043  15.037  13.784  0.0673 -0.0020  0.0783
30360W        W46494  12.019   7.975  11.848 -0.1221 -0.1026  0.3695
30361W        W46495   0.737   6.984  15.075  0.0277 -0.3925  0.0279
30362W        W46496  10.534  14.213  11.696  0.3664 -0.0400 -0.0424
30363W        W46497   8.808  13.371   1.215 -0.2205 -0.0213 -0.0810
30364W        W46498   8.472   0.858   3.375  0.2970  0.1249 -0.1444
30365W        W46499   2.844   7.139  13.969 -0.0145 -0.2786 -0.2784
30366W        W46500  18.305  10.840   1.914  0.1837 -0.1049 -0.1357
30367W        W46501  11.701  16.805  12.180  0.2620 -0.0930 -0.0120
30368W        W46502  10.680  11.814  10.511 -0.1603  0.2944  0.1248
30369W        W46503  15.479  17.239   0.200 -0.0472  0.0025 -0.3165
30370W        W46504  15.692  12.261  14.596  0.0219 -0.0122 -0.0508
30371W        W46505   6.702   5.335  14.533 -0.1669  0.1500 -0.0037
30372W        W46506   4.583   7.807   2.002 -0.0452 -0.1828  0.5010
30373W        W46507   6.184   2.044  12.815 -0.1108  0.1228 -0.1175
30374W        W46508  13.933   6.972   0.238  0.2388  0.2537  0.0872
30375W        W46509  14.604  12.533  11.361  0.1467 -0.3097  0.0231
30376W        W46510  11.333   8.714   2.972  0.2407 -0.0942  0.2704
30377W        W46511  17.443   1.135  13.857 -0.1103 -0.1210  0.0979
30378W        W46512   7.655   0.176  12.002 -0.0958 -0.1480 -0.2659
30379W        W46513   6.994  11.032   4.768 -0.2486  0.0731 -0.0767
30380W        W46514  13.080  11.410   4.283 -0.1106  0.1220 -0.2169
30381W        W46515  16.323  15.010   2.835  0.4877  0.2717 -0.1689
30382W        W46516  12.587   8.977  11.256 -0.0789  0.0332  0.4685
30383W        W46517   7.514   0.750   0.131  0.0950 -0.4423  0.1316
30384W        W46518   2.853  10.773  12.916  0.0934  0.0612 -0.2676
30385W        W46519   8.079   1.026  12.989  0.0520  0.1165  0.2631
30386W        W46520   2.169  12.806  14.112  0.0319  0.1220  0.0486
30387W        W46521   6.271   9.046   4.900  0.0021 -0.2210  0.3404
30388W        W46522   5.557   5.122  11.906 -0.0016  0.0865  0.2212
30389W        W46523  12.415  13.325   0.401 -0.1776  0.2479  0.1272
30390W        W46524  17.002   2.140  12.688 -0.2910  0.4511  0.1249
30391W        W46525   9.869   8.897   1.013  0.0796 -0.2246  0.2261
30392W        W46526  11.767  15.092   4.079 -0.0612 -0.1538  0.0100
30393W        W46527  16.558  17.620   3.707 -0.2775 -0.1222 -0.2045
30394W        W46528   5.086   5.608   0.016 -0.4101 -0.1399  0.1454
30395W        W46529   6.544  18.081  15.260  0.1485  0.2489 -0.0452
30396W        W46530   4.799   6.890   3.094 -0.0497 -0.0901 -0.0082
30397W        W46531  11.893  17.325  11.147 -0.0009  0.1474 -0.1094
30398W        W46532  17.762   8.562   5.342  0.3752 -0.0055  0.0034
30399W        W46533   5.306  13.410  12.504  0.4547 -0.1969 -0.1424
30400W        W46534  11.958   4.883   1.067  0.1641  0.0167 -0.3252
30401W        W46535   5.520  15.820  12.769  0.1035 -0.0293 -0.0200
30402W        W46536   0.472   7.490   4.027  0.0457 -0.2929 -0.3089
30403W        W46537  16.978   3.495  11.301 -0.2328 -0.0995 -0.0752
30404W        W46538  13.143   2.921   3.215  0.0189 -0.0175  0.1229
30405W        W46539  16.061  15.615   0.817 -0.0649 -0.1506  0.0897
30406W        W46540  10.307   2.831  14.171 -0.0494  0.0713 -0.1586
30407W        W46541  15.073   3.373   1.606  0.1567  0.0313  0.2126
30408W        W46542  15.126   8.783  10.512 -0.1311 -0.3056  0.1209
30409W        W46543   9.329  17.929   2.261 -0.1435 -0.1022 -0.1540
30410W        W46544  18.021   8.510   3.211  0.0818  0.0431 -0.2398
30411W        W46545  18.485  14.091   4.562  0.3238  0.3385 -0.0697
30412W        W46546  13.003  10.986   0.977 -0.0590 -0.3352  0.1256
30413W        W46547   8.653   9.566  12.115 -0.1250 -0.1716  0.0347
30414W        W46548  14.310   8.406   1.104 -0.0960  0.4201  0.1827
30415W        W46549   3.259   1.496  12.572  0.1554 -0.2248  0.2392
30416W        W46550  12.057  11.724   2.341 -0.2482 -0.2597  0.2338
30417W        W46551  13.176   3.627  13.325  0.1202 -0.2168 -0.4761
30418W        W46552   2.900  12.701   1.582 -0.0584  0.1067  0.0248
30419W        W46553   2.321  13.814   4.559  0.0612  0.2109 -0.2114
30420W        W46554   8.687  16.777  10.895  0.0758  0.1116  0.0927
30421W        W46555   3.543  17.105  14.863 -0.0528 -0.0026 -0.0406
30422W        W46556   2.751   5.554   0.006 -0.0838 -0.0877 -0.1376
30423W        W46557   8.648  13.442   3.421  0.0252  0.1033 -0.1966
30424W        W46558   6.775  15.281   3.114  0.0425  0.0405 -0.1092
30425W        W46559   9.798  14.571   0.169 -0.0041 -0.1217  0.0045
30426W        W46560   7.661   7.206   2.445  0.1005 -0.1531  0.2498
30427W        W46561  18.347   5.804   1.378 -0.1720 -0.1210  0.0586
30428W        W46562  13.332  11.960  13.345 -0.0847 -0.2641 -0.1412
30429W        W46563  12.988  13.477  10.978 -0.2351  0.0770  0.0830
30430W        W46564   0.482  15.086   5.653  0.0336  0.2179 -0.0527
30431W        W46565  11.289  10.177   2.062  0.3245 -0.3371  0.2433
30432W        W46566  12.394   4.073   2.211  0.0402  0.0384  0.2869
30433W        W46567  13.598  11.080  13.298  0.1152  0.2202  0.0965
30434W        W46568   8.322   4.510  12.011  0.0270  0.2073 -0.0473
30435W        W46569   7.411  15.863  10.999 -0.1814 -0.0907 -0.0728
30436W        W46570  14.379  17.345   1.621  0.2450  0.0900 -0.3323
30437W        W46571  12.094  17.656   3.063  0.0056 -0.0157 -0.0997
30438W        W46572   0.297  15.473   1.640 -0.1673 -0.1597 -0.1230
30439W        W46573  16.599  16.074  11.497 -0.1372  0.0891 -0.0146
30440W        W46574   1.311   8.691   0.781  0.3280  0.1232  0.2475
30441W        W46575   8.123  12.214  13.941  0.0111 -0.1807  0.0608
30442W        W46576  18.701  11.080   0.962  0.3969  0.1318  0.2996
30443W        W46577  18.330  15.234   2.434 -0.0872 -0.2992 -0.1473
30444W        W46578   7.302   3.254   9.675  0.1339  0.3568  0.0591
30445W        W46579   8.415  10.598   3.070 -0.1782 -0.0022  0.2157
30446W        W46580   8.039  12.046   3.092 -0.2743  0.0192  0.0248
30447W        W46581  11.028   2.942   0.110 -0.0291  0.1547 -0.0091
30448W        W46582  10.884  18.216   3.088 -0.2953 -0.0817  0.0418
30449W        W46583  18.616  17.346   1.901  0.0309 -0.0017  0.2701
30450W        W46584   0.452   9.583  11.022 -0.1514  0.0232  0.0179
30451W        W46585  17.889  10.535  11.288  0.2608 -0.0209 -0.1642
30452W        W46586   5.797   5.456  14.439 -0.0213 -0.0318  0.3911
30453W        W46587   1.370  11.422  11.523  0.2848 -0.1115  0.1546
30454W        W46588  17.007  10.469  15.209 -0.0975 -0.2056 -0.1304
30455W        W46589   5.839   0.660   2.610  0.0969  0.0925 -0.2610
30456W        W46590   9.907   9.592   3.994 -0.2254  0.0643 -0.2261
30457W        W46591  16.200  18.441   6.389  0.0439  0.0215 -0.0477
30458W        W46592  15.636   7.783   0.420  0.2199 -0.2596 -0.1205
30459W        W46593   1.993   4.943  12.571  0.0747  0.1444 -0.2717
30460W        W46594   4.278   7.092  10.915  0.1970 -0.0533  0.1308
30461W        W46595  13.441  16.963   1.911  0.0423  0.2818  0.0288
30462W        W46596  12.519   9.409   3.685 -0.1828 -0.0988  0.2372
30463W        W46597   9.241  12.539  14.025  0.3634  0.2063  0.3423
30464W        W46598   9.850  10.603   4.097  0.0467  0.0770 -0.4422
30465W        W46599  16.379   9.802  14.992  0.0791 -0.1206 -0.0464
30466W        W46600   9.480  14.188  11.660 -0.1132  0.0770  0.2410
30467W        W46601  17.363   0.642   3.839  0.3817  0.0772 -0.1234
30468W        W46602  12.333   4.079  11.298  0.0734 -0.0866  0.0878
30469W        W46603   5.970  18.255  11.240 -0.3065 -0.0325  0.1304
30470W        W46604  14.716   1.891  14.504 -0.0041  0.2296  0.0071
30471W        W46605   9.998  17.111   5.206 -0.2669  0.0006 -0.1311
30472W        W46606   3.005  18.454  12.297 -0.1439 -0.0246 -0.0889
30473W        W46607  15.820   6.082  14.937  0.1101  0.0042  0.0758
30474W        W46608  15.624  15.499  10.577 -0.3915  0.0876 -0.2424
30475W        W46609  16.729   9.116  12.093  0.0923 -0.0615  0.0597
30476W        W46610  13.195  16.496   2.997 -0.1847  0.3104  0.1288
30477W        W46611  15.099  11.895   3.106  0.1086 -0.0173  0.0904
30478W        W46612   0.697   3.256  13.081  0.1686  0.3076 -0.2576
30479W        W46613  15.609  14.662   0.816  0.2810 -0.2300  0.2158
30480W        W46614   4.621  10.975   1.570  0.1639  0.1163 -0.0458
30481W        W46615   7.466   4.527   5.751  0.2275 -0.1586 -0.2850
30482W        W46616  10.475   2.921  11.653 -0.0586  0.3697 -0.2219
30483W        W46617  10.242   2.781  10.999 -0.1203  0.1970  0.0823
30484W        W46618  12.739   0.798  13.061  0.0525 -0.0077 -0.1081
30485W        W46619  12.197  12.768  10.971 -0.0342 -0.1656 -0.1382
30486W        W46620   6.469   4.092   1.698  0.2642 -0.4519  0.1750
30487W        W46621  16.614   1.549   1.642  0.0817 -0.3268 -0.0023
30488W        W46622  13.827   5.697   3.370 -0.2557  0.2975 -0.0371
30489W        W46623  11.473   2.453   3.394 -0.3471  0.0619 -0.4150
30490W        W46624   1.662   5.509   0.171 -0.3125 -0.2514 -0.0775
30491W        W46625  15.828  13.541  13.150  0.1074  0.2111  0.3506
30492W        W46626   1.528  16.592   3.308 -0.0940  0.0110 -0.0968
30493W        W46627   3.709   9.900  10.203  0.0795  0.2542  0.0977
30494W        W46628  12.864  12.746   2.258 -0.2273 -0.1318 -0.0483
30495W        W46629   3.884  14.336   1.922  0.1276 -0.2315 -0.0429
30496W        W46630   1.302  10.611   3.225  0.1721 -0.3384 -0.1093
30497W        W46631  15.537   8.803  12.892  0.1255  0.1830 -0.2814
30498W        W46632   6.891   8.130  13.810  0.0456 -0.1688  0.2597
30499W        W46633  13.457   6.428  10.928 -0.0176  0.0861 -0.0896
30500W        W46634   4.589   3.561   2.713 -0.1500  0.2302 -0.0352
30501W        W46635   3.005   7.564  13.212 -0.0007 -0.0088 -0.0306
30502W        W46636   5.687   7.911  12.750  0.0549  0.2601  0.0020
30503W        W46637   2.611   3.820   5.138  0.1568  0.3112  0.3128
30504W        W46638   5.062  13.830   0.134 -0.0297 -0.0211 -0.1463
30505W        W46639  13.716   8.895   3.707  0.1022 -0.2410  0.0521
30506W        W46640   7.531  18.681  10.973 -0.0080 -0.1971  0.1272
30507W        W46641   8.101  16.740   1.498  0.1078 -0.1072  0.3678
30508W        W46642   3.670  15.650   4.750 -0.1467  0.1883 -0.0290
30509W        W46643   8.818  10.553   5.152  0.1345  0.0092 -0.0800
30510W        W46644   3.742  12.224   0.589 -0.0799  0.1168  0.2281
30511W        W46645   3.156   8.163  11.025 -0.0658 -0.0234 -0.1556
30512W        W46646   3.004   3.369  12.181 -0.0177 -0.1119 -0.2195
30513W        W46647   9.655   3.678   3.490  0.1902 -0.1400  0.3355
30514W        W46648  18.256   8.412   5.389  0.0550 -0.1939 -0.1368
30515W        W46649  15.678   7.909  13.838  0.1990  0.2162 -0.4073
30516W        W46650   1.957  15.789   3.631  0.1683  0.0439  0.0258
30517W        W46651  15.617  12.816   3.703 -0.0495 -0.1521  0.1930
30518W        W46652   2.143  16.754  15.155  0.0249 -0.1044 -0.1112
30519W        W46653   6.228  14.628   6.057 -0.2431 -0.1635 -0.1502
30520W        W46654   8.167  12.483   2.574  0.0370  0.0742  0.1390
30521W        W46655   0.525   4.313   0.674  0.1230  0.3834  0.0427
30522W        W46656  17.209   4.574  14.990  0.0446 -0.0480 -0.0437
30523W        W46657   0.925   6.855   3.907 -0.1010  0.1480  0.0579
30524W        W46658   4.712  13.482  13.191  0.0340  0.0131 -0.1404
30525W        W46659   5.698   2.735  10.384 -0.0002 -0.1906 -0.2265
30526W        W46660   4.794  10.955  13.882  0.1605  0.0442 -0.2085
30527W        W46661   0.523   3.038  10.690 -0.0795 -0.0105  0.0709
30528W        W46662   7.556  17.283   1.189 -0.2267 -0.1538 -0.3073
30529W        W46663   7.552   6.683  12.664  0.2263  0.0065 -0.3941
30530W        W46664  13.856   7.745  12.615 -0.2437 -0.2774 -0.1669
30531W        W46665  11.300   6.656  14.306  0.3432  0.0095 -0.1224
30532W        W46666  18.217  12.662   2.770  0.0448  0.3395  0.3855
30533W        W46667  16.625   7.278   2.713 -0.0598  0.0281 -0.0189
30534W        W46668  17.977  10.758  15.091 -0.0098  0.0264  0.1369
30535W        W46669   4.630   0.882  13.651  0.0632 -0.0029 -0.2116
30536W        W46670  13.276   1.693  10.890  0.2614  0.0659  0.2623
30537W        W46671  16.891   6.169  13.418  0.0189 -0.1005  0.0601
30538W        W46672  15.802   3.723  11.238 -0.1324  0.0419 -0.0837
30539W        W46673  11.657   4.934  10.618  0.0294 -0.1111 -0.2286
30540W        W46674   8.150   0.872   0.835 -0.2302  0.1078 -0.2954
30541W        W46675   8.010   6.243   0.869 -0.1507  0.1567 -0.1288
30542W        W46676   4.844   4.436   1.353 -0.0000  0.2610  0.0663
30543W        W46677  12.870   9.687  12.689 -0.0573 -0.0286 -0.3128
30544W        W46678  14.292  11.260   1.071  0.1166 -0.0041  0.2096
30545W        W46679   6.684  12.215   3.286  0.2619 -0.0642 -0.1594
30546W        W46680  17.271   6.960  10.640 -0.4317  0.4899  0.1939
30547W        W46681  18.722  17.526   5.514 -0.1925 -0.1513  0.1285
30548W        W46682  10.308  16.797   3.113 -0.2251  0.2496  0.1429
30549W        W46683   9.653  13.233   3.063  0.2352  0.2702  0.0992
30550W        W46684  10.061   3.393  12.340 -0.1511  0.1207 -0.2955
30551W        W46685  17.104  14.236   3.417 -0.0627 -0.1094 -0.1415
30552W        W46686   2.376  10.755  13.220 -0.0266  0.0987  0.2173
30553W        W46687  16.010  16.067   4.316 -0.2589  0.0009  0.0504
30554W        W46688   8.468   4.265   3.567  0.0120 -0.1838 -0.3424
30555W        W46689   8.624   2.730   3.409 -0.3391 -0.0620  0.4172
30556W        W46690   5.138  12.805   1.495  0.0266 -0.1003  0.2021
30557W        W46691   5.225  17.797  12.249 -0.0704 -0.1210 -0.0442
30558W        W46692  15.165  11.971  11.422 -0.0815  0.1230 -0.3149
30559W        W46693   0.597  12.228   4.502 -0.0568  0.1923  0.2527
30560W        W46694   8.610   4.585   0.565 -0.1055 -0.1456 -0.1579
30561W        W46695   3.705   8.787  14.471  0.1917 -0.1736 -0.2300
30562W        W46696  17.711  17.570   2.460 -0.0640  0.0081 -0.0053
30563W        W46697  14.230  16.595   1.050  0.0450  0.2372  0.0784
30564W        W46698  12.193  18.684  10.914  0.2592  0.0273  0.3570
30565W        W46699   7.088   4.544   1.188  0.0263 -0.0352 -0.1564
30566W        W46700  13.495  16.310   0.592 -0.0089  0.1887 -0.0214
30567W        W46701  11.060   7.611  14.163 -0.1175  0.1434 -0.2355
30568W        W46702  18.866  11.806   1.175  0.0248 -0.0574 -0.0197
30569W        W46703   8.060  13.949  11.127  0.2536 -0.3302 -0.1911
30570W        W46704  13.563   7.650   2.414 -0.4265 -0.1003  0.1731
30571W        W46705  14.706   1.288   5.373 -0.1449  0.1429 -0.2455
30572W        W46706   0.696   2.015   0.908 -0.2449  0.2573 -0.0974
30573W        W46707  17.673  10.855  14.212  0.2864 -0.3001 -0.1262
30574W        W46708   6.370   9.631   2.014  0.0588  0.0782 -0.3077
30575W        W46709   6.030   6.297   1.950  0.0020 -0.0903 -0.1837
30576W        W46710  16.157  13.773   0.453 -0.0970 -0.0990  0.2710
30577W        W46711   2.441  17.210   3.158 -0.3000 -0.2527  0.1602
30578W        W46712   8.997   3.039   3.621  0.2341 -0.0081  0.1600
30579W        W46713   5.359   2.609  10.719  0.4457 -0.0276 -0.1590
30580W        W46714   9.829   0.122  13.573 -0.0829 -0.0181 -0.3673
30581W        W46715  11.515   6.072   0.440 -0.0472  0.0431 -0.2188
30582W        W46716  10.438  10.712   4.049  0.0852  0.1455 -0.0508
30583W        W46717   4.431   7.765   2.507  0.1956 -0.1556 -0.3516
30584W        W46718  10.937   0.687  10.773  0.2175 -0.0004  0.0552
30585W        W46719  11.301   8.645   1.222  0.0847 -0.1973 -0.2195
30586W        W46720  12.117   5.699   5.267 -0.2537  0.0425  0.0859
30587W        W46721   7.890  14.367   2.983 -0.1058  0.1497  0.1262
30588W        W46722  16.559  12.040   4.546 -0.0227  0.2305  0.0240
30589W        W46723  17.543   4.148  11.603  0.2021 -0.0374  0.0700
30590W        W46724  16.107  12.451   3.675  0.0796  0.1830 -0.3716
30591W        W46725  16.511  10.857  11.450  0.2495  0.1811  0.2613
30592W        W46726   3.410  17.291   3.994 -0.4154  0.1360  0.1485
30593W        W46727  11.501  13.728   3.522  0.3740  0.1315  0.3367
30594W        W46728  10.310  12.543  11.473  0.0690 -0.0128  0.0637
30595W        W46729   0.701   7.071   3.030 -0.1846 -0.1449 -0.0030
30596W        W46730   1.078  17.827   4.485 -0.0870 -0.0669  0.0475
30597W        W46731   1.736   2.305   2.815 -0.1093 -0.0288 -0.2008
30598W        W46732  14.102   8.496   2.098  0.0744  0.2036 -0.2942
30599W        W46733  10.539   7.707   5.072  0.0823 -0.1206  0.2453
30600W        W46734  17.661  14.627   2.165 -0.3593 -0.0706 -0.1536
30601W        W46735   3.830  12.345  13.070  0.1396 -0.3043 -0.2310
30602W        W46736   4.532   8.095  10.405 -0.1362 -0.1702  0.2271
30603W        W46737  14.951   1.416   1.511  0.0483  0.1128  0.0986
30604W        W46738   1.451   6.650  13.124  0.3409  0.2468 -0.0938
30605W        W46739   8.503  18.087   3.135 -0.0041  0.3873 -0.1099
30606W        W46740   6.109  13.201   5.374  0.0360 -0.1410 -0.4499
30607W        W46741   0.539  18.084  10.597 -0.0775 -0.0250 -0.1255
30608W        W46742   5.311  14.583   0.631  0.3784  0.0277  0.1422
30609W        W46743   6.880  16.318   2.291 -0.2662 -0.3088  0.0160
30610W        W46744  17.114   4.489  14.300  0.0263  0.0404  0.0285
30611W        W46745  16.876  10.072   4.713  0.1303  0.0765  0.2335
30612W        W46746  17.656  18.415  11.367  0.0920  0.4052  0.4126
30613W        W46747   8.059  18.127  14.492  0.0181  0.0017  0.2444
30614W        W46748   5.603   2.883   1.804 -0.2343 -0.1366 -0.1081
30615W        W46749   3.268  16.455   1.860 -0.3246 -0.2240  0.0614
30616W        W46750  16.339  17.094  11.311 -0.0664 -0.0236  0.0754
30617W        W46751   6.731  10.406   3.896  0.2369 -0.0265  0.0190
30618W        W46752  10.709   1.158  14.188 -0.1146  0.2403 -0.1618
30619W        W46753   7.596  15.634  12.833  0.0725 -0.0509  0.0665
30620W        W46754  18.970   1.434   2.518  0.0217  0.0404  0.1257
30621W        W46755   1.844   8.623  11.641 -0.5864  0.1213 -0.1531
30622W        W46756   9.812   6.882  14.257 -0.1176  0.1608  0.2009
30623W        W46757  11.529  18.987  12.125  0.0249 -0.2484 -0.1368
30624W        W46758  11.065   1.862   1.246  0.0937  0.1283 -0.2532
30625W        W46759  16.108  17.036  13.410  0.0708 -0.0290 -0.0331
30626W        W46760   9.144   3.944  13.386 -0.2383  0.3230 -0.1745
30627W        W46761   6.483  15.502  10.771 -0.1267 -0.0309 -0.2113
30628W        W46762   3.149  15.719   1.236  0.2275  0.1093 -0.0763
30629W        W46763   6.714  15.378  12.376  0.0190 -0.0476 -0.3366
30630W        W46764  10.528  11.918   1.890 -0.3331  0.2448  0.1662
30631W        W46765  14.984   7.263   0.578  0.0795  0.0529  0.0781
30632W        W46766  11.069  12.662   2.182 -0.2607  0.1540 -0.3294
30633W        W46767  18.039  14.682  10.694  0.0054 -0.0299 -0.1933
30634W        W46768  11.559   4.213  10.406  0.2234 -0.1418 -0.0650
30635W        W46769  12.422  13.649  14.051  0.1968 -0.2932 -0.1041
30636W        W46770  11.481  14.921  14.424 -0.2255 -0.0338  0.0973
30637W        W46771  13.195  14.339   1.100 -0.0714 -0.0255  0.3090
30638W        W46772  10.074   9.770   5.421 -0.0711 -0.0741 -0.2346
30639W        W46773   1.300  10.944   2.524  0.1295 -0.0855  0.2120
30640W        W46774   4.598   2.520   4.945 -0.1030 -0.3970 -0.0764
30641W        W46775   1.140  13.513   2.372 -0.2623 -0.0351 -0.2133
30642W        W46776   2.293  13.564  12.160 -0.0026  0.0843  0.1490
30643W        W46777   1.367   9.553   3.945 -0.3591 -0.0914 -0.4347
30644W        W46778  15.201  12.494   5.279 -0.1880  0.2364  0.2815
30645W        W46779   7.782   6.169  15.286  0.0604 -0.0005 -0.2428
30646W        W46780   1.180  16.169   1.750 -0.0726 -0.0911  0.0739
30647W        W46781  11.403  10.252   1.197 -0.4178 -0.0836  0.0024
30648W        W46782   7.046   7.899   4.871  0.2455 -0.2415  0.2265
30649W        W46783  16.717   4.260  15.233 -0.0168  0.1420  0.3034
30650W        W46784  16.179  10.561  14.094  0.1075 -0.0412 -0.0443
30651W        W46785  18.532   7.593  11.738  0.1507  0.2284  0.0019
30652W        W46786  18.810  10.130  12.540  0.0447  0.3134  0.0151
30653W        W46787   2.329   8.355  10.831 -0.4694 -0.1567 -0.0081
30654W        W46788   3.114   0.561   0.591 -0.0060  0.0733 -0.0099
30655W        W46789   5.403   9.592   3.236 -0.0789  0.1887  0.0344
30656W        W46790  15.349   0.666   1.162 -0.1326 -0.1453  0.0830
30657W        W46791   0.413  16.642   2.749  0.2487 -0.3367 -0.1804
30658W        W46792  15.070  18.156   1.624 -0.0239 -0.3357  0.0196
30659W        W46793   6.160  15.454   2.940 -0.3887 -0.0926  0.0270
30660W        W46794   8.081   0.599  11.092  0.1805 -0.0231  0.1888
30661W        W46795   1.532   3.588  11.528  0.0334  0.0832 -0.1840
30662W        W46796  15.466  12.191  11.069 -0.3520  0.2876 -0.2381
30663W        W46797  18.643   5.600  13.247  0.3348 -0.0282  0.1924
30664W        W46798   4.158  17.870   0.599 -0.1362  0.0523 -0.2657
30665W        W46799   1.848   9.679   4.139 -0.0937 -0.0942  0.2463
30666W        W46800  14.353   2.757  10.455  0.3960  0.0386 -0.0329
30667W        W46801   5.163  17.476   0.413  0.0223 -0.1136 -0.5419
30668W        W46802   4.825   9.577  14.689  0.1464  0.1292 -0.2797
30669W        W46803   1.792  10.471   5.933 -0.4215  0.0241 -0.2543
30670W        W46804   4.177   3.617  12.913 -0.0609  0.0099 -0.4150
30671W        W46805  16.257   8.042  15.091  0.2077  0.0091  0.1545
30672W        W46806  15.174   5.840   4.476  0.1150  0.0172  0.2174
30673W        W46807   5.869   9.237   0.790  0.0638 -0.0833  0.0443
30674W        W46808   1.532   7.295   4.127 -0.0487  0.0062  0.4110
30675W        W46809   9.796  16.988   4.319 -0.0018 -0.1935 -0.0404
30676W        W46810   6.066   0.565   1.109 -0.0339 -0.0701 -0.2754
30677W        W46811  12.206  13.917  14.398  0.1233 -0.0754 -0.2514
30678W        W46812   2.808  11.237   2.191  0.1640 -0.0421 -0.1716
30679W        W46813  13.530  16.061  11.054  0.3790 -0.0785 -0.3295
30680W        W46814   9.675   7.725   3.178 -0.0445 -0.3233  0.1846
30681W        W46815  11.555   5.236  12.132 -0.1047  0.1557 -0.2407
30682W        W46816   8.949  14.965   4.741 -0.1950 -0.1142  0.3388
30683W        W46817  17.543   3.618   2.497 -0.3372 -0.3209  0.2153
30684W        W46818   4.333  12.495  12.010 -0.1408 -0.0122  0.1267
30685W        W46819   1.875  10.266  15.255 -0.0867  0.2480 -0.3308
30686W        W46820  10.619   7.937  13.204  0.1167  0.2325 -0.2690
30687W        W46821  10.170  18.218   2.125 -0.2987 -0.0478 -0.0196
30688W        W46822   2.055  17.234  14.421  0.1913 -0.0485  0.0015
30689W        W46823   1.951  11.173   1.331 -0.0386  0.0271 -0.0720
30690W        W46824   4.604  17.939  11.078  0.0081  0.0296  0.0153
30691W        W46825   4.043   8.134  10.658 -0.2596 -0.1677  0.2425
30692W        W46826  17.955   5.045   1.961  0.1746  0.2001  0.3063
30693W        W46827   8.880   6.833   1.189 -0.2629 -0.0453  0.1691
30694W        W46828   8.964   4.137  14.881 -0.0838  0.0505  0.1220
30695W        W46829  18.654  14.978  12.272 -0.1028 -0.1744  0.0178
30696W        W46830  11.241   5.985  11.899  0.1269 -0.2039 -0.1147
30697W        W46831  12.708  14.776   4.650 -0.4134 -0.2011  0.1343
30698W        W46832   1.179   2.375   1.944  0.2348 -0.0874  0.2503
30699W        W46833   9.535  15.209   1.821 -0.0616 -0.0357  0.0080
30700W        W46834   5.444   9.345  11.328  0.5034  0.4805  0.1223
30701W        W46835   1.471  16.004   4.447  0.0801 -0.0050  0.1109
30702W        W46836   9.772   1.467  14.926 -0.2816 -0.0551 -0.2335
30703W        W46837   4.531   9.456   9.890 -0.3881  0.3950 -0.4879
30704W        W46838   7.351  15.302   1.883 -0.0113 -0.0133  0.3142
30705W        W46839  18.281  17.394  15.259  0.1213 -0.0109 -0.0391
30706W        W46840  17.325  17.829   2.815  0.0490  0.3301  0.0335
30707W        W46841   9.009  11.150  10.887  0.3622 -0.1395  0.2330
30708W        W46842  18.969  12.546   2.401  0.3266  0.1316 -0.1398
30709W        W46843   0.882   9.330  11.774  0.1096  0.1497 -0.1757
30710W        W46844   5.869  18.074   0.236  0.0393 -0.2633  0.0372
30711W        W46845  10.815   9.043  14.000  0.2868  0.0438 -0.0817
30712W        W46846  13.713   7.629   5.209  0.1418 -0.2558 -0.1031
30713W        W46847  14.947   9.276  14.168 -0.1012  0.2865 -0.3735
30714W        W46848   2.364   3.184   2.999 -0.0784  0.1400 -0.3767
30715W        W46849   2.024   2.793   5.262 -0.1586 -0.1360 -0.2970
30716W        W46850   0.923  11.412  11.199  0.2687 -0.2161 -0.0565
30717W        W46851   2.810   5.838   4.096  0.1530 -0.1120  0.0496
30718W        W46852   5.331   5.133  15.221 -0.0437 -0.4921 -0.0788
30719W        W46853   7.960   8.126   2.353  0.1780  0.0542 -0.0526
30720W        W46854  15.097   1.339   3.166  0.0523 -0.2140  0.1311
30721W        W46855  11.815  14.677  12.578 -0.1606 -0.0821  0.1022
30722W        W46856   4.138   9.293  14.760  0.4691  0.1630  0.1658
30723W        W46857  17.170  10.910  12.935  0.0458 -0.1097 -0.2030
30724W        W46858   2.896  13.947   0.577  0.3196  0.2094 -0.2618
30725W        W46859   7.831  13.247   3.057 -0.0422 -0.1637  0.2101
30726W        W46860   4.822  14.466  12.653  0.3283 -0.1852 -0.0429
30727W        W46861   3.722   6.681  11.356  0.1029  0.1168 -0.0545
30728W        W46862   0.548  11.194  13.072  0.0881 -0.0953  0.1826
30729W        W46863   4.071  14.695   0.071  0.1379  0.2805 -0.1181
30730W        W46864   9.738   0.417   4.305 -0.0347  0.2592  0.0365
30731W        W46865   3.377  14.153   0.744 -0.1158  0.2389 -0.2566
30732W        W46866   7.998   3.662   4.503  0.1989  0.0591 -0.4104
30733W        W46867   5.683   6.344   0.205 -0.1087 -0.1963 -0.1330
30734W        W46868  10.868   3.495  12.923  0.1009 -0.1220  0.3149
30735W        W46869   2.584  10.288  10.983  0.2015 -0.1738 -0.2484
30736W        W46870  18.751  11.985  14.702 -0.0331  0.0069 -0.1351
30737W        W46871   1.422   4.109   0.282 -0.0617 -0.2408  0.0427
30738W        W46872   1.607   6.058  14.639 -0.0526  0.1176  0.0081
30739W        W46873  14.133   9.895   3.007 -0.1675  0.1440  0.0715
30740W        W46874   3.146   7.144   2.229 -0.2751  0.1701 -0.2212
30741W        W46875   4.469  14.903  11.397  0.1036 -0.0572  0.1142
30742W        W46876   4.807  12.904   3.442 -0.0761  0.2222  0.1569
30743W        W46877  10.955  16.915  10.925 -0.2933 -0.0663  0.0975
30744W        W46878  12.864   0.758   9.661 -0.1917 -0.5851 -0.0489
30745W        W46879  10.019   4.404  12.608  0.3911  0.0586 -0.1265
30746W        W46880   2.040  16.933  11.243  0.1342 -0.0737  0.2320
30747W        W46881   7.996   2.575  14.600 -0.3466 -0.3397  0.1174
30748W        W46882   0.672   8.599  14.007 -0.0797  0.0053 -0.3276
30749W        W46883  17.437   7.792   3.697 -0.0144 -0.3058 -0.1757
30750W        W46884   5.234  16.226   2.022 -0.3180 -0.3026 -0.0617
30751W        W46885  12.698  14.753   3.275 -0.0092 -0.1593  0.1107
30752W        W46886  17.431  10.819  11.297 -0.1348 -0.4221 -0.0214
30753W        W46887   6.590  17.871   1.345 -0.3101  0.3489 -0.3287
30754W        W46888  17.736   1.772  12.271  0.0463  0.1626  0.0259
30755W        W46889  18.577   7.957  10.873 -0.0618  0.1596 -0.1341
30756W        W46890   0.579   3.443   2.434 -0.2257  0.4210  0.2390
30757W        W46891   7.699  15.563  11.497  0.1575  0.0142  0.3686
30758W        W46892   6.933  11.119  11.106 -0.0001 -0.3235  0.1963
30759W        W46893   1.824   7.750   0.993  0.2004  0.1385  0.1339
30760W        W46894   0.060   5.395  14.478 -0.1377  0.3290  0.0471
30761W        W46895  14.921  17.029  14.763 -0.2422 -0.3784 -0.0818
30762W        W46896   4.943  14.691   5.022 -0.1079 -0.0500 -0.1805
30763W        W46897   7.750   1.691  11.323  0.0511 -0.1082  0.2224
30764W        W46898  15.280  10.958   4.182 -0.0129 -0.0817  0.1957
30765W        W46899   3.707   8.638   4.620 -0.0284  0.1744 -0.0105
30766W        W46900  12.817   8.104   2.011 -0.1355  0.1605  0.0459
30767W        W46901  10.646  15.930  14.560  0.0483 -0.2624 -0.1878
30768W        W46902  14.969  12.477   1.781  0.1534  0.0329  0.0395
30769W        W46903   6.595  10.691  13.965 -0.1868 -0.0674  0.0591
30770W        W46904  18.644   5.564  11.374  0.0848 -0.0587  0.3810
30771W        W46905  18.742   8.720   2.645 -0.0737  0.1020  0.0509
30772W        W46906  16.596  10.343   5.024  0.2442 -0.1520 -0.0252
30773W        W46907   8.134  10.563   1.594  0.5417  0.2511 -0.2561
30774W        W46908  10.748   8.547  13.836  0.0191 -0.0163 -0.0329
30775W        W46909   4.271  14.495   4.844  0.1653  0.2797  0.1604
30776W        W46910   0.789  18.391  14.782 -0.0811  0.0587 -0.0134
30777W        W46911   4.361   2.077  10.022  0.1474 -0.1878  0.2658
30778W        W46912   8.674  10.481   2.626  0.0807  0.0002 -0.0940
30779W        W46913  14.982   7.626   3.779 -0.1874 -0.1290  0.1702
30780W        W46914  17.238   6.863   2.823 -0.0999  0.0332  0.1094
30781W        W46915   3.166   5.790   3.380 -0.1467 -0.2937  0.0430
30782W        W46916   1.848  13.182  10.975 -0.0710 -0.1234  0.4247
30783W        W46917  10.103  18.807   2.521  0.0386  0.0874 -0.1397
30784W        W46918  11.472  16.721  10.336  0.0997 -0.2531 -0.0066
30785W        W46919  12.834  17.605  11.992 -0.1482 -0.0900  0.0947
30786W        W46920   8.901  16.570   2.088  0.1207 -0.2528 -0.2508
30787W        W46921   6.722   9.195  13.299  0.0923  0.1619 -0.1934
30788W        W46922   9.279   9.293   5.171  0.1989 -0.0499 -0.0071
30789W        W46923  17.812   7.079   5.301 -0.0545 -0.2008 -0.3017
30790W        W46924   0.691   2.029  13.510  0.3290 -0.2114 -0.3084
30791W        W46925   1.887  18.983   0.157 -0.0758  0.0342 -0.2563
30792W        W46926  17.676   5.336   0.881 -0.0950 -0.0709  0.1230
30793W        W46927   4.630  14.596  13.616 -0.1999 -0.1284  0.2546
30794W        W46928  13.342  14.863   5.068  0.0281 -0.0855 -0.0116
30795W        W46929  12.366   8.263   2.421  0.0708 -0.1835  0.1547
30796W        W46930  16.193   3.718   1.550 -0.2697 -0.0220  0.0421
30797W        W46931  13.956   8.161   0.021 -0.2161 -0.1288 -0.0808
30798W        W46932   0.932   8.847   5.984  0.1026 -0.1388 -0.0648
30799W        W46933   1.011   4.135   9.915 -0.0377  0.0066  0.5253
30800W        W46934  14.406  12.150  12.213  0.2986 -0.2008 -0.2628
30801W        W46935   0.858   7.848   1.297  0.2077 -0.3997  0.0928
30802W        W46936  11.680   7.602  12.473 -0.0104 -0.2690  0.1030
30803W        W46937  14.288  16.043  13.337 -0.0474  0.1735 -0.1353
30804W        W46938  13.986  11.655   4.898  0.0558 -0.0532  0.0592
30805W        W46939   6.063   6.284  13.866  0.0508  0.2754 -0.0769
30806W        W46940  13.118   0.282   0.485  0.1847 -0.2292  0.2463
30807W        W46941   7.785  15.989  11.259  0.0879 -0.1364  0.7570
30808W        W46942   5.562   4.233   0.894  0.0724 -0.2777  0.0628
30809W        W46943   6.260   7.749   0.974  0.0695  0.2367  0.0179
30810W        W46944   5.261  10.158   1.412 -0.1117  0.1039  0.3175
30811W        W46945   1.529  14.265   2.871  0.1499 -0.3975  0.1940
30812W        W46946   6.875  10.037  13.469 -0.0130 -0.1634 -0.2223
30813W        W46947   0.181  16.639   3.303 -0.2513  0.0976  0.1790
30814W        W46948   1.950   5.651  14.639  0.0689  0.1212  0.2283
30815W        W46949  16.571   3.767  13.709 -0.1077  0.0401 -0.1341
30816W        W46950   0.547   0.049  11.028 -0.0022 -0.1135 -0.2457
30817W        W46951   3.679  15.047   5.737  0.1349  0.0081 -0.1857
30818W        W46952   6.093   6.862  13.673 -0.1155  0.2266 -0.0560
30819W        W46953  12.507  11.823  11.466  0.0666  0.1631 -0.0311
30820W        W46954   7.144  10.734   0.651  0.0216  0.1056  0.1938
30821W        W46955   8.802   5.877   0.116 -0.3013  0.2904 -0.2262
30822W        W46956   8.364  18.865  10.735 -0.1166  0.1649  0.1278
30823W        W46957  13.528   6.442   0.737  0.0441  0.1694  0.0393
30824W        W46958  18.681   8.038  15.064  0.1154  0.0355  0.0492
30825W        W46959   3.147   1.697   1.042  0.0743 -0.1651  0.3114
30826W        W46960   8.409  13.650  12.262  0.1294  0.0517  0.2549
30827W        W46961   9.467  18.815  13.383  0.0699 -0.0295  0.0379
30828W        W46962   3.161  18.260   0.248 -0.1346 -0.1994  0.1936
30829W        W46963   6.369   1.967  10.247  0.2884 -0.1130 -0.1272
30830W        W46964  16.032   8.245   0.494 -0.2840 -0.0366 -0.1857
30831W        W46965   1.522  17.309  14.471  0.0639 -0.2318 -0.2645
30832W        W46966   0.490  12.269  14.132  0.0347 -0.0171  0.1116
30833W        W46967   9.402  12.898   5.862  0.2129 -0.0969 -0.1877
30834W        W46968   3.582   4.116  13.705  0.3938  0.3410 -0.0990
30835W        W46969  11.599   2.968   0.208 -0.1278 -0.0669 -0.0900
30836W        W46970  18.519   0.611   2.967  0.0225 -0.0675  0.0623
30837W        W46971  11.035  11.483  10.700 -0.0176 -0.2219  0.1192
30838W        W46972   1.229   3.297  10.451 -0.1465 -0.3171  0.0289
30839W        W46973   6.616  16.269  12.099 -0.0391  0.1530  0.1113
30840W        W46974  10.339  13.414  12.753  0.0216 -0.0145  0.1025
30841W        W46975   4.383  12.298   3.893  0.3023  0.2143  0.2644
30842W        W46976  11.095   9.493  14.439  0.1252  0.1816  0.0187
30843W        W46977   1.299   6.432  14.567  0.0022 -0.0649 -0.1527
30844W        W46978  12.928   1.616  11.446  0.1866  0.2436 -0.0725
30845W        W46979  12.604  15.853  14.062 -0.0234 -0.1528 -0.0770
30846W        W46980   1.729  11.396   9.754  0.0274 -0.1599 -0.1619
30847W        W46981  11.783  16.412   2.048 -0.1678  0.1067  0.0602
30848W        W46982  14.498  13.486   4.054 -0.1159  0.2669  0.1328
30849W        W46983   3.518   6.942  10.810 -0.0741  0.0675  0.0410
30850W        W46984   6.663  12.140  10.837  0.0681  0.0574 -0.1362
30851W        W46985   6.163  17.872   3.696 -0.1068  0.0187  0.0648
30852W        W46986  15.790   9.541   1.134  0.0916 -0.1948  0.1969
30853W        W46987  11.021  14.214   1.613  0.0343  0.2576 -0.1121
30854W        W46988   2.392   0.885  13.438 -0.0222  0.0376  0.3545
30855W        W46989   2.249   4.298   0.271  0.2162  0.0569 -0.0023
30856W        W46990  15.932  13.793  13.626  0.0389 -0.1287  0.3361
30857W        W46991  19.004   5.943   1.887  0.1209 -0.0566 -0.4024
30858W        W46992   5.834  17.357  10.943 -0.1633  0.2173  0.1129
30859W        W46993  16.855   2.923  12.008 -0.0298 -0.0645  0.2255
30860W        W46994   6.291   0.086   2.968 -0.2103 -0.0491  0.0145
30861W        W46995   5.255   6.424  13.016 -0.1764 -0.0540  0.0240
30862W        W46996   7.772  10.171  10.883 -0.1745 -0.1069 -0.2375
30863W        W46997   6.933   8.379   0.703  0.4125 -0.2044 -0.2383
30864W        W46998  17.881   0.033   2.565  0.0862  0.2974  0.0559
30865W        W46999  17.326   9.687   0.359 -0.2019 -0.0801 -0.0368
30866W        W47000  18.717  14.790   0.403 -0.3748 -0.0342  0.0492
30867W        W47001  10.901   7.121   2.745 -0.2012 -0.2265  0.0304
30868W        W47002   8.783   2.684   2.217 -0.0537  0.0539 -0.1484
30869W        W47003  16.242  14.436   2.881 -0.0489  0.2044 -0.0325
30870W        W47004   0.463   4.328   4.041 -0.0186  0.2222  0.2973
30871W        W47005  18.311   6.546   0.146  0.0485  0.0153  0.0488
30872W        W47006   9.932  10.985  15.134 -0.0621 -0.1789 -0.0533
30873W        W47007  10.007   5.922  10.233 -0.0749  0.0417  0.1262
30874W        W47008  15.880   2.154  13.960 -0.1584  0.2272 -0.0953
30875W        W47009   0.811  12.504   3.406 -0.0821 -0.0930 -0.1657
30876W        W47010   8.564   6.581  13.733  0.2348  0.0180  0.1661
30877W        W47011  15.828   2.274   5.753 -0.4567 -0.0516  0.1868
30878W        W47012  12.462   4.816   4.141 -0.2317 -0.1427 -0.0969
30879W        W47013  10.477  12.028  11.355 -0.1549  0.1179  0.0164
30880W        W47014  16.670   5.304   0.890 -0.0485 -0.0362 -0.2846
30881W        W47015  18.545   6.239  11.091 -0.1846  0.1568  0.1576
30882W        W47016  12.274  11.427  15.184  0.0019  0.1690  0.0040
30883W        W47017  13.304   4.685   9.983  0.1859  0.4158 -0.0845
30884W        W47018   0.833  13.416  12.762 -0.0747  0.1431 -0.1420
30885W        W47019  16.775   0.813  10.360 -0.1064  0.2066  0.0904
30886W        W47020   0.726   8.792  12.018 -0.1498  0.0144 -0.3505
30887W        W47021   2.369  15.977   4.928 -0.1280  0.2944 -0.0548
30888W        W47022   7.134  14.259   3.742 -0.1720  0.2593  0.5185
30889W        W47023  16.776  16.918   5.974  0.0340  0.0497 -0.0522
30890W        W47024   9.442   8.916  12.415  0.0970 -0.1006 -0.3327
30891W        W47025  11.546  11.050   0.603  0.1442  0.1637  0.0067
30892W        W47026   9.340  10.571   4.982  0.0562 -0.0487  0.1165
30893W        W47027   4.933   3.680   4.808  0.2194 -0.1603  0.1610
30894W        W47028   4.989   9.630  13.528 -0.1903  0.1540 -0.3264
30895W        W47029   4.388   4.420  10.507 -0.0214  0.2204 -0.0543
30896W        W47030   3.438   5.906  11.980 -0.0335  0.0475 -0.0106
30897W        W47031   8.847   4.350   9.361  0.2299  0.0676  0.2603
30898W        W47032   3.238  14.214   2.800 -0.0456 -0.3336  0.0283
30899W        W47033  16.996  17.309  13.589  0.2025 -0.2571  0.1519
30900W        W47034  17.499   4.617   2.594  0.0121 -0.2107 -0.2480
30901W        W47035   1.026   5.139   0.533 -0.0108  0.0913 -0.1923
30902W        W47036  10.512   8.950   2.084  0.2781  0.0115 -0.0975
30903W        W47037  13.049  16.505  12.805 -0.0495  0.2311 -0.1438
30904W        W47038  10.631  17.120  14.940 -0.1980  0.4100 -0.0729
30905W        W47039   5.300  12.717   3.333 -0.1177  0.1652 -0.0509
30906W        W47040   8.372   8.946  10.829 -0.2832 -0.1101  0.2134
30907W        W47041   8.007   2.875  10.612 -0.2216 -0.0212 -0.1214
30908W        W47042   5.872   8.217   2.404  0.2860  0.0044 -0.0261
30909W        W47043   4.056  17.700  12.567  0.0879  0.1856  0.3530
30910W        W47044   9.435  15.710   4.174 -0.3449 -0.2998 -0.1012
30911W        W47045  15.059  17.077   4.991 -0.2540  0.3302  0.2404
30912W        W47046   8.382   2.619  14.941  0.1005 -0.0370  0.0060
30913W        W47047   4.153  14.115   2.994  0.4095 -0.2030  0.1038
30914W        W47048   2.314  16.220  12.432  0.0679  0.1514 -0.1305
30915W        W47049   9.551   1.437   2.695 -0.3807  0.3748  0.0606
30916W        W47050   0.884   9.608  12.902 -0.0103 -0.2780 -0.0503
30917W        W47051   6.096  14.031   0.277  0.1159  0.2335  0.2246
30918W        W47052  16.524  12.222   0.491  0.2115 -0.1099  0.4288
30919W        W47053   2.681  15.514  12.932 -0.3891  0.0790  0.2516
30920W        W47054   4.918   5.305  13.721  0.3715 -0.2241 -0.1725
30921W        W47055   3.627  13.972  14.958 -0.0597  0.1579 -0.1806
30922W        W47056  13.448  10.148  11.123  0.0668 -0.2734  0.0117
30923W        W47057   7.693  10.634   4.145 -0.1135  0.2450 -0.0587
30924W        W47058  14.502   2.910   4.485  0.1373 -0.0346 -0.1201
30925W        W47059   6.394   3.826   3.881 -0.1425  0.1898 -0.1513
30926W        W47060   5.278   9.180   1.518 -0.2111  0.0599 -0.1779
30927W        W47061  16.580   9.644   1.497 -0.3787 -0.4337  0.1142
30928W        W47062   5.994  16.573   0.401 -0.0153 -0.0060  0.1893
30929W        W47063  16.007   6.179  10.730 -0.2208  0.1814  0.0728
30930W        W47064  16.461  10.858  13.746  0.1552 -0.0896 -0.0490
30931W        W47065  11.174  17.553   1.425 -0.3116  0.0814  0.3555
30932W        W47066   7.250   9.645  11.388  0.0932  0.2447 -0.2283
30933W        W47067  12.954  18.177   1.230  0.3866 -0.1282 -0.3660
30934W        W47068   3.916  10.548   0.207 -0.1696  0.1135  0.0331
30935W        W47069   1.669   6.059   3.278 -0.1149 -0.1109  0.3042
30936W        W47070  14.375  14.470   0.783 -0.1019  0.0097  0.0691
30937W        W47071  13.596  12.045   4.815  0.1442  0.3170  0.0753
30938W        W47072  12.552  13.768  13.239 -0.7402 -0.2650 -0.2153
30939W        W47073   6.840   4.821  12.387  0.1018  0.0512  0.2060
30940W        W47074  17.806   0.419  11.088  0.0429  0.3031 -0.0073
30941W        W47075   3.838  12.232  14.220 -0.2572  0.2791  0.3077
30942W        W47076  11.136   3.196  13.589  0.0164  0.4720  0.3503
30943W        W47077  12.446  11.696   1.973  0.2836 -0.2139 -0.0301
30944W        W47078   8.546  10.502   4.140 -0.0028 -0.1773 -0.0499
30945W        W47079  12.170   0.847   2.196  0.0535 -0.1735  0.1710
30946W        W47080  18.145   9.116   3.955  0.3653  0.0767 -0.2266
30947W        W47081  10.337   6.506  13.355  0.1308 -0.1840  0.2277
30948W        W47082  12.448   0.687   9.878  0.1625  0.3557 -0.0685
30949W        W47083   7.128   5.275  14.766 -0.0043  0.2288  0.1597
30950W        W47084  18.368  13.532   5.907  0.0657  0.1668  0.2842
30951W        W47085  13.647   5.939   0.770  0.1131 -0.0767  0.0359
30952W        W47086  15.749   2.931   3.015 -0.0151  0.2306  0.0826
30953W        W47087   1.521  10.665   0.051  0.3496 -0.1210  0.2703
30954W        W47088   6.843  15.938  11.763  0.0443  0.0040 -0.1146
30955W        W47089  14.028  14.957   1.236 -0.1556 -0.0622 -0.2734
30956W        W47090   6.092  12.275  12.550 -0.1411  0.1181 -0.1198
30957W        W47091   5.180  17.937  13.811 -0.0030 -0.0157 -0.0310
30958W        W47092   3.195  13.051   2.591  0.0159 -0.0862 -0.0140
30959W        W47093   7.230   3.696   1.054 -0.3266  0.1594  0.3542
30960W        W47094   8.672   0.319  11.914  0.2592  0.0215 -0.2704
30961W        W47095  16.120   7.686  10.726 -0.0163  0.0675  0.1366
30962W        W47096  10.069  14.954   2.560 -0.1651 -0.1934 -0.1464
30963W        W47097   2.177  18.968   2.728 -0.0497 -0.3684 -0.0605
30964W        W47098   2.579  18.157  13.521 -0.4169  0.2878 -0.0109
30965W        W47099   8.680  11.566   5.056  0.1883  0.0830  0.0301
30966W        W47100  14.543   4.145   1.137  0.2549 -0.1353  0.0961
30967W        W47101   9.442  10.829   4.171 -0.0210  0.0924 -0.1877
30968W        W47102   6.287   3.175   0.566  0.1972  0.0281 -0.1285
30969W        W47103   1.476   8.187   0.716 -0.0879  0.0129 -0.2141
30970W        W47104   0.483   5.073  14.659  0.1674 -0.2097  0.0586
30971W        W47105   3.675   4.627  13.622  0.2363  0.2860 -0.3114
30972W        W47106  14.374  18.017  11.930  0.2158  0.2091 -0.0140
30973W        W47107   9.631  14.920  10.366  0.0900  0.3671 -0.0311
30974W        W47108   5.057   1.338   5.281  0.3171  0.1900 -0.0611
30975W        W47109  17.421  10.476   0.500 -0.1480  0.1438  0.2977
30976W        W47110   8.858   2.569   3.842 -0.0812  0.0327  0.1575
30977W        W47111   8.936  12.200  13.714 -0.2033  0.2143  0.0428
30978W        W47112   2.933  15.645   2.222 -0.1667  0.4224  0.2593
30979W        W47113   2.984   7.744  11.234  0.1605  0.1495  0.0564
30980W        W47114   3.804   3.576  10.890  0.0531 -0.2664 -0.2260
30981W        W47115   0.227  17.010   2.475  0.0937 -0.0016 -0.0862
30982W        W47116  17.303  12.468  11.890  0.1612  0.0770  0.0487
30983W        W47117  13.925  13.725   0.517 -0.2576 -0.1950 -0.3079
30984W        W47118   6.640  17.710  10.813 -0.1421  0.1268  0.2620
30985W        W47119  14.801  16.104   0.160 -0.0081 -0.2627 -0.2393
30986W        W47120  14.380  11.849   4.488 -0.1469 -0.1483  0.0283
30987W        W47121   8.964   9.309  10.283 -0.2207  0.0567 -0.0001
30988W        W47122  14.082  15.234   0.725 -0.3471 -0.0647  0.0845
30989W        W47123   2.965  13.994   5.313 -0.0245 -0.2518 -0.2710
30990W        W47124   7.118   7.426   3.294  0.1812  0.3474  0.1576
30991W        W47125  12.360  11.778   4.340 -0.1379  0.0402  0.0561
30992W        W47126   1.327   7.129  10.687 -0.0744  0.0459 -0.2387
30993W        W47127   2.705  15.490   1.018 -0.2307 -0.0865 -0.1548
30994W        W47128   2.112  14.297  14.228 -0.0263 -0.0011 -0.2020
30995W        W47129  17.772   0.250  13.241  0.1363 -0.0202 -0.1926
30996W        W47130   5.731   1.355   2.292  0.0761  0.0601  0.0633
30997W        W47131  14.685   7.822  14.002 -0.0899  0.2243 -0.2420
30998W        W47132   5.081  13.115  11.296 -0.1977  0.0477 -0.1672
30999W        W47133   1.682   4.677   3.395 -0.2970 -0.0262 -0.0013
31000W        W47134   9.091  15.028   4.249 -0.0006  0.2660  0.6451
31001W        W47135   9.320  18.443  14.914 -0.3879 -0.1045 -0.5041
31002W        W47136   5.829   7.317   0.083 -0.1141 -0.3261 -0.0389
31003W        W47137  14.834  12.575   5.712 -0.3595  0.0203 -0.1764
31004W        W47138   8.289   7.193  10.838 -0.0707  0.1705  0.0128
31005W        W47139  14.610   7.546  12.958 -0.1182  0.0182 -0.0938
31006W        W47140  12.019  18.182   2.598 -0.1203  0.1248 -0.1592
31007W        W47141   4.253  17.223   2.883  0.2853 -0.1728 -0.1087
31008W        W47142   2.106   7.653   3.862 -0.1418 -0.0689 -0.1495
31009W        W47143   3.335   5.133  12.498 -0.0886  0.0390  0.1109
31010W        W47144  12.198   5.853  11.538  0.0913  0.1712  0.2151
31011W        W47145   0.888   3.416   4.688  0.1051 -0.0358  0.1162
31012W        W47146  17.184   5.967   3.025  0.5638  0.0534  0.4039
31013W        W47147   9.753  15.663   4.531 -0.1479 -0.1566 -0.3797
31014W        W47148   3.095   0.586   1.362 -0.0015  0.1917 -0.0375
31015W        W47149   5.586   8.046  13.614 -0.0822  0.3417 -0.1271
31016W        W47150  10.543   1.706  14.171  0.4027 -0.1500  0.0059
31017W        W47151   3.565   3.231  10.527  0.1590 -0.0732 -0.0607
31018W        W47152  16.525   4.407  11.202 -0.2571 -0.0735  0.1045
31019W        W47153   2.862  11.572   1.674  0.1055 -0.2403 -0.0499
31020W        W47154   0.549  16.651   2.249 -0.2364  0.3864  0.2819
31021W        W47155   8.549   4.614   2.730 -0.0282  0.1152  0.0010
31022W        W47156   2.648   6.550  15.186  0.0514 -0.2497 -0.3192
31023W        W47157  10.824   9.759   4.721  0.0301 -0.0535  0.1218
31024W        W47158   9.520   6.851   2.519  0.4100 -0.0579 -0.1554
31025W        W47159   8.471   9.405   1.258  0.2814 -0.2006 -0.1772
31026W        W47160   6.197  14.287   1.645  0.2936 -0.1534  0.0329
31027W        W47161  16.385  14.280   1.656  0.3169 -0.1275  0.0641
31028W        W47162   0.960   5.626   4.395 -0.0898 -0.0287 -0.1791
31029W        W47163  18.634   0.697   3.457 -0.0102 -0.0085 -0.0569
31030W        W47164   3.844  12.399   3.583 -0.2629  0.1410 -0.3547
31031W        W47165   8.483  13.297  13.151 -0.2357  0.0397  0.1721
31032W        W47166  13.331  10.384   3.587  0.1783 -0.0610  0.2312
31033W        W47167   5.214  15.094  12.177 -0.3765  0.0117  0.1493
31034W        W47168   3.459  13.207  12.922  0.0027 -0.0604 -0.0381
31035W        W47169   5.331  12.213   0.275 -0.2156  0.0711 -0.2870
31036W        W47170  12.768   2.221  11.213 -0.1489  0.0751 -0.0040
31037W        W47171  11.700  16.885   1.247 -0.1750 -0.2226  0.1624
31038W        W47172   2.395   4.769   3.755  0.1838  0.1425  0.1786
31039W        W47173   6.508   7.000  12.052  0.2136  0.3744  0.1470
31040W        W47174   8.531  17.028   3.150 -0.1949 -0.2560  0.1415
31041W        W47175   9.442  15.518   2.816  0.4055 -0.0686 -0.0567
31042W        W47176   7.572   3.218  10.099  0.1398  0.0129 -0.1473
31043W        W47177   8.654   1.440   3.643 -0.0390  0.1391 -0.0491
31044W        W47178  16.359   6.798   1.336  0.0175  0.1600  0.1574
31045W        W47179  15.667  18.700   1.865  0.0317 -0.2083 -0.0832
31046W        W47180   2.724   3.794  13.812  0.1952 -0.1688  0.1943
31047W        W47181  18.795  14.023   0.321  0.3531 -0.0444  0.0231
31048W        W47182  10.130  10.603  13.973  0.1310  0.2505 -0.0992
31049W        W47183   9.279   4.130  10.149 -0.1905  0.2678  0.0519
31050W        W47184  15.559  12.675   0.126  0.1158 -0.2608 -0.0108
31051W        W47185   0.482   8.692   1.418 -0.0678  0.0822 -0.1327
31052W        W47186  14.641  11.008  13.000 -0.0246  0.0194  0.3367
31053W        W47187  16.573   1.862  12.411  0.0125  0.0180 -0.4186
31054W        W47188   7.968  13.069  14.720  0.1910  0.0677 -0.2194
31055W        W47189  18.142   5.845  13.121 -0.0734  0.0226 -0.0989
31056W        W47190   7.198  18.382  12.701  0.1363 -0.2223  0.2396
31057W        W47191   0.317   2.204  11.702 -0.2679 -0.0716  0.1261
31058W        W47192   8.215  15.955   1.588  0.0188  0.1927  0.1759
31059W        W47193   6.021   8.082  10.936  0.1383  0.1611 -0.3425
31060W        W47194  16.468   9.311   1.863 -0.1160 -0.0158 -0.1195
31061W        W47195   8.358  18.191   1.806 -0.3440 -0.2162 -0.1814
31062W        W47196   9.866  16.214   2.982  0.1570  0.2157  0.0785
31063W        W47197   5.118  18.723   1.441 -0.0192  0.1662  0.1047
31064W        W47198   5.401  14.366  10.818 -0.0074  0.2341 -0.0211
31065W        W47199   6.260   9.484   0.885  0.0915 -0.1897 -0.2322
31066W        W47200  18.635   7.518  11.205 -0.0470 -0.1837  0.0976
31067W        W47201  18.127  12.351  15.122 -0.0496 -0.4145 -0.0120
31068W        W47202   3.576   0.100  14.665  0.0824  0.0760 -0.0625
31069W        W47203  11.064  15.729   2.217  0.0172 -0.0436  0.5362
31070W        W47204   1.759  13.259  10.121 -0.1825  0.1121  0.3952
31071W        W47205   1.528   5.298   5.720  0.1891 -0.0595  0.2351
31072W        W47206  10.227   2.190   4.367  0.2329  0.0734 -0.2637
31073W        W47207   7.062  15.594  10.789 -0.0953  0.0477  0.0403
31074W        W47208  14.439   6.053   5.327 -0.0553  0.2130  0.2475
31075W        W47209  14.882  18.641   0.436 -0.3665 -0.0054 -0.2427
31076W        W47210  18.174  14.541  15.049 -0.0978 -0.1773 -0.2255
31077W        W47211   7.352  14.545   1.452 -0.1360 -0.0251  0.0642
31078W        W47212   8.792  15.039   1.447  0.0984  0.0199 -0.1129
31079W        W47213   1.588  18.238  12.631  0.3383 -0.0270 -0.5262
31080W        W47214  15.051   6.421   1.571  0.1949 -0.1134  0.3153
31081W        W47215  15.901   6.676  12.473  0.0109  0.0553 -0.0502
31082W        W47216   0.642  16.316   0.892 -0.0003 -0.0286  0.0518
31083W        W47217   1.723  10.706   0.559  0.5328 -0.0185  0.1020
31084W        W47218  15.709   6.293  13.187 -0.1794  0.1779 -0.3997
31085W        W47219   6.348  14.314   9.873 -0.0368 -0.4793  0.0484
31086W        W47220   9.221   2.448  12.424  0.1893  0.2738  0.0092
31087W        W47221   0.293   9.220  13.245 -0.2110  0.0637  0.0627
31088W        W47222  16.873   8.138   2.517  0.1282 -0.4207 -0.3900
31089W        W47223   8.700  12.579   4.068  0.1452  0.1058 -0.0028
31090W        W47224  13.982   9.394   2.188  0.1485  0.4566 -0.1760
31091W        W47225  18.952  16.912   0.993  0.1398  0.4527  0.2738
31092W        W47226  13.888   4.131  13.146 -0.2555  0.0603 -0.1332
31093W        W47227  14.353  12.174   2.547 -0.4007  0.1070  0.2901
31094W        W47228   3.608   5.756  10.154 -0.4135 -0.0091  0.2021
31095W        W47229   2.289  18.436   2.139  0.0742 -0.0272 -0.0908
31096W        W47230  18.568  14.920   2.814  0.0905  0.1712 -0.0867
31097W        W47231  12.450   8.117   4.283 -0.0367  0.2621 -0.2052
31098W        W47232   0.511  16.272   3.639  0.1264  0.2013  0.1749
31099W        W47233   3.512  17.127  11.717 -0.3085  0.1421 -0.0479
31100W        W47234   1.141   2.306   2.734 -0.2173  0.1390 -0.2052
31101W        W47235   9.992   9.270  13.755 -0.1057 -0.0301  0.3073
31102W        W47236   4.074  17.166  14.785  0.0031 -0.0917 -0.3499
31103W        W47237  13.155  12.459  14.124 -0.0897  0.0679 -0.0215
31104W        W47238  11.004  17.931  13.910 -0.1422  0.0153  0.0666
31105W        W47239   2.807   5.375  13.630  0.3923 -0.3073 -0.2153
31106W        W47240  18.909   0.959   5.118  0.2954 -0.0882  0.0897
31107W        W47241  14.000   1.996   4.028 -0.0104 -0.1937 -0.1208
31108W        W47242  10.726  12.606  14.765  0.3549 -0.4513  0.0044
31109W        W47243  17.146  18.864  13.972  0.0579  0.2325 -0.0388
31110W        W47244   4.761   1.033  13.120 -0.2191  0.0772 -0.3387
31111W        W47245   3.300  15.610   2.626 -0.1308  0.0496 -0.0689
31112W        W47246  14.208  13.276  12.825  0.0082 -0.1447  0.2275
31113W        W47247   7.095   0.639  13.563  0.0643  0.0107 -0.0193
31114W        W47248   0.426  10.463  14.830  0.2330 -0.2095  0.3106
31115W        W47249  11.059   7.275  10.099  0.1866 -0.3864 -0.0646
31116W        W47250   3.048  18.783   1.905 -0.2462  0.0753  0.1237
31117W        W47251  18.805   1.069  12.741  0.3360 -0.0888 -0.3004
31118W        W47252   3.990   9.541   1.288  0.3967  0.0787 -0.0325
31119W        W47253  10.886  13.504   5.619  0.1634 -0.0010 -0.0143
31120W        W47254  16.293  17.552  11.005 -0.1853 -0.0881  0.1907
31121W        W47255  18.463   8.100  14.398  0.0765 -0.0292 -0.0924
31122W        W47256   0.560   4.797  13.866 -0.0921  0.0796  0.2685
31123W        W47257  18.223   7.663  12.138  0.2067 -0.4589 -0.0205
31124W        W47258   9.995  12.003  13.657 -0.3208  0.1520  0.3267
31125W        W47259   3.291  16.718  12.508  0.2357 -0.0508 -0.3342
31126W        W47260   8.952  18.149  13.694 -0.0324 -0.0011  0.0053
31127W        W47261   5.198   7.493   0.614 -0.1978  0.1793 -0.0105
31128W        W47262  12.846   7.890   3.891 -0.0007  0.0510 -0.0487
31129W        W47263   7.548   4.495  10.446  0.0994 -0.1281 -0.0934
31130W        W47264   8.420   5.554   2.715  0.1989  0.0309  0.2384
31131W        W47265  18.716  13.108   1.157  0.0230  0.1814  0.0150
31132W        W47266  12.987   1.206   2.406  0.0846  0.1332 -0.4701
31133W        W47267   8.690   7.292   4.203  0.0584 -0.2428  0.0361
31134W        W47268  17.836   6.765   0.447 -0.0646  0.0155  0.0569
31135W        W47269   8.135   0.508   3.133  0.3628 -0.3120  0.2032
31136W        W47270  13.152  14.745   3.974  0.3379  0.0796  0.2090
31137W        W47271  15.706  10.612  15.002 -0.1021  0.1191  0.0440
31138W        W47272  14.262  17.239  11.464 -0.0076 -0.2122 -0.2881
31139W        W47273   9.549  15.378  14.653 -0.0491 -0.0038 -0.0523
31140W        W47274   7.400  18.033  11.956  0.0402 -0.2244  0.4917
31141W        W47275   7.519   2.295   4.458  0.4583  0.1470  0.2682
31142W        W47276   6.174   7.328  13.871  0.1014  0.3649 -0.1908
31143W        W47277  16.927  15.310  13.261 -0.2152  0.1517 -0.0145
31144W        W47278  16.581   6.895   0.511 -0.0654 -0.2043 -0.2525
31145W        W47279  10.887   7.072   2.161 -0.1338 -0.0183 -0.2422
31146W        W47280   2.202   8.552   0.490  0.1693  0.3022 -0.0124
31147W        W47281   3.750   4.266  10.452  0.1554  0.2412 -0.0999
31148W        W47282   3.940  11.552  14.558 -0.2488  0.0447  0.0953
31149W        W47283   8.149   6.038  14.146  0.1714  0.3561 -0.3441
31150W        W47284   6.050   6.754  10.614 -0.3262 -0.0906 -0.4341
31151W        W47285   7.931   9.397   1.425 -0.0821  0.3426  0.0167
31152W        W47286  14.065  14.473   1.151 -0.2824 -0.0053 -0.2470
31153W        W47287   0.442   2.315   5.279  0.0134  0.3609  0.0855
31154W        W47288   3.623  14.282  11.086  0.3032  0.0426 -0.2986
31155W        W47289   2.154  13.695   0.053 -0.2682 -0.1072  0.3241
31156W        W47290   2.343  12.773  12.742  0.0230 -0.3103  0.0482
31157W        W47291  13.104   9.879   5.465  0.1563  0.1303  0.0825
31158W        W47292  18.877   8.614  11.528  0.0376 -0.0483 -0.1493
31159W        W47293   8.848   0.322  14.068 -0.1042 -0.0858 -0.1039
31160W        W47294  12.396  16.564   0.427 -0.0637  0.1831 -0.1140
31161W        W47295  12.136  14.542   5.378  0.3013  0.0387 -0.0644
31162W        W47296  17.013   4.306  11.483 -0.0385 -0.0721  0.1020
31163W        W47297   7.587   1.341  11.606  0.0230 -0.1822  0.0967
31164W        W47298  12.679   2.542  13.908 -0.0647 -0.3267 -0.0225
31165W        W47299  14.451  16.363   3.718  0.1942 -0.1195  0.0603
31166W        W47300   0.318   3.194   4.977 -0.2320 -0.5076 -0.3278
31167W        W47301  17.311  11.115  14.437  0.2776 -0.3019  0.4045
31168W        W47302   3.278   4.314  10.703 -0.2887 -0.2736 -0.2469
31169W        W47303  12.132  18.958  10.473 -0.1334 -0.3125 -0.2821
31170W        W47304  10.687   5.137   2.814  0.2745 -0.0511  0.0753
31171W        W47305  10.685  14.314   2.018 -0.0648 -0.0211 -0.1780
31172W        W47306  16.801  18.709   5.778  0.1624  0.1006 -0.0892
31173W        W47307   9.280  10.737  14.942  0.2734 -0.5558  0.1773
31174W        W47308  13.896   1.810  11.302 -0.0694 -0.1984  0.0890
31175W        W47309   4.674  18.137   0.518  0.1761  0.1173  0.1622
31176W        W47310   1.405  14.814   0.201  0.1046  0.1328 -0.0486
31177W        W47311   8.543   0.698   1.105 -0.1535 -0.3458  0.1739
31178W        W47312  18.195  16.844   2.567  0.1847  0.0098  0.2707
31179W        W47313  18.347  17.211   4.442  0.0266  0.2875 -0.1131
31180W        W47314   6.677  16.980  14.397  0.0010 -0.2427 -0.2910
31181W        W47315  14.076   5.385  13.122  0.2312 -0.0873  0.0056
31182W        W47316  18.994  13.058   9.644 -0.2831  0.1119 -0.2313
31183W        W47317  14.192   8.234  14.448 -0.2151 -0.1711  0.2805
31184W        W47318   4.910  16.326   1.619 -0.1273  0.0615  0.0423
31185W        W47319   4.282  11.635  13.415  0.0389 -0.1890  0.5438
31186W        W47320  11.821  11.210   0.181  0.0187 -0.0103 -0.1495
31187W        W47321   5.482   6.890   2.282  0.1354 -0.1668 -0.0014
31188W        W47322   5.984  18.482   3.887 -0.2499  0.0363  0.1837
31189W        W47323  12.131   5.764   3.874 -0.0198 -0.0702 -0.0421
31190W        W47324   8.728  10.476  11.563 -0.1218  0.1506  0.2927
31191W        W47325   5.882   6.786   2.003 -0.1637 -0.0132  0.1155
31192W        W47326   0.617  10.952  12.494 -0.0232  0.1507 -0.0654
31193W        W47327   9.222   9.239   0.173  0.2182  0.1813  0.2496
31194W        W47328   6.983  15.317   2.351 -0.1626 -0.2199 -0.3829
31195W        W47329  12.614   2.563   4.403  0.0037  0.1012 -0.5083
31196W        W47330   0.379   8.173   1.443 -0.1480 -0.0725 -0.0002
31197W        W47331   1.802  11.431  12.157  0.2115  0.1081  0.0856
31198W        W47332   7.304  15.956  15.171 -0.0405  0.0937 -0.2462
31199W        W47333  11.872   4.549  14.051  0.0848  0.1763 -0.1249
31200W        W47334  12.953   4.204  11.503 -0.0743 -0.1294 -0.1201
31201W        W47335   8.430   8.877   3.292  0.6544  0.2455  0.1013
31202W        W47336   9.455   3.305   1.471 -0.0639 -0.1362 -0.1670
31203W        W47337  18.579  10.876   4.114 -0.1779  0.1807 -0.1217
31204W        W47338  15.692  11.360   4.139  0.1960  0.0370 -0.2153
31205W        W47339  14.192   0.616  10.129  0.0758  0.1743  0.0260
31206W        W47340  12.654  13.940   4.309 -0.1021  0.2883  0.1765
31207W        W47341  13.101  14.057  11.686  0.4058 -0.2140  0.2438
31208W        W47342   6.245  18.933  14.603 -0.0056  0.0255 -0.0502
31209W        W47343   4.919  15.670   3.276  0.1760  0.0537  0.0663
31210W        W47344   3.801  15.884   1.434  0.0836 -0.2397 -0.3449
31211W        W47345   2.695  14.440  14.968 -0.0555  0.1165 -0.1294
31212W        W47346   9.799  10.193  12.713  0.4444  0.0834 -0.0727
31213W        W47347  11.683   9.757  11.430  0.0222 -0.1328 -0.0031
31214W        W47348   4.644  17.369   1.434 -0.0483 -0.1790  0.0943
31215W        W47349  14.911   1.041   5.015 -0.0443 -0.2232  0.1023
31216W        W47350   4.253  15.754  11.365  0.0670  0.3326 -0.1081
31217W        W47351  15.803  12.950  11.431 -0.2708  0.0294 -0.1810
31218W        W47352   9.150  14.731   1.742  0.1800 -0.3290  0.1679
31219W        W47353   0.845  18.306  13.714  0.0480  0.2759 -0.0332
31220W        W47354   5.090   8.446  11.216  0.1252 -0.0994  0.0709
31221W        W47355  15.129   0.721  13.857 -0.1148 -0.1983  0.0728
31222W        W47356   0.957  12.106  12.872 -0.0623 -0.0210 -0.0132
31223W        W47357   6.577   1.188  12.603  0.0477 -0.1860 -0.1112
31224W        W47358   6.184   3.398   4.700  0.0489  0.1715  0.1479
31225W        W47359   4.467   9.559   1.624  0.1008 -0.1625 -0.1475
31226W        W47360  17.294   6.579  12.878 -0.1087 -0.0314 -0.0809
31227W        W47361   5.969  17.714   2.864 -0.0270  0.1442 -0.0229
31228W        W47362   8.389  10.998  10.148 -0.3012 -0.1024 -0.4972
31229W        W47363  10.623   2.736   1.136  0.2141  0.0897 -0.1355
31230W        W47364   9.570  12.169  13.951  0.1104 -0.2182 -0.0111
31231W        W47365   3.525  14.664  15.209 -0.0056 -0.0503 -0.4018
31232W        W47366   4.334  14.073   3.979  0.1004  0.3310  0.1112
31233W        W47367  18.439  13.757  11.114 -0.1387  0.4773 -0.2333
31234W        W47368   4.343  10.594   2.350 -0.0105 -0.3514  0.1007
31235W        W47369   9.906   8.855   2.571 -0.2195 -0.1406 -0.1818
31236W        W47370  17.930  13.549   1.276 -0.0170  0.0367 -0.2976
31237W        W47371  17.964   0.982   0.494  0.1330 -0.3329  0.2224
31238W        W47372   7.267   8.274  12.353  0.0286 -0.3144  0.3697
31239W        W47373  16.226   1.263  13.073  0.0931  0.0319 -0.0213
31240W        W47374  12.529  13.945  15.220 -0.2020  0.1197  0.1779
31241W        W47375   1.764  14.249  12.548  0.1018  0.0802  0.0783
31242W        W47376   5.790  17.805  11.049 -0.0175 -0.2291  0.2930
31243W        W47377   1.033   6.819   3.423 -0.0325  0.0474  0.1094
31244W        W47378   7.983  17.610   5.010 -0.2127 -0.0745  0.3527
31245W        W47379   2.948  17.426  10.943  0.1916 -0.2437  0.1009
31246W        W47380   1.160  11.867  11.591  0.1823  0.0118 -0.1541
31247W        W47381   7.257   2.489   3.957  0.0916  0.1025  0.0461
31248W        W47382   6.350  18.812  12.696  0.1057  0.2157  0.0113
31249W        W47383   3.967   7.578   4.368  0.2462  0.0316  0.1608
31250W        W47384  14.632  16.389  13.020  0.1867  0.1144 -0.4321
31251W        W47385  12.633  17.403   2.408 -0.0739  0.1629 -0.0365
31252W        W47386  16.177   7.095   1.927  0.1209  0.5409  0.2612
31253W        W47387  17.839  15.767  11.463 -0.0615  0.3889 -0.0723
31254W        W47388   7.933   6.357   2.847  0.0968  0.2237 -0.0291
31255W        W47389  14.196   8.165   3.403  0.0020 -0.0489  0.3168
31256W        W47390   1.858  14.854   0.461 -0.2519  0.2181 -0.1322
31257W        W47391   5.452  17.069  12.058 -0.1339 -0.0587  0.4287
31258W        W47392  18.988  13.658  11.397 -0.2001 -0.4014 -0.2770
31259W        W47393   3.664   6.058  13.747 -0.1319 -0.0739  0.1060
31260W        W47394  12.669   4.870   0.471  0.1521 -0.3177  0.1650
31261W        W47395  14.037   6.159   2.453 -0.0996  0.1236 -0.3842
31262W        W47396  13.679  18.985   2.800 -0.4221  0.0005  0.1500
31263W        W47397   8.350  10.972   3.930 -0.2035 -0.3307 -0.2180
31264W        W47398  16.882   4.847   4.405  0.2837  0.1902 -0.1825
31265W        W47399   2.281  14.122   3.284  0.1146  0.1604  0.1284
31266W        W47400   0.400   8.026   3.502 -0.0963 -0.0810  0.3790
31267W        W47401  14.475   2.711   3.905  0.0517  0.1197 -0.2290
31268W        W47402   1.347   0.722  15.069 -0.0510  0.0050  0.2657
31269W        W47403   2.728  12.835   0.766 -0.0452 -0.2162  0.1507
31270W        W47404   0.882   5.149  13.749  0.1222 -0.2739  0.0049
31271W        W47405  12.294   2.615   2.038  0.0486 -0.2345 -0.1244
31272W        W47406  14.810   3.059   4.107 -0.1240  0.3347  0.2459
31273W        W47407   5.011  18.417   2.919  0.0994  0.0350  0.2240
31274W        W47408  10.070   9.330  11.739  0.0775 -0.0628 -0.1957
31275W        W47409  17.112  16.256   3.712  0.1234 -0.2144  0.0836
31276W        W47410  11.026   3.969   0.872 -0.2340  0.4344  0.3674
31277W        W47411  14.898  15.148   4.435 -0.2635  0.1966 -0.0709
31278W        W47412   0.064   7.122   5.538  0.0171  0.1284  0.1708
31279W        W47413  16.184   0.165   1.974 -0.0909 -0.2313 -0.2403
31280W        W47414  16.363   9.324  10.761  0.0406  0.1077 -0.2708
31281W        W47415  10.627   4.676  12.316  0.0410  0.1463 -0.1214
31282W        W47416  15.012  12.966   0.667  0.4004 -0.0394 -0.1470
31283W        W47417   1.681  12.340  12.435  0.0683  0.2739  0.3972
31284W        W47418  15.665   1.237  11.248 -0.1231 -0.0523  0.0600
31285W        W47419  10.920  13.344   5.071 -0.1604  0.1511 -0.0377
31286W        W47420   8.680   1.340   4.192  0.0364 -0.2149 -0.0469
31287W        W47421   5.906   1.365  14.820 -0.1884 -0.2376 -0.2118
31288W        W47422   7.132  11.311   1.521 -0.3131  0.1343  0.0541
31289W        W47423  16.455  14.481   4.386 -0.4029 -0.0534  0.3221
31290W        W47424  11.790   6.748  14.051  0.1110  0.0602  0.2854
31291W        W47425   1.553  10.430  13.514  0.1094  0.0936  0.0859
31292W        W47426  11.128  10.085   1.580 -0.1113  0.2131 -0.2564
31293W        W47427   5.321  14.942   3.087  0.0247  0.0073  0.3213
31294W        W47428   1.325   4.546   4.514  0.0061  0.1612 -0.2371
31295W        W47429  13.800  11.724   3.577 -0.1369  0.0102 -0.0150
31296W        W47430   4.268  14.156  14.513  0.0900 -0.2816  0.1378
31297W        W47431  18.840   7.903   0.245 -0.1551 -0.1416  0.3271
31298W        W47432   7.379  19.000   2.626  0.0589 -0.3220  0.1306
31299W        W47433  16.727   3.911  13.227 -0.1903  0.1598  0.4135
31300W        W47434   0.238   6.052   3.034 -0.0862  0.3444  0.0329
31301W        W47435   0.510  18.782   1.306 -0.0010  0.0550  0.0021
31302W        W47436   4.425  11.160   3.113 -0.0616  0.1860  0.2241
31303W        W47437   2.828   9.790   3.944 -0.0924 -0.0439 -0.3263
31304W        W47438  12.170   7.113   3.676  0.2407 -0.1632 -0.0476
31305W        W47439  18.821  16.894   4.732  0.1980 -0.1716 -0.0602
31306W        W47440   6.847   0.570   4.063  0.1075 -0.1258 -0.1270
31307W        W47441  14.072  13.563  13.808  0.0419 -0.3141  0.0516
31308W        W47442   4.817  15.499   5.566 -0.0815 -0.1486 -0.2447
31309W        W47443   8.768  16.577  11.768 -0.1377 -0.0507 -0.2170
31310W        W47444  18.583  11.085  12.284  0.1374  0.1557  0.0453
31311W        W47445   8.780   5.574  13.625  0.1690 -0.0836 -0.1081
31312W        W47446  18.317  14.024   0.458 -0.1777 -0.0407 -0.3944
31313W        W47447   8.367   0.894  11.362  0.1052  0.0475  0.0621
31314W        W47448  18.036   9.060  13.658 -0.0516  0.4422 -0.0840
31315W        W47449   8.099  16.189  12.512 -0.0042  0.0168 -0.1533
31316W        W47450   6.899  11.207  11.666 -0.2080  0.0466 -0.0695
31317W        W47451  15.098  11.981  13.879 -0.1295  0.1053 -0.2929
31318W        W47452   3.954  14.190   4.377 -0.2234 -0.0622  0.0309
31319W        W47453  13.489  18.993  13.669  0.0098  0.0771  0.0116
31320W        W47454  12.949  14.049  10.975  0.0700 -0.1418  0.0851
31321W        W47455   2.379   8.006  14.353 -0.2298  0.1570  0.0990
31322W        W47456  12.801   9.282   4.072  0.0540  0.0342  0.3745
31323W        W47457   2.400  16.815  12.648  0.0511 -0.0002 -0.0039
31324W        W47458  14.240  17.962  13.141  0.0048  0.0740  0.0192
31325W        W47459   6.097   3.831  12.359  0.0454  0.1182 -0.2708
31326W        W47460   9.719  12.647  14.736 -0.2888 -0.0206 -0.0874
31327W        W47461  18.992   7.070   1.031 -0.0890 -0.0170 -0.0142
31328W        W47462  17.568   3.433   4.686  0.0316  0.1793  0.1371
31329W        W47463  16.259   5.120  14.006  0.0762 -0.0666 -0.0273
31330W        W47464   9.258  15.939  12.123  0.0826  0.0727  0.2049
31331W        W47465   3.106  14.882   2.218 -0.2314  0.1194  0.2258
31332W        W47466   1.859   2.170   3.285 -0.0579 -0.0401 -0.1261
31333W        W47467   0.651   9.069  15.063 -0.0763  0.2760  0.2521
31334W        W47468  17.791   0.525  12.197 -0.3085 -0.0016 -0.0622
31335W        W47469   4.748   3.907  11.472  0.1003  0.3302  0.3815
31336W        W47470   4.678  16.451   0.377  0.1884  0.3837 -0.0324
31337W        W47471   3.260   9.127   3.746 -0.0602  0.1375  0.2519
31338W        W47472  17.871   8.565  11.539 -0.3174 -0.0225 -0.1295
31339W        W47473  13.285   1.655  13.459 -0.1744  0.3310  0.2041
31340W        W47474   9.134   2.580  10.396  0.1263  0.1464  0.0410
31341W        W47475   1.927   4.449  15.084 -0.0287  0.2323 -0.1715
31342W        W47476  14.131   0.889   1.566  0.4153 -0.0480  0.0219
31343W        W47477  14.670  11.833   2.271 -0.1691  0.0904 -0.1623
31344W        W47478  18.657   2.163  11.649  0.0064 -0.1349 -0.0312
31345W        W47479   1.611  13.431   0.448 -0.1431  0.1570  0.0933
31346W        W47480  11.973   3.139   4.392  0.1192 -0.0590 -0.1236
31347W        W47481  11.943   2.302   4.931  0.1534  0.1525  0.1924
31348W        W47482   3.941  17.289   4.055  0.0380  0.3242  0.2858
31349W        W47483   1.617   0.028   1.490 -0.0880  0.2184  0.0780
31350W        W47484   1.523   2.290  14.716 -0.1434  0.0401 -0.1321
31351W        W47485  13.041  11.179   9.674  0.3090  0.4062  0.1845
31352W        W47486  16.382  11.607   2.452 -0.0044  0.0755  0.2216
31353W        W47487   3.061  17.255   5.141  0.1783 -0.2451 -0.0622
31354W        W47488  17.779  14.191  11.545 -0.3227 -0.2078  0.1229
31355W        W47489  12.196  14.914   4.595 -0.1857 -0.0680  0.0524
31356W        W47490   0.961   1.507  11.149 -0.3396 -0.1805  0.0286
31357W        W47491   5.807   9.083   4.103  0.1904  0.7122  0.1957
31358W        W47492  18.697  16.613  11.177 -0.4570 -0.1360  0.2181
31359W        W47493   4.649  12.109   2.841  0.1384  0.2594 -0.2803
31360W        W47494  12.079   1.903   1.499  0.3526  0.0304 -0.3391
31361W        W47495  15.090  17.511   2.593 -0.2083  0.1828 -0.0418
31362W        W47496   3.530  14.357   3.658  0.0281 -0.0661 -0.2116
31363W        W47497   7.517   7.872  10.545 -0.2197 -0.1742 -0.1994
31364W        W47498  10.362   4.300  15.213 -0.0622  0.3527 -0.0425
31365W        W47499  11.535   4.628  11.340 -0.1450 -0.0244  0.0741
31366W        W47500  10.864   1.218  15.270 -0.2131  0.2742 -0.0889
31367W        W47501  17.749  17.595   3.022 -0.1715  0.1875 -0.0763
31368W        W47502  10.807   6.290   0.375 -0.2702  0.0991  0.2342
31369W        W47503  17.078  13.666   0.870 -0.1001  0.1104  0.6039
31370W        W47504  11.743   1.490   1.637  0.3246  0.3433  0.0662
31371W        W47505   5.673  12.342   6.059 -0.2098 -0.2760 -0.1110
31372W        W47506   1.221   7.806   4.451 -0.0635 -0.4183 -0.1628
31373W        W47507   3.537  17.546   9.636 -0.2430  0.2313  0.0314
31374W        W47508  14.735  14.474  12.820  0.0380  0.1900  0.1709
31375W        W47509   0.009  15.771   3.230 -0.2136  0.2008 -0.3148
31376W        W47510   2.791  16.710  11.747  0.3206 -0.2793 -0.3541
31377W        W47511   1.423   9.435   2.360 -0.1968 -0.0028  0.0778
31378W        W47512  15.518  18.350  11.832  0.0615  0.1292  0.1945
31379W        W47513   3.418   6.110  14.798 -0.0704 -0.1753 -0.3442
31380W        W47514  10.770  11.368  13.361  0.1972 -0.0675 -0.2810
31381W        W47515  13.648   6.591   2.464 -0.1810  0.1132  0.0944
31382W        W47516  13.235  16.564   0.262 -0.1077 -0.4265  0.1354
31383W        W47517  13.102  16.502   3.920 -0.2310  0.0936  0.1256
31384W        W47518   7.497   4.375  15.042 -0.1302 -0.1590 -0.2653
31385W        W47519   7.200   7.266   4.238 -0.0632  0.0794 -0.2412
31386W        W47520   3.319  15.922  11.458 -0.3542 -0.1143  0.3204
31387W        W47521   8.123   9.676   4.826  0.0627 -0.2081 -0.1828
31388W        W47522  16.827  16.981  15.100  0.1581  0.2065 -0.0321
31389W        W47523  12.538  15.641   2.252  0.0277 -0.1714 -0.3435
31390W        W47524   6.573   4.756   3.689  0.0073 -0.1741  0.0905
31391W        W47525  13.804  11.277   5.151  0.0612 -0.3537 -0.2441
31392W        W47526  13.681  14.780  13.396 -0.2983  0.0325  0.0172
31393W        W47527   2.701  17.050  15.121 -0.2776 -0.0248 -0.0936
31394W        W47528   9.152   7.359   2.250 -0.0353 -0.2616 -0.3020
31395W        W47529   2.536   9.458   2.487 -0.0372  0.5465  0.5025
31396W        W47530   7.584  12.843   4.271 -0.1710  0.2810  0.1341
31397W        W47531   6.612   8.369   2.619 -0.2646 -0.1585  0.0640
31398W        W47532   5.402  17.982   4.832  0.2573 -0.0881  0.4673
31399W        W47533  10.058   2.064   1.510 -0.0484 -0.3322  0.2152
31400W        W47534  13.365  18.261   2.247  0.4386 -0.1690  0.3619
31401W        W47535   6.344  12.719   5.493  0.1215 -0.0935  0.1740
31402W        W47536   9.748  11.651   3.931 -0.2095  0.0365  0.2065
31403W        W47537  17.236   6.962   5.818  0.0284  0.4685 -0.1255
31404W        W47538  16.679  14.700  12.572  0.0131  0.2478  0.0819
31405W        W47539   5.627   2.443   0.915 -0.1675 -0.1794  0.1470
31406W        W47540   5.950  18.944   3.545  0.1965 -0.1921  0.1613
31407W        W47541  10.106   0.964  14.818 -0.0843  0.0883  0.0082
31408W        W47542  11.138  13.797  13.061  0.0174  0.2846 -0.1263
31409W        W47543   3.872  12.416  11.318 -0.1293 -0.1338 -0.0714
31410W        W47544   2.202   1.249  13.683 -0.1043 -0.0621  0.0019
31411W        W47545  12.409   2.711   5.076  0.0600 -0.0854  0.6156
31412W        W47546  17.679   6.930  13.131  0.1375  0.1269  0.0915
31413W        W47547  13.260  10.541  10.297 -0.1986 -0.0718  0.1347
31414W        W47548   0.792   8.643   3.405 -0.2416 -0.1488  0.3363
31415W        W47549   0.713   5.486   1.969 -0.1367  0.3258 -0.0600
31416W        W47550  10.429  15.712  11.183 -0.1320 -0.1391 -0.1553
31417W        W47551   1.085  14.375   2.756  0.0959  0.0811  0.0028
31418W        W47552  17.688   7.133   4.321  0.2635  0.0414 -0.0633
31419W        W47553   1.110  15.151   0.447  0.0873  0.1155  0.0772
31420W        W47554  11.306  16.537  15.031 -0.1026  0.1877 -0.3452
31421W        W47555  10.186  16.712  14.746  0.4822 -0.3911  0.0313
31422W        W47556   9.236   2.009  12.144 -0.0934 -0.1019 -0.5193
31423W        W47557   9.976   6.493  14.660 -0.0443  0.1819  0.0449
31424W        W47558   7.026   7.487  11.389 -0.0950  0.0514 -0.3205
31425W        W47559  13.343   8.542  10.746  0.0642  0.1175  0.1658
31426W        W47560  13.101  13.759   4.186 -0.4038  0.2618  0.0440
31427W        W47561   1.221  14.450  11.748 -0.2454 -0.1518  0.0565
31428W        W47562  18.753  12.635   2.924 -0.1339  0.0496 -0.2288
31429W        W47563   8.455   7.946   9.890 -0.3389  0.5202  0.1698
31430W        W47564   3.082  15.231   1.294  0.4619  0.0047  0.0206
31431W        W47565  16.729   0.440   1.153 -0.0623  0.2213 -0.0745
31432W        W47566  14.424   5.246  10.653  0.2039  0.1891 -0.0077
31433W        W47567   2.622  17.704  13.319 -0.1786 -0.3495 -0.3695
31434W        W47568   3.706   8.691   2.438 -0.0669  0.1411 -0.0093
31435W        W47569   5.684  11.564   0.903  0.0137 -0.1521  0.4193
31436W        W47570   0.830  18.729  14.465  0.0790  0.0075  0.1132
31437W        W47571  18.915  15.397   1.265 -0.1846  0.0908  0.0038
31438W        W47572  14.221  17.256  10.915 -0.0370  0.0542 -0.0133
31439W        W47573   4.852  14.138  15.101  0.3799 -0.0525  0.0191
31440W        W47574  18.018  18.503  14.006 -0.0119 -0.0576  0.0620
31441W        W47575  12.594  16.501   3.981  0.4127  0.0809  0.1599
31442W        W47576   7.242   3.642   2.475 -0.3589  0.0081  0.1676
31443W        W47577   9.262   1.533   9.806 -0.1986 -0.0204  0.0834
31444W        W47578  15.870   3.570  12.989 -0.5345 -0.0224  0.0977
31445W        W47579   4.535  13.093  15.239 -0.0911  0.1352 -0.0977
31446W        W47580   3.611   2.683   2.964 -0.0533 -0.4274 -0.2595
31447W        W47581  18.439   5.947  14.630  0.3306  0.0665 -0.3841
31448W        W47582  16.196  11.360   0.703 -0.0274  0.2012  0.2375
31449W        W47583  14.941  16.998  14.245 -0.0125  0.3058  0.2145
31450W        W47584   0.620  11.746  11.431  0.1064  0.0503 -0.1064
31451W        W47585   6.198   7.739   4.314  0.1240  0.1641  0.2812
31452W        W47586   4.916   0.138   3.821  0.0427 -0.0011  0.0832
31453W        W47587  10.618  14.136   0.131  0.0290 -0.2431 -0.3105
31454W        W47588  13.656  11.930   4.009 -0.0285 -0.1559  0.0195
31455W        W47589   5.154   9.792   0.441  0.2861  0.3129  0.3078
31456W        W47590  10.088  17.040  13.101  0.0207 -0.0584  0.3354
31457W        W47591  12.182   9.490   2.583  0.0289  0.3430  0.0200
31458W        W47592   0.748  16.284  11.420 -0.0920 -0.1971  0.2002
31459W        W47593   2.561  14.496  11.858 -0.0649  0.2003  0.0879
31460W        W47594  15.383  16.837  11.533 -0.2092  0.0731 -0.2472
31461W        W47595  12.268   2.824  13.981 -0.2175 -0.1757  0.0314
31462W        W47596  14.584  18.761  11.494  0.2664  0.2979  0.0142
31463W        W47597   9.152  13.830   4.564 -0.2125 -0.2454  0.2803
31464W        W47598   9.334  15.799  11.616 -0.1376 -0.0270  0.2225
31465W        W47599   4.156   1.773   5.253  0.3122  0.0141 -0.1343
31466W        W47600  14.235  16.401  11.442  0.0476  0.2497 -0.0271
31467W        W47601  14.521   2.479  13.919 -0.2755  0.0935  0.1558
31468W        W47602  13.456  11.916  11.858 -0.0705  0.1968  0.1113
31469W        W47603  11.551  12.666  12.168  0.2182 -0.0615  0.0247
31470W        W47604   4.016   4.711  12.860  0.2093 -0.2219  0.0277
31471W        W47605   6.237   9.848  10.598  0.0072 -0.1016  0.1083
31472W        W47606   4.871  17.189   1.828 -0.0862 -0.1263  0.0508
31473W        W47607   8.660   3.397   3.481 -0.2264  0.0020  0.1112
31474W        W47608  12.895  13.475  14.157  0.1750 -0.0810  0.0410
31475W        W47609   3.794  13.191   3.358  0.2109  0.0166 -0.0952
31476W        W47610   3.756   4.670   5.030  0.3118 -0.0789  0.1047
31477W        W47611   2.634   0.216   1.871 -0.3047  0.0039  0.1381
31478W        W47612  16.342   2.639  13.203 -0.1343  0.0736 -0.0661
31479W        W47613   6.763   5.757  12.904  0.2763 -0.1165 -0.1319
31480W        W47614   6.780  16.053  14.831 -0.1706  0.1478 -0.2406
31481W        W47615  10.250  16.481  12.705  0.0725 -0.1979 -0.0208
31482W        W47616   9.120   8.749   1.073 -0.0897  0.5046 -0.0219
31483W        W47617  17.843  11.524  11.124  0.0299  0.4335 -0.3126
31484W        W47618   7.844   2.493  13.388  0.1082  0.1643  0.1376
31485W        W47619   0.270   7.188   1.459 -0.2277  0.0609  0.1758
31486W        W47620   4.444  12.973  11.482  0.0638 -0.0895  0.0242
31487W        W47621   4.002   7.699  10.403  0.2404 -0.1423 -0.4210
31488W        W47622   9.250   9.855  12.768  0.3995 -0.2592 -0.3167
31489W        W47623  14.902   2.114  11.587  0.1377 -0.1361 -0.3683
31490W        W47624   6.814   9.838   4.051  0.1820 -0.1856  0.2168
31491W        W47625   9.502  10.829   0.122  0.2914 -0.3705  0.0168
31492W        W47626   7.533  13.175  11.468  0.2947  0.2103 -0.1042
31493W        W47627   1.536  16.620   0.135  0.3189 -0.2321  0.0556
31494W        W47628  16.907   6.429   0.480 -0.1648 -0.0663  0.2922
31495W        W47629  10.143   0.678   1.679 -0.0078 -0.1780  0.0775
31496W        W47630  13.026   2.319   2.379 -0.0758  0.0962  0.2453
31497W        W47631   1.121   8.327  15.148  0.0684  0.2641 -0.4024
31498W        W47632  12.510   9.397  11.012  0.0877  0.0392  0.0924
31499W        W47633  15.777   2.685   3.898 -0.4296  0.1927  0.2749
31500W        W47634   2.509  10.764   4.317 -0.3713  0.1702 -0.2314
31501W        W47635  16.504  11.578   4.809  0.0244 -0.3002 -0.0377
31502W        W47636   1.359  12.870   2.553  0.3101 -0.0465 -0.1209
31503W        W47637   8.235   4.882  11.692 -0.0010 -0.1502  0.0001
31504W        W47638   5.853  10.383   4.069 -0.4976  0.0619  0.1760
31505W        W47639  17.225  12.906  12.125  0.1287 -0.2706  0.1628
31506W        W47640  14.857   6.815   0.401  0.2932  0.0197  0.0778
31507W        W47641   5.771   5.868   4.695  0.0859 -0.3448  0.2589
31508W        W47642  13.879   4.730   3.621 -0.3647 -0.0622  0.2532
31509W        W47643   6.473   6.991   3.946  0.2782  0.0699 -0.3404
31510W        W47644   2.970   3.809   0.602  0.0962 -0.0945  0.0656
31511W        W47645   5.316  15.937   0.788 -0.0148  0.2536 -0.1511
31512W        W47646  17.537   4.957   9.949  0.2073  0.2215 -0.0013
31513W        W47647   8.843   9.024  14.946 -0.1594  0.2047  0.0028
31514W        W47648   4.818   5.823  11.671 -0.2013  0.2254 -0.3053
31515W        W47649   6.569  14.589  12.590 -0.0718  0.0639 -0.0484
31516W        W47650  14.884   5.949   1.634  0.1044 -0.2856  0.0573
31517W        W47651  16.229  14.896   1.495  0.1315  0.1204 -0.0135
31518W        W47652  17.297  11.278   9.541  0.3272 -0.1122  0.1209
31519W        W47653   7.027   2.236  11.907  0.0285  0.0386 -0.1605
31520W        W47654   2.507   5.140  11.661  0.1388 -0.3685 -0.0124
31521W        W47655   8.701  14.662   2.149 -0.2912 -0.1694  0.0407
31522W        W47656   0.869  10.780   2.771 -0.0087  0.2924  0.0660
31523W        W47657   4.504  12.026  15.236 -0.3708  0.0431  0.0546
31524W        W47658  11.313   0.680  14.802 -0.0737  0.1843  0.0272
31525W        W47659  11.127   5.593  14.992 -0.1408 -0.2910  0.4221
31526W        W47660   3.121   7.891  14.882  0.2478 -0.0379  0.2679
31527W        W47661   4.166  14.478  11.258 -0.0428 -0.0318  0.1501
31528W        W47662  12.178   3.110  11.984 -0.0799 -0.0474  0.0194
31529W        W47663   3.785   9.661   4.239 -0.1918 -0.0198  0.1532
31530W        W47664  17.022  13.397   5.259  0.1644  0.5633  0.3172
31531W        W47665   6.403  13.798  13.426  0.0407  0.1152  0.2427
31532W        W47666  16.328   8.096  12.824  0.0289 -0.0020 -0.1533
31533W        W47667  16.216  18.252   0.658  0.1297 -0.2497 -0.3760
31534W        W47668   7.811   2.737   1.399 -0.0109 -0.1375 -0.0395
31535W        W47669  17.282   9.133  14.114 -0.1841 -0.2838 -0.1167
31536W        W47670   0.244  14.714  14.538  0.2154  0.1637  0.1786
31537W        W47671  17.177   6.353   3.760 -0.0359 -0.1039 -0.0062
31538W        W47672   0.082   9.768  12.797 -0.0133  0.0984 -0.2495
31539W        W47673   3.843   2.507   0.451 -0.2872  0.0062 -0.1868
31540W        W47674  18.655   6.074  11.599  0.3197 -0.1044  0.1651
31541W        W47675  15.086   3.053   4.737 -0.0879  0.1052 -0.2862
31542W        W47676   1.892   7.911   2.120 -0.0238 -0.2803 -0.2840
31543W        W47677   2.380  14.166  10.618 -0.3549  0.3238  0.1760
31544W        W47678   0.445   7.804  14.547 -0.1864  0.1769  0.2954
31545W        W47679  16.765   9.214   4.663 -0.0836  0.3247  0.0197
31546W        W47680   3.132   7.472   2.609 -0.1612 -0.1785 -0.0375
31547W        W47681   1.193   4.025  10.897  0.1020  0.0478  0.0323
31548W        W47682   1.335  10.367   9.488 -0.1426  0.1215 -0.1363
31549W        W47683   7.230  14.239  11.789  0.3230 -0.0061 -0.2088
31550W        W47684  15.636  17.065   1.877 -0.2177 -0.3131 -0.2065
31551W        W47685  13.549   8.181  11.656 -0.2720 -0.1733  0.0670
31552W        W47686   6.970   2.046   0.862  0.0872  0.0036 -0.0912
31553W        W47687   8.599  16.388   3.993  0.0510 -0.3032 -0.2043
31554W        W47688   8.969   5.414  10.649  0.1805  0.0392 -0.3152
31555W        W47689   3.870  11.426   0.319 -0.0122  0.2056  0.0307
31556W        W47690   2.049  18.881  14.330  0.0498  0.2088 -0.1438
31557W        W47691   0.531   3.121  14.908  0.3994 -0.0885 -0.0533
31558W        W47692  13.559   8.915  10.432 -0.2456 -0.0326 -0.2686
31559W        W47693   6.657  17.047   0.491 -0.2867  0.1175 -0.4355
31560W        W47694   1.860  14.565  14.631  0.4046  0.4061 -0.3225
31561W        W47695  11.218   7.808  13.560  0.3248 -0.0595  0.3526
31562W        W47696   5.108   2.359  11.124  0.1111 -0.0898  0.1850
31563W        W47697   8.756  15.717  11.081 -0.1925 -0.0846  0.0490
31564W        W47698   3.797   5.630  11.742  0.0714 -0.1261 -0.0948
31565W        W47699   9.305  10.419   3.362  0.1787  0.0016  0.1225
31566W        W47700   6.504  10.186   2.129 -0.1242  0.0306  0.3987
31567W        W47701  14.831  14.544   3.379  0.2191  0.0730  0.0701
31568W        W47702  17.001  11.438   2.183  0.0040 -0.3718 -0.3446
31569W        W47703   2.964   6.095  11.682  0.2686  0.0198 -0.1236
31570W        W47704   3.921   3.683   3.904 -0.2555 -0.0520 -0.1818
31571W        W47705   7.428  12.867  12.287 -0.1301 -0.1485  0.0224
31572W        W47706   7.977  16.436  13.299  0.0140 -0.3310  0.2304
31573W        W47707   2.889  14.766  10.520 -0.1933 -0.2872 -0.1036
31574W        W47708   7.898   1.298  11.108 -0.0583  0.0896 -0.0549
31575W        W47709  16.744  14.964   1.442  0.3549 -0.0729 -0.3376
31576W        W47710  13.512  16.717   9.281  0.1392  0.0150 -0.0945
31577W        W47711   3.916  13.350  11.255  0.2226  0.0543 -0.0298
31578W        W47712   5.153  16.872  10.542  0.1095  0.0033  0.1163
31579W        W47713   2.592   4.976  13.293 -0.3320 -0.0171 -0.0475
31580W        W47714  12.740  14.998  14.639 -0.2912  0.0964  0.1942
31581W        W47715  18.398  14.009   2.979 -0.2174 -0.1949  0.1633
31582W        W47716   3.385  14.130   2.180  0.1675  0.3061 -0.0963
31583W        W47717  18.513  11.818   0.761  0.0711 -0.0833 -0.1941
31584W        W47718  14.032  14.031   0.901  0.0730  0.2174  0.3561
31585W        W47719   9.659  14.124   9.860  0.0982 -0.0052 -0.0401
31586W        W47720  12.918   3.340   2.860  0.1699  0.3858 -0.6510
31587W        W47721  17.871   9.463   2.137  0.0000 -0.0649  0.0823
31588W        W47722   2.723   9.566  13.656 -0.1615 -0.0350  0.2345
31589W        W47723  14.218   8.606   4.585 -0.0449  0.2166 -0.1008
31590W        W47724  13.081   0.209  11.322 -0.2583  0.0497  0.4025
31591W        W47725   9.604  14.013  12.560  0.0547 -0.0977  0.2219
31592W        W47726   9.884   0.375   1.130  0.1290 -0.2020  0.3512
31593W        W47727  11.690   0.025   2.089  0.2718 -0.1734 -0.0673
31594W        W47728  12.040   8.966   2.635  0.3098 -0.2129 -0.1837
31595W        W47729  16.247   1.490   1.356  0.0990 -0.2919  0.2746
31596W        W47730  15.676  17.172  12.156  0.0914 -0.3542 -0.0460
31597W        W47731   0.035  10.680  14.050 -0.1902  0.0650  0.2173
31598W        W47732   5.336  16.166   3.628  0.0482 -0.0609  0.2899
31599W        W47733   7.358  14.842  10.986  0.2131  0.0041  0.0274
31600W        W47734  18.070  11.019  12.258 -0.0196  0.2125  0.2468
31601W        W47735  17.542   2.530   3.908  0.4250 -0.0330 -0.1064
31602W        W47736   5.163   2.051  14.363  0.1643 -0.2829 -0.0607
31603W        W47737   6.743  14.354  12.014 -0.0211  0.3281  0.2217
31604W        W47738   0.201  15.941   4.174 -0.3340  0.2309 -0.1121
31605W        W47739   0.802   1.240   0.261 -0.2065 -0.3601  0.1092
31606W        W47740   3.182  18.106  14.605 -0.0766  0.1494  0.0377
31607W        W47741  18.714   3.059   0.909 -0.4117  0.3900  0.3880
31608W        W47742   6.287   1.555  12.342  0.0193  0.0481  0.0457
31609W        W47743   6.011  12.009  14.976 -0.1015  0.0962  0.1396
31610W        W47744   2.815  11.719   2.576 -0.2337 -0.1943  0.2909
31611W        W47745  10.883   6.306  15.126  0.2341  0.1137 -0.0029
31612W        W47746  17.548   2.127   2.138  0.1136 -0.0787 -0.0017
31613W        W47747   0.740  10.096  11.111 -0.0326 -0.0018 -0.0872
31614W        W47748   0.666  16.877   3.354  0.1830 -0.0247 -0.1560
31615W        W47749   8.346  17.007  15.040  0.0717  0.0025 -0.1346
31616W        W47750   8.781  17.120  11.946 -0.1496 -0.0042  0.2582
31617W        W47751  16.343   5.438   2.138 -0.0104  0.0778  0.0052
31618W        W47752   2.616   8.559  11.724  0.1606 -0.0374  0.2883
31619W        W47753  13.933   2.245  12.830  0.1778  0.3545 -0.0273
31620W        W47754  11.627  11.809   1.764 -0.1990  0.1072 -0.1123
31621W        W47755  16.765   4.039   4.628 -0.1023 -0.2821 -0.2545
31622W        W47756   5.968   8.193  14.915  0.2279  0.0765 -0.2822
31623W        W47757   5.668   7.181  13.926 -0.1138 -0.0400 -0.3111
31624W        W47758   8.799  17.881   0.224  0.1283 -0.1135 -0.4293
31625W        W47759   9.670   3.180   2.830  0.1013 -0.2266 -0.2851
31626W        W47760   2.917  18.264  11.730 -0.1004 -0.0490  0.2115
31627W        W47761   2.382  14.870  12.230 -0.1596 -0.0991  0.0195
31628W        W47762  12.499   5.644  10.298  0.0287  0.0270 -0.1130
31629W        W47763  12.852  12.430   1.130  0.0695  0.0510 -0.3671
31630W        W47764   1.409   2.419  13.889  0.1543  0.2286  0.0176
31631W        W47765   5.404   7.962  14.319  0.1486  0.0039  0.5009
31632W        W47766  10.591   1.135   5.234  0.1157 -0.1664  0.2634
31633W        W47767  18.947  12.712   3.383 -0.0893 -0.0170 -0.2324
31634W        W47768   6.263  16.769   2.627 -0.0636  0.1075  0.2389
31635W        W47769   1.575  14.809  11.636 -0.0468  0.3830  0.6499
31636W        W47770   4.050  11.021  14.774 -0.0628 -0.1886 -0.0291
31637W        W47771  14.070   0.981  11.848  0.2697 -0.3454  0.2831
31638W        W47772  14.019  11.678  14.685  0.0913 -0.0272  0.1244
31639W        W47773  11.005   0.206  12.182  0.0310 -0.0366  0.0615
31640W        W47774   1.946   3.598  14.467  0.1280 -0.0643 -0.1382
31641W        W47775  15.091  18.585   3.138  0.3048  0.1331 -0.0280
31642W        W47776   3.206   4.787  13.659  0.1160  0.0431  0.3278
31643W        W47777  18.868  15.690   1.677  0.2741 -0.1199  0.0981
31644W        W47778   8.178   9.222   0.514  0.2431  0.0193  0.3406
31645W        W47779   9.683  12.453   1.348  0.2062 -0.0900  0.0560
31646W        W47780   1.604   7.155  12.699  0.2239  0.0206 -0.1142
31647W        W47781   4.702   4.378  15.014 -0.0025 -0.0709 -0.0157
31648W        W47782   9.728   3.359   4.792 -0.1857  0.2725 -0.5544
31649W        W47783   0.225  12.218   2.781  0.0090  0.0079 -0.1779
31650W        W47784  13.848  13.262   0.324  0.4258  0.1503  0.0097
31651W        W47785  15.731   8.156   2.377 -0.3227 -0.1876 -0.0836
31652W        W47786  16.148  16.947   1.745  0.1172  0.2111 -0.0590
31653W        W47787  10.339   3.863  14.971  0.0300 -0.1342  0.1973
31654W        W47788   1.918  18.058   3.055  0.1757  0.2224 -0.0479
31655W        W47789   7.552   9.221  11.686 -0.3712  0.2186 -0.0194
31656W        W47790   1.757   9.909   0.875  0.0851 -0.1405  0.1130
31657W        W47791   2.160   5.452   1.214  0.2234 -0.1175 -0.0986
31658W        W47792  13.177   7.019  14.446 -0.3148 -0.1580  0.2133
31659W        W47793   9.397  12.049   4.759  0.1144 -0.3376 -0.0011
31660W        W47794  10.164   5.834  11.177  0.2785 -0.0125 -0.1513
31661W        W47795  15.111  17.682   3.054  0.3237 -0.3837  0.3611
31662W        W47796  16.162  15.289  11.336 -0.0735  0.0076 -0.1112
31663W        W47797  13.429   3.039   9.876  0.1566 -0.0776 -0.2162
31664W        W47798   4.261   9.786  13.518 -0.0422  0.0993 -0.0691
31665W        W47799  17.092   0.447   4.791  0.1430  0.1075  0.0016
31666W        W47800   7.050   0.887   1.578  0.2452  0.0641 -0.1948
31667W        W47801   2.591  11.714   3.391  0.2342  0.1548  0.1604
31668W        W47802   6.127  18.539  13.837  0.1384  0.0083 -0.1887
31669W        W47803   4.932  16.224  14.746  0.1189  0.0535  0.2814
31670W        W47804   5.821   8.250   5.113  0.0785  0.0633 -0.1963
31671W        W47805   5.396  16.559  13.167  0.2610 -0.1656  0.1646
31672W        W47806   9.614  17.841  10.846  0.0878  0.0497 -0.0174
31673W        W47807  13.521   9.638  11.054  0.0141  0.2380 -0.1067
31674W        W47808   1.266  14.538   2.264 -0.0652  0.3075 -0.0755
31675W        W47809   9.944   3.508  14.118 -0.0740  0.1726  0.1634
31676W        W47810  14.964  18.859  15.228 -0.0843  0.2928  0.0753
31677W        W47811  18.297   4.036   2.700  0.0398  0.0997 -0.1077
31678W        W47812   0.134   6.599  13.084  0.1355  0.1743  0.2237
31679W        W47813   6.136   6.133  11.663 -0.1070 -0.0154 -0.0108
31680W        W47814  13.444  18.702   4.967  0.0485 -0.2808  0.1446
31681W        W47815   5.112   2.859  13.156  0.0215  0.0421  0.3042
31682W        W47816  14.941  10.585  12.930  0.3777 -0.0174  0.0268
31683W        W47817  15.885  14.055  12.558  0.3192 -0.1996  0.2371
31684W        W47818   9.490   6.626  12.545  0.2674 -0.1200 -0.0369
31685W        W47819  11.986  12.731   5.200  0.0952  0.1200  0.0611
31686W        W47820   4.773  18.760   4.610 -0.1771  0.3136  0.3411
31687W        W47821  15.688  13.996  10.754  0.0873 -0.1459 -0.0301
31688W        W47822   0.276  13.869   0.415 -0.0894 -0.0793 -0.1319
31689W        W47823   3.704  16.658  11.391 -0.0922  0.1497  0.2343
31690W        W47824   0.101  12.166   1.560 -0.0173 -0.0377  0.1068
31691W        W47825   1.357   1.833  11.091 -0.3683  0.1612  0.1333
31692W        W47826  14.637   3.050   3.351  0.1905  0.1381 -0.1714
31693W        W47827   4.226  13.783  11.683 -0.3039 -0.0881  0.3611
31694W        W47828   0.706  13.536  11.856  0.1872 -0.1080 -0.1962
31695W        W47829   6.289   2.710   0.133  0.0717  0.2705 -0.3040
31696W        W47830   5.192   5.900  13.053 -0.1649  0.0851 -0.1065
31697W        W47831  10.350   2.973  14.754 -0.0368  0.2476  0.0588
31698W        W47832  17.015  13.768   5.599  0.2427  0.2031 -0.2531
31699W        W47833   8.627  10.326   2.084 -0.0079 -0.1182 -0.2028
31700W        W47834   0.170   5.207   4.287 -0.3136  0.1553 -0.1899
31701W        W47835   0.910  13.881   5.075  0.0962  0.0099 -0.0290
31702W        W47836   3.296   8.212   3.416 -0.2378 -0.0254  0.0702
31703W        W47837  13.449   8.282  14.047 -0.1552  0.2224  0.3260
31704W        W47838  10.574  11.823   5.657  0.1572  0.1624 -0.0116
31705W        W47839   0.911   9.886  15.261 -0.2691 -0.1164  0.0250
31706W        W47840   4.107   5.727  14.444 -0.0564  0.0368 -0.3886
31707W        W47841   5.270  10.682  12.393 -0.0251 -0.2132 -0.0710
31708W        W47842   4.740   0.054   0.652  0.5811  0.3033 -0.0523
31709W        W47843   3.641  12.196   5.440  0.1407 -0.1342 -0.1188
31710W        W47844   2.531   6.991   9.660  0.1896 -0.1809 -0.2962
31711W        W47845   8.157   8.911  13.679  0.3015 -0.0916 -0.0029
31712W        W47846   4.691   5.905  10.886  0.0224  0.1073  0.0842
31713W        W47847   9.231  15.072   2.967  0.2359  0.0926  0.0180
31714W        W47848  12.522  14.983   1.507 -0.2678 -0.0775  0.1004
31715W        W47849   9.815  17.025   9.969 -0.0246  0.3387  0.1611
31716W        W47850   8.352   6.911   1.988 -0.0235  0.0640 -0.2504
31717W        W47851   8.652  17.463   2.285  0.2172 -0.3528  0.0771
31718W        W47852  15.741  18.879   4.022  0.2267  0.0168 -0.0969
31719W        W47853  10.950   0.180   1.041  0.3417  0.0263 -0.1126
31720W        W47854  14.057  18.400  12.584 -0.0234  0.3980 -0.0410
31721W        W47855  14.345   0.818  14.583  0.0641 -0.1414 -0.2818
31722W        W47856  17.444  11.229   1.307  0.1702  0.0843 -0.1868
31723W        W47857   0.052  15.728  12.460 -0.2635  0.1096 -0.0044
31724W        W47858   3.587  12.462   0.138 -0.1807 -0.1386 -0.1868
31725W        W47859   9.205   5.870   0.562  0.0343  0.2850  0.0509
31726W        W47860   1.791  12.904   0.383  0.0936 -0.2747 -0.1452
31727W        W47861  11.647  10.182  12.097  0.1003 -0.3485  0.0307
31728W        W47862  12.196  17.482  11.568 -0.3264 -0.2471  0.1017
31729W        W47863  10.548   6.255   9.639  0.1402  0.0700 -0.1682
31730W        W47864  10.411   7.471  11.154  0.1553  0.0238  0.3549
31731W        W47865  17.939   2.489   4.804 -0.1606  0.5947  0.0068
31732W        W47866  10.277   7.140   2.950  0.0051 -0.0295 -0.1044
31733W        W47867  17.775   2.670  13.179 -0.1507 -0.2334  0.0725
31734W        W47868   2.340  12.647   4.218  0.1486  0.3129 -0.0836
31735W        W47869   3.662   9.046  12.557  0.0006  0.0603  0.1063
31736W        W47870   2.401  14.174   9.927  0.0445  0.1140  0.2998
31737W        W47871  16.685   2.114  10.852 -0.0176  0.1198  0.0150
31738W        W47872   6.292  17.522  15.031 -0.1076  0.4241 -0.1556
31739W        W47873   4.278   3.210   0.005 -0.0100  0.1563  0.0161
31740W        W47874   5.011  18.206  12.466  0.2133  0.2720  0.2218
31741W        W47875   7.172   1.132   3.285  0.1258 -0.1784  0.0691
31742W        W47876  11.264   7.275  11.737  0.1607 -0.3004  0.0281
31743W        W47877   4.006   1.870   4.691 -0.0631 -0.1542 -0.0650
31744W        W47878  12.613  15.296   4.506  0.0594 -0.2972 -0.0186
31745W        W47879  15.424   7.734   4.279 -0.0750 -0.0530 -0.1335
31746W        W47880   1.062   8.186  12.086 -0.0042 -0.4154  0.2579
31747W        W47881  17.233  14.727   3.962 -0.2547 -0.1951 -0.2844
31748W        W47882   9.698   1.338  13.707  0.2270  0.2308 -0.0400
31749W        W47883   0.650   2.110  14.837  0.1454 -0.1077 -0.0380
31750W        W47884  13.203   2.830   1.357 -0.1500 -0.3095 -0.2432
31751W        W47885   0.686   6.450  12.100  0.2406 -0.1628 -0.1785
31752W        W47886  10.048   1.065   0.602 -0.1154 -0.1397 -0.4183
31753W        W47887   0.300   2.434   2.963  0.3234  0.0569 -0.1866
31754W        W47888  14.482   4.951  13.638 -0.3917 -0.1612  0.2307
31755W        W47889   2.992   3.344   1.096 -0.0006  0.2149 -0.1418
31756W        W47890   7.271   2.403  10.726 -0.1469 -0.0876 -0.2460
31757W        W47891  16.249  11.368  13.790  0.2232 -0.1988  0.0862
31758W        W47892   5.270  14.383   4.725  0.2266  0.2192 -0.2532
31759W        W47893   3.969  18.395   2.864 -0.2928 -0.2279 -0.1980
31760W        W47894   9.882  12.492   3.450  0.3184  0.0353  0.1736
31761W        W47895   0.527  18.370   0.471 -0.4463  0.1349 -0.0157
31762W        W47896  12.582   8.397  14.585 -0.1554  0.2444  0.1630
31763W        W47897  16.965  14.808   2.493 -0.6570 -0.1641 -0.1725
31764W        W47898   8.354  18.935   4.107 -0.0405  0.1745 -0.4313
31765W        W47899  12.488  17.512   3.496  0.0037  0.3513  0.0052
31766W        W47900   7.750  12.724  15.007 -0.2434 -0.1273  0.0321
31767W        W47901   6.319   7.182   2.047  0.0815 -0.0885 -0.0113
31768W        W47902  15.393  13.691  13.943 -0.2257 -0.1937  0.0783
31769W        W47903  16.763   6.022  12.471 -0.0956 -0.0816  0.1933
31770W        W47904  18.238   2.726  12.203 -0.3094 -0.0254  0.1314
31771W        W47905   8.665  12.331   2.584 -0.0920 -0.1327 -0.5510
31772W        W47906  14.562   7.629   5.665  0.1090  0.0649  0.1511
31773W        W47907   9.569   0.417   1.744  0.1048  0.0886 -0.0887
31774W        W47908  11.951  13.820   3.570  0.0874  0.1338 -0.3238
31775W        W47909  13.969   7.214  13.697 -0.0806  0.3630 -0.2574
31776W        W47910   3.043   6.258   3.178  0.0319  0.6722 -0.1215
31777W        W47911   1.767  12.966  14.734 -0.1484 -0.0009 -0.2889
31778W        W47912   7.597   5.950  12.947 -0.0294  0.2003 -0.0957
31779W        W47913   3.885  14.980  12.524  0.1036 -0.0634 -0.1411
31780W        W47914   4.888  11.496  11.124 -0.1259  0.1616  0.1202
31781W        W47915  17.878  17.962  13.950 -0.0494  0.0017 -0.0198
31782W        W47916  14.233   7.661   2.026 -0.1724 -0.3458  0.1159
31783W        W47917  14.810  14.130   2.939  0.1128 -0.1253  0.0052
31784W        W47918   1.527   0.462   0.258  0.2954 -0.0575  0.0037
31785W        W47919   1.016   6.862   0.856  0.4283  0.0545  0.3095
31786W        W47920   1.128   0.057   4.514 -0.1957  0.2335  0.1198
31787W        W47921  16.536  10.213  10.628 -0.0468  0.0895 -0.0682
31788W        W47922   6.194   2.232  15.246  0.1490 -0.0518 -0.2510
31789W        W47923  11.818  17.811  11.235 -0.1507 -0.1831 -0.1489
31790W        W47924   9.226   3.043  14.259  0.3383 -0.2963 -0.2478
31791W        W47925   5.959   3.075   1.549  0.1719  0.0854  0.0545
31792W        W47926   4.231  16.643  14.802  0.0591  0.0204 -0.3897
31793W        W47927  18.020  14.736  11.611  0.2287  0.2284  0.1444
31794W        W47928  15.539  15.255  12.117  0.1987 -0.2312 -0.0017
31795W        W47929   6.460  17.282   1.797 -0.0942  0.0666  0.0284
31796W        W47930  15.707  17.901  13.175  0.2852 -0.3632 -0.0571
31797W        W47931  16.139  17.329   2.095 -0.0550  0.0943  0.2804
31798W        W47932   2.510  13.823   3.751 -0.5320 -0.1943 -0.1535
31799W        W47933  14.723  11.170   0.347 -0.1978 -0.0767 -0.1793
31800W        W47934   4.755  15.117  10.939  0.0102 -0.3615 -0.1377
31801W        W47935  15.782   4.214  12.799 -0.1427 -0.3079  0.4021
31802W        W47936   5.284   9.919   0.989 -0.1559  0.1463 -0.2359
31803W        W47937  12.541  16.602   1.533 -0.0983  0.2986 -0.0646
31804W        W47938  16.304  17.219   2.951  0.0776  0.2017 -0.1796
31805W        W47939   1.693  14.722   4.639 -0.3710  0.0791 -0.1870
31806W        W47940   9.738  12.245  10.460  0.2768  0.0674 -0.0957
31807W        W47941   3.272   8.467  14.221 -0.2373  0.0382  0.3958
31808W        W47942  14.216  15.299  14.966  0.0016 -0.2490  0.0926
31809W        W47943   2.229  12.827  14.600  0.0681 -0.0298 -0.0728
31810W        W47944  15.814   0.652   2.414  0.0402  0.2572  0.0065
31811W        W47945   7.094  11.335   4.050  0.0541 -0.0756 -0.0651
31812W        W47946   8.702   0.164  12.461  0.1847  0.2754 -0.0864
31813W        W47947  12.836   7.719   1.520 -0.1826  0.0939  0.0141
31814W        W47948   1.309  16.209   0.306 -0.1580  0.2929  0.2584
31815W        W47949   9.268   5.036   2.931  0.3575  0.2163 -0.0827
31816W        W47950  13.164  15.537  13.945  0.0979 -0.1508 -0.2219
31817W        W47951   0.067   5.062   2.644 -0.0047  0.2934 -0.2516
31818W        W47952   0.358  17.962   2.749  0.1438  0.2270 -0.1141
31819W        W47953   5.805  12.327  14.595 -0.2240 -0.2106  0.0989
31820W        W47954  11.747  17.804  12.761  0.0945 -0.0538  0.0651
31821W        W47955  17.605  15.195  11.440  0.1023 -0.1258 -0.0949
31822W        W47956   4.136   2.115   1.299 -0.3052 -0.2381 -0.0036
31823W        W47957  15.369   8.186   0.553  0.1713 -0.0350 -0.1117
31824W        W47958  17.141  11.569  10.642 -0.0157 -0.1786 -0.3302
31825W        W47959   3.649   3.169  13.852  0.0038 -0.0457 -0.0319
31826W        W47960   8.937  15.985   3.454 -0.2007 -0.0808  0.0665
31827W        W47961   7.056   6.881  10.366  0.0249  0.4308 -0.0289
31828W        W47962  16.666   6.941   4.455  0.3803 -0.0747  0.1676
31829W        W47963  10.560   1.879   4.510 -0.6072  0.3900 -0.1209
31830W        W47964   5.965   2.420  14.276 -0.3390 -0.1689 -0.0316
31831W        W47965  14.290   5.062  14.190 -0.2521 -0.1080  0.1378
31832W        W47966  15.849  13.583   5.163 -0.2922  0.0182  0.0993
31833W        W47967  13.450   0.787   2.139 -0.1179  0.3217 -0.2195
31834W        W47968  14.011   5.770  13.670  0.3826 -0.1960 -0.2463
31835W        W47969  10.521  17.379  12.899 -0.3810  0.1764  0.1201
31836W        W47970   6.239  14.664  12.150  0.1259 -0.0647  0.0758
31837W        W47971   2.026  18.120  11.118  0.1144 -0.1048 -0.1451
31838W        W47972  17.405   5.429   1.317  0.0093  0.1869 -0.1300
31839W        W47973   1.252   7.876   3.383  0.1414  0.0643 -0.2168
31840W        W47974   4.254   9.268   3.534  0.1693 -0.2510 -0.1156
31841W        W47975  17.524   2.688   0.553 -0.0748  0.1714 -0.0542
31842W        W47976  17.769  18.895   1.002  0.4742 -0.0893  0.3177
31843W        W47977  16.966  12.152   4.986 -0.3744 -0.2635  0.0542
31844W        W47978  17.947  16.471  10.949 -0.2883  0.2590 -0.1155
31845W        W47979   8.088   3.786   0.673  0.0956  0.2102 -0.1878
31846W        W47980  16.472   5.478   2.655 -0.1053 -0.0325 -0.0349
31847W        W47981  10.302  18.290  12.522 -0.1563  0.0233  0.0861
31848W        W47982   5.445  18.904  11.637  0.0358 -0.0619  0.1349
31849W        W47983  18.873   1.746  11.298  0.0008 -0.1369 -0.3899
31850W        W47984  14.989   3.739  12.569  0.0072  0.1085 -0.1521
31851W        W47985  12.707   1.783   3.625 -0.2499  0.2773  0.0190
31852W        W47986   6.172   1.754   3.163 -0.0394 -0.0703 -0.0364
31853W        W47987  18.637  17.106  11.115 -0.1851 -0.1609  0.0740
31854W        W47988   6.677   5.727   1.749 -0.0246 -0.1025 -0.2574
31855W        W47989   9.922  18.712   0.774  0.0192  0.0554  0.0096
31856W        W47990   3.772  13.035  12.063 -0.0870  0.3054 -0.0062
31857W        W47991   0.806   7.377   1.503 -0.1152 -0.3786 -0.6463
31858W        W47992   3.555  14.882  13.211 -0.0632 -0.0368  0.0340
31859W        W47993  12.227  13.565   1.319 -0.0634 -0.1530 -0.1245
31860W        W47994  14.485   1.659  14.904  0.3717  0.2287  0.1459
31861W        W47995  12.560  18.410  14.328 -0.1727  0.0608  0.0740
31862W        W47996   3.334  17.638   4.364  0.1272 -0.0492  0.2541
31863W        W47997   6.856   2.368  12.411  0.2535  0.2678  0.2527
31864W        W47998  18.674   4.538   9.854  0.0385 -0.0356  0.0014
31865W        W47999  13.245   4.316  12.575 -0.0396  0.0634  0.1046
31866W        W48000   2.471   2.392   5.312  0.2379 -0.0232  0.0384
31867W        W48001  12.722  16.713  13.552 -0.0490  0.2013  0.0273
31868W        W48002   7.940   0.510  13.216 -0.3004  0.2225  0.1267
31869W        W48003   4.876  18.768  14.945  0.0584 -0.1246 -0.1288
31870W        W48004  14.981   0.723   0.740 -0.1225 -0.0201 -0.0420
31871W        W48005   5.033  15.268   4.262  0.1550  0.1233  0.1441
31872W        W48006   2.152   8.250   2.562  0.1268 -0.1549 -0.2370
31873W        W48007   5.640  18.050  13.645 -0.0377 -0.2921 -0.2702
31874W        W48008  11.334  13.161   0.985  0.0381 -0.0570  0.0904
31875W        W48009  14.622   5.738  10.412 -0.0981  0.1624 -0.0574
31876W        W48010  12.303   4.489  14.382 -0.3180  0.1113  0.2556
31877W        W48011  15.640   3.920   5.827 -0.0521  0.0428  0.0354
31878W        W48012   7.532   2.332   0.212  0.0440  0.2887 -0.0830
31879W        W48013   9.536  16.610   0.355  0.0450 -0.1185  0.0902
31880W        W48014   0.365   6.603  14.036 -0.0861 -0.0602 -0.2102
31881W        W48015   4.747  16.748  13.585  0.0697 -0.4689  0.0060
31882W        W48016   4.525  14.484   0.122  0.3236  0.0317 -0.1417
31883W        W48017  12.250  10.046   0.084  0.0896 -0.2677  0.0529
31884W        W48018  17.746   7.666  12.070  0.0576 -0.3030 -0.0152
31885W        W48019  13.107  10.136  12.770 -0.3058  0.1100  0.0969
31886W        W48020  10.538  12.127   3.402  0.3514 -0.1481  0.1592
31887W        W48021   2.391   1.677   0.824 -0.0759  0.1454  0.2754
31888W        W48022   7.814   5.656  13.607 -0.2393 -0.1094  0.1084
31889W        W48023  15.151   3.709   5.112  0.3203 -0.0115  0.0889
31890W        W48024  12.849  17.128   2.831 -0.2073  0.2522  0.0973
31891W        W48025  17.653  11.175  15.183  0.1032 -0.0823  0.0095
31892W        W48026  15.232  16.408  13.418  0.2383  0.2393 -0.2078
31893W        W48027  18.674  13.583   0.381 -0.0908 -0.1724  0.1989
31894W        W48028  15.436  17.896   3.761 -0.0805  0.3557 -0.0258
31895W        W48029  15.901  15.338  13.345 -0.0590  0.1345  0.1331
31896W        W48030   4.152  16.197   9.741  0.0667  0.0895  0.2416
31897W        W48031   3.816   2.507   3.420  0.4006  0.2370  0.4300
31898W        W48032   4.718   4.756  10.074  0.0434  0.3511 -0.0229
31899W        W48033   3.552   7.338   2.084 -0.0503 -0.2540  0.1479
31900W        W48034   8.563  12.371   2.099  0.0935  0.0481 -0.3157
31901W        W48035   7.329   2.786   0.417 -0.1656 -0.0097  0.0065
31902W        W48036   7.782   8.019   0.505 -0.1784  0.1467  0.0833
31903W        W48037   4.258  17.767  12.064 -0.3455 -0.1602  0.2022
31904W        W48038   7.362   4.246   4.144 -0.1698 -0.4171  0.2097
31905W        W48039   7.307  14.747   5.176 -0.2328  0.1925 -0.1575
31906W        W48040   8.308   9.202   4.092  0.3155  0.1757 -0.3068
31907W        W48041   1.028   2.881   5.071  0.0548  0.0054  0.3549
31908W        W48042   0.584  16.444   4.644 -0.0382 -0.1603 -0.1689
31909W        W48043   2.932   7.332   1.762  0.0825  0.0688  0.0203
31910W        W48044   4.745   8.327  12.000 -0.0789  0.5000 -0.2416
31911W        W48045  16.148  17.654  13.472 -0.0188 -0.0893  0.0313
31912W        W48046   6.734  18.275  10.768  0.2786  0.0756  0.0611
31913W        W48047   0.093  18.057  12.450 -0.0569 -0.0936 -0.2503
31914W        W48048   9.435   3.471  14.419 -0.1676  0.0337  0.0400
31915W        W48049   6.106  17.708  10.670 -0.4180 -0.2776  0.0613
31916W        W48050   3.224  17.595  14.758  0.0043  0.0896  0.3900
31917W        W48051   6.353   6.349  14.419  0.1007 -0.0893 -0.2713
31918W        W48052   8.808   0.116  10.484  0.2076  0.2036  0.1156
31919W        W48053  18.990   2.403   5.146 -0.0319  0.1736 -0.1239
31920W        W48054   8.399  11.354   4.602 -0.0476  0.1860  0.1990
31921W        W48055  17.212   9.635   1.628 -0.0482 -0.1376  0.2667
31922W        W48056  12.402  14.354   4.396 -0.0031 -0.1130  0.0785
31923W        W48057   2.638  14.960  15.022 -0.1373 -0.0371  0.0482
31924W        W48058  12.844   2.242   3.731  0.1674 -0.1151 -0.0896
31925W        W48059  14.165  15.397   5.472  0.0041  0.5003  0.0314
31926W        W48060  16.830  18.590  14.336  0.0331  0.1328 -0.0454
31927W        W48061   0.675  14.070   3.359  0.1265  0.0913  0.1405
31928W        W48062  18.803   0.827   4.132  0.3426 -0.4632  0.3326
31929W        W48063   5.300   5.921   2.946  0.1778  0.0209 -0.1873
31930W        W48064   6.800  12.000  13.816 -0.1396  0.0125 -0.2071
31931W        W48065   2.166  14.697   3.498 -0.1191 -0.1191  0.0213
31932W        W48066   9.791  13.343  12.511 -0.1509 -0.0873 -0.0929
31933W        W48067   1.435   0.431  11.288  0.1580  0.1520  0.1002
31934W        W48068  11.883  18.409  13.573  0.0874  0.1402 -0.1126
31935W        W48069   0.403  14.731  13.399  0.0599  0.0098 -0.0288
31936W        W48070  12.297   7.721   4.563 -0.1283 -0.1697 -0.0448
31937W        W48071   8.968   7.362   0.496 -0.2864 -0.1180  0.3032
31938W        W48072  18.453   0.670   4.435  0.2007 -0.2415  0.1631
31939W        W48073  18.546  14.364   5.004  0.2131 -0.0212  0.1977
31940W        W48074   0.703   5.569  13.832 -0.1002  0.2792  0.0281
31941W        W48075   9.375   6.307   3.088  0.0685  0.0668  0.1172
31942W        W48076  16.526  16.494  12.401  0.3857  0.0239  0.0649
31943W        W48077  13.037   2.096  13.768  0.1949 -0.3047 -0.1635
31944W        W48078   0.993   5.689   1.589  0.1985 -0.1466 -0.1758
31945W        W48079  16.208  11.754   9.758 -0.1152  0.2941  0.1621
31946W        W48080   5.272  17.897  12.781  0.0833 -0.1045 -0.2916
31947W        W48081  18.362  11.145   4.506  0.3842  0.1295 -0.2336
31948W        W48082  11.816  14.663  13.351  0.1426  0.2553  0.1313
31949W        W48083   0.369   9.962  14.575 -0.1255 -0.0550 -0.2202
31950W        W48084  18.277   2.883   5.225 -0.0728 -0.2436 -0.0010
31951W        W48085  10.581   2.083  10.627  0.0507  0.0172 -0.1111
31952W        W48086  11.321   4.896   9.326 -0.0852 -0.0701  0.1790
31953W        W48087  14.020  12.262  11.263 -0.3144 -0.1300 -0.1408
31954W        W48088   2.100   7.758  14.038  0.0508  0.0236  0.2070
31955W        W48089   8.632   5.905   1.287  0.0073 -0.0486  0.0056
31956W        W48090   2.350  16.335  14.866 -0.0988 -0.1359 -0.3262
31957W        W48091  12.619   3.972   3.332 -0.1762  0.1208 -0.0461
31958W        W48092  19.001   2.461  15.050  0.1068 -0.1438 -0.2077
31959W        W48093   0.003  18.926  13.114 -0.0355  0.2318  0.0494
31960W        W48094  18.223   8.288   2.195 -0.3395 -0.1915  0.1185
31961W        W48095  14.090  17.578  11.866  0.1306  0.1991 -0.2409
31962W        W48096   5.565  16.474   3.272  0.1156 -0.2443  0.2309
31963W        W48097   3.261   0.451   4.101  0.0238 -0.2702  0.2396
31964W        W48098   7.372   0.802  11.518 -0.0622  0.1133  0.4049
31965W        W48099  17.495   2.739   2.398  0.1422 -0.2430 -0.0922
31966W        W48100  17.635  10.632  12.516  0.4487  0.1049 -0.4514
31967W        W48101   2.209   6.025  13.622 -0.2285  0.0944  0.1026
31968W        W48102  15.105   0.589  14.725  0.0205  0.1285 -0.0165
31969W        W48103  12.537  15.347  13.617  0.0770 -0.1707 -0.0789
31970W        W48104  14.054  14.290   3.550 -0.2347  0.1031 -0.2532
31971W        W48105   9.916   2.486  14.768  0.1286  0.2105 -0.0163
31972W        W48106  13.739   1.221  13.920 -0.1356 -0.2828  0.1333
31973W        W48107  18.965   2.899   1.491 -0.2392  0.0588  0.3631
31974W        W48108   9.539  17.299  11.646  0.0424  0.0687 -0.3883
31975W        W48109  12.159  13.107   1.566  0.1380 -0.1461 -0.3162
31976W        W48110   6.259   2.404  13.282  0.0543 -0.0542 -0.1255
31977W        W48111  12.582  10.126  12.902  0.0600 -0.2433  0.1219
31978W        W48112  11.666  15.689  11.057 -0.1156 -0.3588  0.0582
31979W        W48113   5.523   0.424   4.489  0.0117  0.0982  0.2993
31980W        W48114  11.680   6.307  12.055 -0.0151 -0.0357 -0.4053
31981W        W48115  16.072   7.727  12.066 -0.0149  0.0163  0.0111
31982W        W48116   3.051  15.684  12.156 -0.0163 -0.1994 -0.0086
31983W        W48117  14.352   3.639  15.243 -0.2537  0.1966 -0.1176
31984W        W48118  14.115  14.110   9.813 -0.0248 -0.2298  0.3557
31985W        W48119  18.520   3.076  12.523 -0.0572 -0.1294 -0.1242
31986W        W48120  15.588   6.912   3.156  0.0554 -0.2929  0.2659
31987W        W48121  11.011  11.307  11.186 -0.3343 -0.1176 -0.3109
31988W        W48122   6.700   0.528  13.217  0.2129  0.1303 -0.0661
31989W        W48123   7.199  13.279  13.838  0.0642  0.1616 -0.1860
31990W        W48124   8.762   6.106   4.094 -0.0332 -0.1835  0.0437
31991W        W48125  10.131   0.532  13.524 -0.0334  0.0456 -0.2425
31992W        W48126   6.925  13.139  11.483  0.0031  0.1384 -0.0383
31993W        W48127  13.661  18.588  11.745  0.1992  0.1555  0.4176
31994W        W48128  13.906   5.640   2.470 -0.1696 -0.0294 -0.0845
31995W        W48129   6.038   6.261   3.019 -0.0560  0.0486 -0.0572
31996W        W48130  14.265  13.274   3.551  0.0292  0.0185 -0.1003
31997W        W48131   2.472  16.407  14.412 -0.1097  0.0234  0.4069
31998W        W48132   6.913   5.248  13.613  0.0534 -0.0957  0.0942
31999W        W48133  14.301  13.873   4.455 -0.2652 -0.0923  0.4056
32000W        W48134  10.488  17.133  14.078  0.0103 -0.1532  0.2350
32001W        W48135   0.715   0.220   4.804 -0.0349  0.0826 -0.1120
32002W        W48136   1.706   2.329   2.041  0.1018 -0.0505 -0.0668
32003W        W48137  16.506   7.297   3.195  0.3890  0.0071  0.3828
32004W        W48138   1.118   4.057   0.710  0.3314 -0.0349 -0.0910
32005W        W48139   2.537   7.447   3.653 -0.0292  0.1093 -0.1407
32006W        W48140  18.399  14.998   4.360 -0.1141 -0.0637 -0.0516
32007W        W48141  16.569  10.695  10.874  0.1019  0.1051 -0.0022
32008W        W48142   3.154   5.666  12.307 -0.3030  0.1582  0.0116
32009W        W48143   4.022  12.640  12.334 -0.2685 -0.1142  0.0246
32010W        W48144   4.492   1.968   0.911 -0.0801  0.3383 -0.0189
32011W        W48145  12.824  11.199   5.107 -0.1329  0.3145  0.1038
32012W        W48146   8.243  14.287   1.371  0.0335 -0.0289 -0.2426
32013W        W48147   4.896  10.410  12.306  0.0941 -0.1233 -0.0125
32014W        W48148   5.380  16.418   1.447  0.0770 -0.0612  0.1132
32015W        W48149  16.598  13.738   1.017 -0.1048 -0.1818 -0.2618
32016W        W48150   7.681   0.916  10.898  0.2717  0.1668 -0.1853
32017W        W48151   0.591   5.324   4.586 -0.1410  0.3959 -0.0411
32018W        W48152  11.085   5.874  13.196  0.1854 -0.0530  0.0568
32019W        W48153  17.201   6.408   1.699  0.1380 -0.4749 -0.1931
32020W        W48154  13.305  18.338   1.697  0.0619  0.0048 -0.0883
32021W        W48155   5.644  11.279   2.302  0.2169  0.2055  0.2808
32022W        W48156   6.401   7.711   1.964 -0.0083 -0.1038  0.2421
32023W        W48157   8.741   5.077   0.695 -0.0176 -0.4604  0.1430
32024W        W48158  18.444   9.308  14.571 -0.0525 -0.0967 -0.1314
32025W        W48159  14.720   1.497   4.535 -0.1834 -0.1908 -0.3165
32026W        W48160  10.459   3.431   4.541 -0.0741  0.1656 -0.0336
32027W        W48161   0.718  13.880  10.987 -0.0311  0.1907  0.1271
32028W        W48162   4.250   7.997  11.123  0.1042 -0.2183  0.0282
32029W        W48163   3.897   6.437   0.822  0.2964 -0.1408  0.1938
32030W        W48164  14.917   1.090   2.230  0.4223  0.3142 -0.0803
32031W        W48165   0.494  18.543   3.654 -0.1030  0.0714 -0.1041
32032W        W48166   5.102   9.552   1.248  0.2485  0.0081 -0.3449
32033W        W48167   5.259   3.611   0.306  0.2101 -0.2110  0.0232
32034W        W48168  10.254   6.318   2.391 -0.1428 -0.1865 -0.3393
32035W        W48169   7.928   2.486   1.888  0.1264 -0.2038 -0.2566
32036W        W48170   5.554   7.360  11.861  0.0749 -0.0629 -0.2506
32037W        W48171  18.965  10.851   2.132 -0.2181  0.0749  0.0423
32038W        W48172   3.639   4.428   3.363  0.0489  0.0380  0.1237
32039W        W48173   1.911   6.374   1.329 -0.2776  0.0188  0.1006
32040W        W48174   4.037   5.474   1.726 -0.1438  0.0068  0.1204
32041W        W48175  14.050   0.361   1.560 -0.2737 -0.0197  0.3151
32042W        W48176  10.394  15.511   0.637 -0.1327 -0.0784  0.0270
32043W        W48177  13.630   8.531   1.125 -0.1863  0.0061 -0.0979
32044W        W48178  18.965   6.552   4.737  0.0960  0.0995 -0.2352
32045W        W48179   9.480  15.222   4.945  0.1048 -0.1710  0.0964
32046W        W48180   5.496  16.550  10.768  0.1680 -0.0363  0.3731
32047W        W48181   0.634   3.038   0.610 -0.0583  0.2194  0.1122
32048W        W48182  16.701   3.399   3.656 -0.0809  0.0357 -0.1734
32049W        W48183  10.423   1.070  12.495  0.0605 -0.2212 -0.1149
32050W        W48184   7.586   2.382   3.058  0.2331  0.0867  0.3019
32051W        W48185   6.312   6.024   1.530 -0.1098  0.1850 -0.2128
32052W        W48186   1.053   0.520  12.334 -0.0647 -0.1960 -0.1394
32053W        W48187   4.327  10.231   5.379  0.3449 -0.1510  0.0401
32054W        W48188  13.560   2.139   1.780 -0.0983  0.3291  0.0136
32055W        W48189  10.154  14.215  14.580 -0.0518 -0.0989 -0.2956
32056W        W48190   3.081   5.139  11.506 -0.0220  0.1344  0.0368
32057W        W48191  17.103   9.732   4.349 -0.3194 -0.1338 -0.1572
32058W        W48192  17.995   8.759   4.764  0.1870  0.0551 -0.2634
32059W        W48193   8.180  14.684   3.951 -0.0491  0.0780  0.0478
32060W        W48194  15.930   3.597  14.446  0.0900  0.0383 -0.2758
32061W        W48195   1.305  10.826  13.135 -0.1066 -0.1398  0.1496
32062W        W48196   1.269  15.467   5.088  0.0731 -0.2894 -0.0870
32063W        W48197   1.568   3.157  13.578  0.1577  0.1799  0.0545
32064W        W48198  11.572  12.687  13.822 -0.2361  0.1251  0.1056
32065W        W48199   5.296   6.785   0.536 -0.4179 -0.2644  0.1840
32066W        W48200  14.184  16.773  12.578 -0.2236  0.0524 -0.1207
32067W        W48201   5.456   6.118  14.581 -0.0808 -0.0836  0.1775
32068W        W48202   7.105  12.043  11.116 -0.0192 -0.0702 -0.2818
32069W        W48203  17.452  16.728  12.294  0.2262  0.2549 -0.0876
32070W        W48204  18.106  13.545   3.882  0.3095 -0.2064 -0.1479
32071W        W48205  12.598   5.154   3.677 -0.0248 -0.2576  0.0728
32072W        W48206   8.138   2.666   3.760  0.0275 -0.0701 -0.2166
32073W        W48207  17.813   4.199   2.799 -0.0446  0.4284 -0.2378
32074W        W48208   5.218   9.072   3.243  0.3022 -0.0256  0.1635
32075W        W48209   0.985   1.627  14.327 -0.0809  0.2781 -0.0883
32076W        W48210   5.946   5.476  12.698 -0.0504 -0.1331  0.3599
32077W        W48211   0.826  10.901  11.899  0.3692  0.3144 -0.0027
32078W        W48212  17.273  16.406   5.484  0.1205 -0.2376  0.2319
32079W        W48213  11.679   8.791   2.023  0.0872  0.0900 -0.1410
32080W        W48214   4.385  10.574   0.080  0.1858  0.2904 -0.0066
32081W        W48215   0.108   7.774  11.352  0.0600  0.1538  0.0375
32082W        W48216   2.135   7.748   2.701 -0.0977  0.3854 -0.1611
32083W        W48217  12.844   2.598   2.044 -0.0770  0.0872  0.0876
32084W        W48218  15.548   5.981  14.467 -0.0436 -0.3034  0.2281
32085W        W48219   9.697   6.051  12.437  0.0086 -0.0197  0.2976
32086W        W48220   6.748   2.032  12.727 -0.0184  0.1434 -0.3827
32087W        W48221   6.967   1.889  12.312 -0.2319 -0.1492 -0.0965
32088W        W48222   4.061   0.556   0.598  0.2915  0.2102  0.1552
32089W        W48223  10.741   7.734  14.612 -0.0894  0.0002 -0.1341
32090W        W48224   2.128   4.408   2.517  0.2332  0.2473 -0.2230
32091W        W48225   1.901  11.345  10.328  0.2761  0.1185  0.2365
32092W        W48226  15.736  14.421  13.552 -0.0246  0.0317 -0.1220
32093W        W48227   4.045   5.404   0.747 -0.1145  0.2546  0.1858
32094W        W48228   7.375  10.195   2.327  0.2746  0.0492  0.0676
32095W        W48229   7.203   4.207   3.651  0.1069 -0.0969 -0.3802
32096W        W48230   6.883   5.981   0.911  0.0472 -0.0017 -0.1682
32097W        W48231   0.745   8.302  12.424  0.1889 -0.0495 -0.0610
32098W        W48232   4.819  16.026   3.596 -0.0474 -0.0907 -0.0526
32099W        W48233  11.783   8.407   9.867 -0.1002 -0.0776  0.0328
32100W        W48234  15.214   9.472   0.313  0.1139  0.0965 -0.3682
32101W        W48235  14.799   0.372   1.116  0.0569  0.1361  0.2114
32102W        W48236   0.822  10.621   5.394 -0.1007 -0.2884 -0.2205
32103W        W48237   5.981  10.032  12.812 -0.1688 -0.1409 -0.3274
32104W        W48238   0.013  14.983  11.799 -0.1647 -0.2384 -0.3062
32105W        W48239   5.378  10.660  14.236  0.0052 -0.2923 -0.2751
32106W        W48240  16.694  10.650   5.417  0.0622 -0.0699  0.0054
32107W        W48241  16.972  13.542   1.396 -0.1269 -0.4864  0.1831
32108W        W48242  12.842  12.990  12.541  0.1993  0.1451  0.1283
32109W        W48243   9.723   8.925  14.720 -0.1431  0.2060 -0.0144
32110W        W48244  17.260  18.807   2.431  0.2314 -0.0253 -0.3450
32111W        W48245   8.364   6.859   4.472  0.1045  0.0797 -0.1262
32112W        W48246  15.044   8.656  14.275  0.0035  0.2380 -0.3884
32113W        W48247   9.612   4.403   4.843  0.1641 -0.0857  0.3015
32114W        W48248  16.259  13.439  14.344  0.2688  0.0622  0.3900
32115W        W48249  18.549   1.157  13.189 -0.0742  0.0145 -0.1992
32116W        W48250   0.158   4.060   2.927 -0.3946 -0.2590  0.4814
32117W        W48251   9.575   8.112   4.116  0.1106 -0.3777 -0.3552
32118W        W48252  15.884  10.630   2.421  0.4152  0.0460  0.0076
32119W        W48253   9.584   4.775   0.043  0.0889  0.2521 -0.0447
32120W        W48254  13.511   2.061  13.161  0.1766  0.2345  0.2884
32121W        W48255   8.084  17.582   3.676 -0.2973 -0.3532  0.0478
32122W        W48256   3.133  10.079   3.561 -0.1953 -0.1916  0.0374
32123W        W48257   8.912   1.019  14.170  0.1719 -0.2837  0.1616
32124W        W48258   5.258   9.711   5.039 -0.3155  0.0585 -0.2254
32125W        W48259   2.179   5.042  10.870 -0.1523 -0.0200 -0.2664
32126W        W48260   1.817  16.116   0.146  0.2967 -0.0670 -0.1159
32127W        W48261   1.074   0.035  12.188 -0.0540  0.0208  0.1754
32128W        W48262  16.803   6.398  12.897  0.0268  0.2315 -0.2270
32129W        W48263  14.408   2.159  12.014  0.3343  0.0871  0.3083
32130W        W48264   3.569   4.602   2.860 -0.0684 -0.0868 -0.2244
32131W        W48265  17.096   3.893  11.899 -0.1018  0.1269  0.0912
32132W        W48266   0.764   9.605  14.426  0.0378 -0.3430  0.0807
32133W        W48267   2.843   1.680   0.553 -0.2052 -0.2218 -0.1400
32134W        W48268   1.107  14.689  15.019  0.0359 -0.0810  0.1187
32135W        W48269  13.219   9.859   1.487  0.1357 -0.0112 -0.1097
32136W        W48270   2.667   1.680   4.177 -0.3755  0.3517 -0.1726
32137W        W48271  15.117   7.211   1.645  0.0094 -0.1316  0.2513
32138W        W48272   2.350   7.969   3.515  0.2589  0.0797 -0.1284
32139W        W48273   4.951  16.861  14.341  0.2129  0.1087 -0.0478
32140W        W48274   7.527  17.431   4.657  0.5658 -0.1467 -0.0784
32141W        W48275  16.849   8.127   1.225  0.1218  0.1032  0.1199
32142W        W48276  11.972  15.144  11.969  0.2667  0.1991 -0.2265
32143W        W48277   6.676  10.714   0.966 -0.2733 -0.1467  0.1254
32144W        W48278  12.507   7.730  12.855 -0.0445 -0.3606 -0.0515
32145W        W48279  17.867  17.740   0.909 -0.0403 -0.3557  0.1500
32146W        W48280   7.877  15.198   3.300 -0.2237 -0.0938  0.0860
32147W        W48281  12.659  16.930   2.235  0.0273  0.1100  0.0587
32148W        W48282  13.388  16.549  10.229 -0.2108  0.2635 -0.0641
32149W        W48283  18.768   2.221  12.650 -0.5091  0.1451  0.1015
32150W        W48284  13.627   7.526  13.457 -0.1392 -0.3745  0.1984
32151W        W48285  13.522  18.782  12.219  0.0170 -0.1156  0.0284
32152W        W48286  13.351  13.541  10.312  0.0995 -0.2453 -0.0469
32153W        W48287   1.060  16.542   2.205 -0.0367 -0.1088  0.1740
32154W        W48288   7.967  17.053   2.012  0.2053  0.2507  0.0459
32155W        W48289   1.529   6.330   4.217  0.2760 -0.0307 -0.1872
32156W        W48290  14.689   7.474   2.814  0.1081  0.0169  0.1062
32157W        W48291   1.599   3.628   3.121  0.0229  0.2792  0.0816
32158W        W48292   1.294  13.294  12.321  0.1913 -0.0555 -0.2690
32159W        W48293  18.404  13.021  10.852 -0.1596 -0.0039 -0.1325
32160W        W48294  10.527   6.368  14.568 -0.3378  0.0365  0.1900
32161W        W48295  14.431  17.984  13.638  0.1255 -0.0479 -0.0981
32162W        W48296   3.661  11.039   4.727 -0.2220  0.3567  0.0539
32163W        W48297   9.241   3.826   2.669 -0.0918  0.0440  0.2424
32164W        W48298  11.841   1.495   4.430 -0.1810  0.1813 -0.0049
32165W        W48299   5.224   9.463   0.042 -0.0484  0.1442 -0.1184
32166W        W48300  10.262   1.606  10.682 -0.3423 -0.0912  0.2889
32167W        W48301   2.694  14.685   4.700  0.3070  0.2096 -0.1850
32168W        W48302   9.814  14.198  13.505 -0.0830 -0.1325 -0.2385
32169W        W48303  18.420   5.460  14.851 -0.0895 -0.1750  0.0778
32170W        W48304  12.451   4.393   0.552 -0.0709 -0.1554  0.2788
32171W        W48305   4.401   4.663   1.183 -0.2612 -0.2480 -0.1381
32172W        W48306   1.791  14.535  12.935 -0.0356  0.1992  0.3079
32173W        W48307   6.434  17.080  13.879 -0.1939  0.1041 -0.2693
32174W        W48308   4.167   6.245   4.704 -0.2376  0.1435 -0.3915
32175W        W48309  16.214  15.115   2.334 -0.0490  0.1983 -0.1211
32176W        W48310   9.429   6.507   0.610  0.1293 -0.1244  0.1152
32177W        W48311  14.802   5.311  14.614 -0.1922 -0.0680 -0.1100
32178W        W48312  15.156  11.436   3.277  0.0363 -0.0867 -0.3121
32179W        W48313  16.090   8.367   4.502 -0.3062 -0.1824 -0.4212
32180W        W48314  18.244   0.367  15.182  0.0283  0.0196  0.0960
32181W        W48315   4.470  18.632  15.260 -0.1283 -0.1823  0.4331
32182W        W48316  16.451  13.490  11.784  0.0436  0.0675  0.0119
32183W        W48317   4.596  14.001  13.369 -0.0845 -0.0317  0.0403
32184W        W48318  15.664  16.699  13.391 -0.2026  0.0923  0.0193
32185W        W48319  17.951   6.343   3.213  0.0509 -0.1792  0.0427
32186W        W48320   0.970  13.085   0.987  0.2523 -0.0782  0.0616
32187W        W48321  18.504  16.631   4.380  0.0758 -0.2510 -0.1693
32188W        W48322   0.610   7.138   1.025  0.1809 -0.0302 -0.1376
32189W        W48323  15.874  18.345  10.908  0.0455  0.0975 -0.0215
32190W        W48324   8.238  18.427   4.059  0.1488 -0.1520 -0.0813
32191W        W48325  13.368  13.543   0.526  0.1501 -0.0979  0.1212
32192W        W48326  10.058   0.163   0.021 -0.1020 -0.0655  0.2543
32193W        W48327   2.470  15.619   1.434  0.0787  0.0288  0.1157
32194W        W48328  12.792   7.103   1.792 -0.0764  0.3980  0.0280
32195W        W48329   8.431  10.159  10.783 -0.1858 -0.0939  0.0123
32196W        W48330  13.149  18.711   4.568 -0.0294  0.2326 -0.1254
32197W        W48331   1.302  11.122  11.960  0.4962 -0.0862  0.0164
32198W        W48332  10.944   2.441   3.190 -0.0784  0.1691  0.0817
32199W        W48333   1.656  13.708   1.074  0.0232 -0.1746  0.2726
32200W        W48334  17.444  14.606  12.818 -0.1197  0.0942 -0.0496
32201W        W48335   2.561   9.354   0.960  0.0019 -0.1834 -0.1999
32202W        W48336   7.449   9.826   3.433 -0.1196  0.0172 -0.1112
32203W        W48337   2.013   2.450   4.078  0.2300  0.1484 -0.0670
32204W        W48338  16.629   3.032   1.872  0.0529  0.0902  0.1420
32205W        W48339   4.241   8.364   0.381 -0.0152 -0.0884  0.1333
32206W        W48340  14.994   7.856   5.386 -0.2135 -0.0120 -0.2676
32207W        W48341   7.914  11.763  14.613  0.0801  0.0825  0.0831
32208W        W48342   8.574  10.618  13.202  0.0649  0.4186  0.1717
32209W        W48343  13.221   5.167  12.875 -0.3542 -0.0087 -0.0613
32210W        W48344   2.808   0.874   3.463 -0.4802  0.3108 -0.0039
32211W        W48345  18.096   4.658   1.457 -0.0109  0.0646  0.1178
32212W        W48346   0.264   0.492   4.967 -0.2327  0.5483  0.3325
32213W        W48347  17.377   9.366   2.038 -0.1499 -0.2244 -0.0688
32214W        W48348  18.810   6.668  14.743  0.0777  0.0755  0.0214
32215W        W48349  17.053  15.159   0.398  0.1077  0.0770  0.0543
32216W        W48350  18.931  14.161   4.767  0.0135  0.0759  0.0281
32217W        W48351   9.571  18.117   5.735 -0.1537 -0.0143  0.0211
32218W        W48352  14.178  18.925  14.576 -0.0023  0.1174 -0.0400
32219W        W48353  12.210   1.353   1.345  0.0803 -0.0585  0.1644
32220W        W48354  13.191  11.887  10.850  0.1064  0.3313 -0.0646
32221W        W48355  12.432  12.869  12.930 -0.5246 -0.1713  0.0952
32222W        W48356  15.614   2.725   2.126 -0.1487  0.1778 -0.0376
32223W        W48357  16.956  17.596   2.385 -0.4177 -0.0008  0.4186
32224W        W48358   9.486  16.661  14.473  0.1761  0.0833  0.5695
32225W        W48359   5.009  16.890  11.788  0.0265  0.3669 -0.0234
32226W        W48360  16.643  11.243  11.997  0.0033  0.2167 -0.0591
32227W        W48361  14.161   2.476   2.165  0.1581 -0.0287 -0.2444
32228W        W48362  18.287   3.482  10.729  0.0832  0.0764  0.1908
32229W        W48363  14.560   0.594   5.100 -0.1304  0.0579  0.2458
32230W        W48364   0.150  17.787   5.582 -0.0960  0.0315  0.0038
32231W        W48365  17.432   8.121  10.976 -0.0074  0.0551 -0.0040
32232W        W48366  11.404  15.616  12.806 -0.1026 -0.1767 -0.0754
32233W        W48367  13.434  16.367  14.111 -0.3090 -0.1708  0.2857
32234W        W48368   8.502   9.060   0.864 -0.5919 -0.0216  0.0744
32235W        W48369  18.066  13.610  12.027 -0.3014 -0.0837 -0.1792
32236W        W48370  12.466   8.097   0.582  0.0273 -0.4406 -0.0635
32237W        W48371  11.030   6.987  10.494 -0.1318 -0.1734  0.0198
32238W        W48372   4.027  13.209  10.809 -0.0233  0.0327  0.1318
32239W        W48373  17.511  15.555   0.416 -0.2142  0.1635 -0.0513
32240W        W48374  13.697  10.675  10.532  0.0992 -0.1642  0.3818
32241W        W48375  14.471   0.745   0.650 -0.1925  0.0192  0.0315
32242W        W48376  11.300   8.239   3.241  0.2173  0.1099  0.2913
32243W        W48377   9.410   9.430  10.488 -0.5265  0.1308 -0.2636
32244W        W48378   8.036  12.304   1.733  0.0781 -0.2862  0.2908
32245W        W48379   9.413  14.507  13.583 -0.1505 -0.3208  0.1865
32246W        W48380   9.133   1.974   0.910 -0.0999  0.0014 -0.1865
32247W        W48381  16.172   0.404  14.186  0.2403  0.0147 -0.0404
32248W        W48382   9.061   0.465  12.290 -0.0783 -0.2145 -0.0610
32249W        W48383   4.826   0.462   0.953  0.1815 -0.1202 -0.1968
32250W        W48384   0.953  17.260   2.999  0.2575 -0.0494  0.1424
32251W        W48385  14.880   4.914   4.115 -0.0835 -0.1128  0.3207
32252W        W48386  13.060   1.073  11.440  0.0258 -0.2246 -0.0329
32253W        W48387  12.835   3.698   4.461  0.0490 -0.0332  0.0965
32254W        W48388   9.033   2.835  11.872  0.0071 -0.0955 -0.2297
32255W        W48389   9.973   5.377  11.022 -0.1449 -0.1742 -0.3743
32256W        W48390   1.261   7.620   2.884 -0.2448  0.1743  0.2901
32257W        W48391   8.070   2.451   2.872  0.1769  0.3764 -0.0255
32258W        W48392  17.064   2.492   4.434 -0.0952 -0.0621  0.0033
32259W        W48393  17.305   6.044  11.520 -0.4232  0.2197 -0.0468
32260W        W48394   4.091  14.728   2.967 -0.1372 -0.1527 -0.0816
32261W        W48395  18.158  18.982   2.076  0.1052 -0.1093  0.0702
32262W        W48396  18.451   1.634  11.120 -0.1942  0.0804 -0.1354
32263W        W48397   6.617   3.789  12.060  0.0393  0.0669  0.2127
32264W        W48398   9.491   1.267   1.398  0.1349 -0.0154 -0.2801
32265W        W48399   7.607  14.675   5.971 -0.1857  0.1791  0.0524
32266W        W48400   8.553  11.505  14.659 -0.0068  0.2077  0.4051
32267W        W48401   7.742  15.750   0.637  0.1761 -0.2073  0.0971
32268W        W48402  18.092  15.155   1.151 -0.2862 -0.2755  0.1392
32269W        W48403  11.522   0.404  11.376 -0.2818  0.0195 -0.0775
32270W        W48404   5.411  11.207   0.090  0.2137  0.2363  0.0732
32271W        W48405   8.990   5.643   1.889 -0.1229  0.2311 -0.1181
32272W        W48406  10.474   2.308   0.874 -0.0431 -0.3432 -0.0770
32273W        W48407   1.156  10.678  12.275 -0.0177 -0.1419  0.0484
32274W        W48408  11.018   2.865  12.691  0.0478 -0.2675 -0.0906
32275W        W48409  13.485   8.311   2.540 -0.2689  0.3412  0.0918
32276W        W48410  11.910  14.217   3.305  0.4294  0.0017  0.2446
32277W        W48411   4.492  13.057  11.979 -0.1965  0.1068 -0.0627
32278W        W48412  13.383  14.542  13.707 -0.1477 -0.0308  0.1700
32279W        W48413   2.745  13.883   1.780  0.1022  0.0903 -0.0223
32280W        W48414   3.189   0.236  11.899 -0.1363 -0.0100  0.1078
32281W        W48415   6.737   0.272   4.994 -0.3522 -0.0085  0.0215
32282W        W48416  16.476   9.369   3.186  0.0638  0.1045 -0.0597
32283W        W48417  16.125  12.937  15.229  0.2221 -0.0618 -0.1827
32284W        W48418   4.839   5.744  10.427 -0.0162  0.4217 -0.1401
32285W        W48419   2.991  17.220  10.449  0.0650 -0.1940 -0.1688
32286W        W48420   4.911  15.258   2.937 -0.1468 -0.0538 -0.2398
32287W        W48421   8.078  11.303  13.680  0.0583 -0.0974  0.3993
32288W        W48422   5.974   7.495   2.787 -0.0189 -0.0570  0.1076
32289W        W48423   6.494   6.900  10.445  0.0165 -0.4209 -0.0833
32290W        W48424   6.860  17.891  14.340 -0.0836 -0.0712  0.0713
32291W        W48425   4.080   1.061  14.626  0.0969 -0.2487  0.2102
32292W        W48426   3.155   1.733   3.529 -0.0527  0.0602 -0.3743
32293W        W48427  17.933  11.731   3.263  0.1201  0.0979 -0.1984
32294W        W48428   7.407  17.187  14.674  0.0910  0.0460  0.3278
32295W        W48429   5.395   0.690  14.255  0.1560 -0.2776  0.0543
32296W        W48430  11.040  13.508   1.744  0.1029  0.2324  0.1198
32297W        W48431  12.854   8.855  14.199  0.0548 -0.4121  0.2943
32298W        W48432   7.304   8.114   0.384  0.1068 -0.0708  0.0288
32299W        W48433   5.642   3.552  11.050 -0.0847  0.1099  0.0048
32300W        W48434  12.214  14.445  13.481 -0.1109  0.1139  0.1869
32301W        W48435   8.250   7.350   4.522 -0.1390 -0.2308  0.3564
32302W        W48436  15.966   1.704  14.351 -0.2560  0.0302  0.2113
32303W        W48437   6.972   0.092   0.216 -0.0362 -0.0443 -0.2926
32304W        W48438  16.317  14.072  11.900  0.3398  0.3097  0.0080
32305W        W48439  12.157  17.351   2.618 -0.1271 -0.0877 -0.3148
32306W        W48440  15.184  16.394   0.815  0.0294 -0.2157 -0.0793
32307W        W48441   4.809  18.660   2.424 -0.0816  0.0952  0.0460
32308W        W48442  12.557  12.866   4.992  0.0761 -0.1156  0.0825
32309W        W48443   1.477  12.381   2.753 -0.1879 -0.2295 -0.0615
32310W        W48444  14.419  18.164   2.817 -0.1510 -0.0953  0.1475
32311W        W48445  12.081  16.262   3.918  0.3543 -0.1824  0.2361
32312W        W48446   0.262  16.727  11.947 -0.2829  0.1804  0.4214
32313W        W48447   5.386   6.003  14.034 -0.0672  0.0865  0.1676
32314W        W48448   9.448  13.331  14.316  0.1261  0.2448 -0.1532
32315W        W48449   8.783   5.261  11.087 -0.0732  0.0768  0.0749
32316W        W48450   3.483   6.237   1.018 -0.0058 -0.0455  0.2139
32317W        W48451   1.386  14.747   4.128 -0.2343  0.3319  0.2511
32318W        W48452   9.599  16.485  10.972 -0.0493  0.0969 -0.2306
32319W        W48453   5.535  18.668   3.505  0.2349 -0.1185 -0.0387
32320W        W48454  13.821   3.670  11.649  0.1472 -0.2306 -0.0427
32321W        W48455   0.456   6.265   3.423 -0.0004  0.1499  0.0703
32322W        W48456   5.679  10.414  12.774 -0.1267 -0.2380  0.2486
32323W        W48457  13.148   6.469   2.563  0.0763 -0.0505  0.2401
32324W        W48458   3.438  16.878   2.574 -0.3126 -0.1705  0.3353
32325W        W48459  15.194  16.916   2.054 -0.1791 -0.0590 -0.0499
32326W        W48460   7.565  13.357   0.943  0.1908  0.3209 -0.1566
32327W        W48461   8.228   1.967  12.220  0.2166  0.0919 -0.1163
32328W        W48462   2.645   3.143   5.749  0.2732 -0.1243 -0.0220
32329W        W48463  16.855  16.091  13.707 -0.1775 -0.1615 -0.0335
32330W        W48464  15.751   9.733   3.021  0.0863  0.1058 -0.0004
32331W        W48465  15.030  14.199   1.580 -0.0330 -0.1137 -0.3347
32332W        W48466  10.593   8.350   1.108  0.2918 -0.1576  0.2091
32333W        W48467  15.684  15.044   2.271 -0.1471 -0.0758  0.0676
32334W        W48468  12.152   1.316   4.098 -0.1228  0.0596 -0.2933
32335W        W48469  18.738   5.059   4.591  0.0486 -0.0016  0.1750
32336W        W48470   4.480  10.391   1.498 -0.0595 -0.1497 -0.1082
32337W        W48471   2.553   2.542  14.639 -0.0731  0.1691 -0.0998
32338W        W48472  11.501   3.201  12.182  0.1519 -0.0683  0.0546
32339W        W48473  11.206   3.559  14.985  0.1440  0.2348  0.0442
32340W        W48474  10.654  13.259   1.917 -0.0003 -0.1692  0.3228
32341W        W48475   3.478   5.668  13.922 -0.1849  0.6005  0.1548
32342W        W48476  12.583   1.835   0.868  0.1007 -0.1466  0.2326
32343W        W48477  14.272   8.733  12.722  0.1457 -0.1469 -0.1073
32344W        W48478  11.019   6.206  14.315 -0.0831  0.0048  0.0638
32345W        W48479   4.515  11.309  14.642 -0.0129  0.3931  0.3078
32346W        W48480   6.757  13.323   2.712 -0.4285  0.1638  0.0547
32347W        W48481   0.302   8.293  13.320 -0.1181  0.0383  0.2506
32348W        W48482   3.273   7.352  14.965 -0.1647  0.1635  0.0949
32349W        W48483  11.822   7.172   2.611  0.0432 -0.0708  0.1949
32350W        W48484  16.351  11.909  11.440 -0.1307 -0.0211  0.0933
32351W        W48485   0.603  11.014   1.509 -0.0128 -0.0821  0.1657
32352W        W48486   7.414  13.771  12.049  0.1315 -0.3594  0.3810
32353W        W48487  12.855   3.952  13.237 -0.0524  0.1553 -0.1635
32354W        W48488  15.535  17.070   4.847  0.1469 -0.3384  0.1925
32355W        W48489   9.091   6.511  13.940 -0.3534 -0.2074 -0.1869
32356W        W48490   8.269   3.336   0.920 -0.2833 -0.0805  0.2033
32357W        W48491  13.958   8.895   5.732 -0.0083  0.0560  0.3753
32358W        W48492  13.059   6.867   3.965 -0.0890 -0.2441 -0.0537
32359W        W48493  15.588  13.128  13.137 -0.2665 -0.1731  0.2401
32360W        W48494  13.357   4.941   4.550 -0.1540 -0.1271 -0.0379
32361W        W48495   7.299  13.302   4.032 -0.1665  0.1013 -0.1572
32362W        W48496  14.581   3.658   0.409 -0.2571 -0.0251  0.1482
32363W        W48497  12.969   5.055   0.088 -0.0286  0.5955 -0.0531
32364W        W48498  18.633  16.489   0.943 -0.1276  0.1683  0.0297
32365W        W48499  15.040   2.704   2.363 -0.4181 -0.2052 -0.4339
32366W        W48500   6.219   2.193  11.829  0.4173 -0.0184  0.1602
32367W        W48501   4.878   1.505  15.035  0.1030 -0.0802 -0.0974
32368W        W48502   7.168   1.122   4.656  0.0607  0.1065 -0.1154
32369W        W48503   2.214  17.650   4.798 -0.1037  0.1804  0.0641
32370W        W48504   3.443   5.564   2.985  0.0448  0.0650  0.1593
32371W        W48505   4.265  12.791  14.921 -0.2752 -0.1075  0.0584
32372W        W48506  16.005  13.248   1.133  0.1585  0.3270  0.0651
32373W        W48507  17.500  13.512  15.217 -0.1263 -0.4421  0.0995
32374W        W48508   1.253   7.808  15.010  0.1738 -0.1850 -0.1552
32375W        W48509   3.972   4.453   4.101  0.2000  0.0907  0.0004
32376W        W48510   6.367   4.383  13.609  0.0333 -0.0740 -0.2077
32377W        W48511   1.034  18.091   5.241  0.0299  0.0463  0.1071
32378W        W48512  13.971  17.282   1.236 -0.1862 -0.0508  0.2634
32379W        W48513  12.899   5.395  11.912 -0.0649 -0.0401  0.4812
32380W        W48514  18.731   9.132   3.899  0.0205 -0.0412 -0.3076
32381W        W48515  12.320  13.248  10.765  0.1023  0.4829 -0.3476
32382W        W48516   7.389  17.673  14.454  0.1809  0.0935  0.1130
32383W        W48517   7.760  16.774  10.686 -0.1286  0.1290 -0.0789
32384W        W48518   0.398  12.683   1.262 -0.1471 -0.2271  0.1803
32385W        W48519   3.991   9.628  11.668 -0.2862 -0.0607  0.0828
32386W        W48520  10.823   6.335  13.098 -0.1516 -0.0720  0.1293
32387W        W48521   4.226   9.148   1.511 -0.2187 -0.0687 -0.1394
32388W        W48522   5.656   0.227   0.346  0.4680  0.3042  0.0271
32389W        W48523  13.876  10.934   0.681 -0.1904  0.1276 -0.0453
32390W        W48524  16.028   9.676  12.927  0.0246 -0.2048  0.0105
32391W        W48525   8.408   0.844  13.279 -0.3199  0.1745  0.0713
32392W        W48526   6.353  14.042  13.871 -0.0633  0.3071 -0.0564
32393W        W48527   4.248   9.674   0.168 -0.0392 -0.0544  0.1760
32394W        W48528  15.721   5.866  10.988 -0.3359  0.0066 -0.1890
32395W        W48529  18.946  12.218  13.865 -0.2462 -0.0831  0.0499
32396W        W48530  17.663   3.081  11.894  0.1259  0.0423  0.0616
32397W        W48531   7.000  14.919  10.129 -0.1216  0.0997  0.0476
32398W        W48532  10.129   6.872   5.043  0.1059  0.1821 -0.3175
32399W        W48533   4.624  13.546  12.718 -0.1215 -0.3355 -0.0653
32400W        W48534   9.364  11.801   4.256 -0.1570  0.0249  0.1333
32401W        W48535   5.038   7.342  11.983 -0.0968  0.2337  0.1580
32402W        W48536  17.115  14.506   2.893 -0.0140  0.3722 -0.0904
32403W        W48537  10.058  13.678  14.720 -0.1052 -0.1947  0.0979
32404W        W48538   7.870   0.867  10.387 -0.0498 -0.1099  0.0637
32405W        W48539   4.914   3.066  10.819 -0.3301  0.1328 -0.1264
32406W        W48540  10.748   6.916  11.298  0.0613  0.4018  0.0005
32407W        W48541  12.899   5.976   2.450  0.3466 -0.1019 -0.2786
32408W        W48542  12.810   4.390   2.251 -0.1181 -0.0629  0.4285
32409W        W48543   4.764   6.028   0.383 -0.5715 -0.0825 -0.1509
32410W        W48544  15.890   4.556  12.410 -0.0054  0.2783  0.2289
32411W        W48545  14.284  11.830   5.242  0.1432  0.2068  0.2373
32412W        W48546   8.915   3.505   4.441  0.1243 -0.2054 -0.0152
32413W        W48547  10.890  15.811   3.274 -0.2452  0.0042  0.2208
32414W        W48548   5.650  15.026   0.947 -0.0316  0.0077  0.1412
32415W        W48549  16.162  10.880   0.419  0.1354  0.0568 -0.0481
32416W        W48550   4.810   1.618   3.950  0.1738  0.1444  0.0792
32417W        W48551   0.153  17.501   2.647  0.1737 -0.0227 -0.0210
32418W        W48552   7.165  14.714   5.727  0.1843 -0.1112 -0.3881
32419W        W48553   2.488  15.504  14.242  0.1260  0.0709 -0.1056
32420W        W48554  11.601   1.836  12.577 -0.1365 -0.1031  0.1080
32421W        W48555   6.187  15.478  12.325 -0.0125 -0.0322  0.0008
32422W        W48556   3.131  15.293  15.252  0.1803 -0.0776 -0.3757
32423W        W48557  14.730   6.827   0.903 -0.3333 -0.0168 -0.2097
32424W        W48558   6.588  16.563  14.971 -0.2928 -0.0450  0.2742
32425W        W48559  15.057   0.836   9.486 -0.1146  0.2468  0.0292
32426W        W48560  14.701   1.595  13.222  0.2717  0.3641 -0.0697
32427W        W48561   1.786   3.327   0.819  0.0343 -0.1200 -0.1155
32428W        W48562   2.066   7.307   0.877  0.0284  0.1973  0.1060
32429W        W48563   8.795  14.153  10.650 -0.5421 -0.3240 -0.0821
32430W        W48564   9.550   8.614   0.696  0.0435  0.1383  0.1598
32431W        W48565   3.078   6.981  12.460 -0.5732 -0.2112 -0.1016
32432W        W48566   0.517  14.334  13.675 -0.2833 -0.0785 -0.0484
32433W        W48567   8.381   6.065   2.823 -0.0591 -0.1719 -0.0096
32434W        W48568  10.948   9.036   0.406  0.2429  0.0904  0.1324
32435W        W48569   8.537   1.288  11.074 -0.1408 -0.0862  0.0482
32436W        W48570  15.458   9.416   3.732 -0.1014 -0.0559 -0.4725
32437W        W48571   7.920   2.476   2.389 -0.1485  0.1518 -0.0277
32438W        W48572   9.270   1.813   0.497 -0.1248  0.0529 -0.0016
32439W        W48573   1.006   0.076  11.193  0.0471  0.2017  0.2516
32440W        W48574   0.238  13.851   1.896 -0.0914 -0.0327 -0.1700
32441W        W48575   1.820   4.940   1.272 -0.0915 -0.0244  0.0209
32442W        W48576   2.214   6.635   1.667  0.1485  0.0173  0.2342
32443W        W48577  14.784   0.473   0.350 -0.2817  0.3102  0.3828
32444W        W48578  16.028   5.689   2.457 -0.1621 -0.2531  0.1154
32445W        W48579   2.533  14.102   4.984  0.0771  0.2346  0.1121
32446W        W48580   1.401   6.124  13.151 -0.1414 -0.0239 -0.2116
32447W        W48581   6.758   4.583  13.829 -0.1599 -0.3408 -0.0791
32448W        W48582   3.721  10.633  13.021 -0.1634 -0.0211  0.0712
32449W        W48583  18.221   9.817   2.649  0.1970  0.2140 -0.0599
32450W        W48584   9.066  12.717   3.598  0.1356  0.4642  0.0334
32451W        W48585  16.264   4.434   0.788  0.0984  0.0664 -0.0752
32452W        W48586   8.888  11.051  13.915  0.1915 -0.3874  0.0223
32453W        W48587  11.974   0.894   4.336 -0.1074  0.0446  0.2225
32454W        W48588  11.760  18.098  15.086 -0.1140 -0.2372 -0.3817
32455W        W48589   9.042  17.237  12.913 -0.0171  0.1696  0.3669
32456W        W48590  13.236   4.987   1.600  0.3087  0.0365  0.0063
32457W        W48591  12.277  17.666  11.093 -0.0411  0.0715 -0.1782
32458W        W48592   4.414   4.643   3.972  0.1703 -0.2018  0.5264
32459W        W48593   7.939   3.863  13.947 -0.3278 -0.0310 -0.0457
32460W        W48594   9.816  13.153   4.356 -0.2928  0.0081 -0.1859
32461W        W48595  10.647   2.640  10.716 -0.0715 -0.0906  0.2376
32462W        W48596  10.021  14.989  14.277  0.3750  0.0116  0.0060
32463W        W48597   3.948   6.653  10.888 -0.0821  0.3405  0.0995
32464W        W48598   4.307   3.336   2.290  0.1545  0.1419  0.0532
32465W        W48599  18.619  11.579   5.733 -0.0993 -0.1803  0.1082
32466W        W48600   7.583  18.944   3.730  0.0183  0.0657  0.1344
32467W        W48601   5.210  13.805  10.684 -0.0813 -0.0295  0.1505
32468W        W48602   3.901   4.628   2.000 -0.0436  0.0460 -0.1064
32469W        W48603  14.736   0.510   2.929  0.0265 -0.0306  0.0145
32470W        W48604  16.824   6.495  14.568  0.2001 -0.1658 -0.1847
32471ION     NA48605  11.771  17.683  14.643  0.4232  0.0137 -0.1692
32472ION     NA48606   3.465  10.831  13.686  0.0966  0.1990  0.1360
32473ION     NA48607   6.455  16.289   3.016  0.1631  0.3593  0.1268
32474ION     NA48608   9.096   8.615  11.699  0.0783  0.0675 -0.0051
32475ION     NA48609  15.739  13.390   9.628 -0.0725 -0.1639  0.3140
32476ION     NA48610  13.194  18.439  10.136  0.1892  0.2973 -0.1742
32477ION     NA48611   7.126   1.540   2.877  0.2359  0.2429 -0.2593
32478ION     NA48612  16.484  17.105   2.434 -0.0261 -0.0613 -0.0204
32479ION     NA48613  13.021   3.310   5.461  0.1732  0.0422 -0.2300
32480ION     NA48614   0.515  13.761  10.502 -0.3794 -0.2721  0.0553
32481ION     NA48615  13.789  15.291  15.170  0.3419  0.1364  0.1267
32482ION     NA48616   4.468   8.791   5.430 -0.0143 -0.1388 -0.0130
32483ION     NA48617   3.642   7.633   9.616 -0.0738  0.2524 -0.2117
32484ION     NA48618   0.236   6.944   0.637  0.0738 -0.2039 -0.1463
32485ION     NA48619   0.874  17.815   0.578  0.0546  0.1125 -0.1789
32486ION     NA48620  11.526  13.602  13.926  0.1343  0.0040  0.0848
32487ION     NA48621   6.345  14.782   1.419 -0.0152 -0.2981  0.0770
32488ION     NA48622  10.330  16.917   9.866  0.0010  0.3618 -0.2672
32489ION     NA48623   9.618   9.876  14.476 -0.0069 -0.2735  0.0226
32490ION     NA48624  16.670   1.059   1.895 -0.0135 -0.1247  0.1271
32491ION     NA48625   9.777  17.968   9.924 -0.0372 -0.0591  0.1314
32492ION     NA48626  17.962  13.658   5.548 -0.0892  0.0219 -0.0999
32493ION     NA48627  12.523   1.707   9.716  0.0831 -0.1598  0.3632
32494ION     NA48628   0.277   4.825   1.867 -0.1096  0.0582  0.1436
32495ION     NA48629   1.023  18.414   9.977  0.1528 -0.1602  0.1797
32496ION     NA48630   0.461   4.564  15.045  0.3013  0.2684  0.0852
32497ION     NA48631   1.127   3.296   2.428 -0.3001  0.0088 -0.0947
32498ION     NA48632   2.803   7.947   5.379  0.0051  0.0735 -0.1362
32499ION     NA48633   1.275   4.602   0.552 -0.0860  0.1831  0.0589
32500ION     NA48634  18.290  12.674   3.262  0.1766  0.2044  0.0592
32501ION     NA48635   4.332   2.210  14.094 -0.0921 -0.4133 -0.1509
32502ION     NA48636   1.300   7.803   1.023 -0.1578 -0.1013  0.1908
32503ION     NA48637  11.242  12.495  14.713  0.0782 -0.1117  0.2366
32504ION     NA48638  13.064  15.666  12.521  0.2445 -0.0409 -0.1732
32505ION     NA48639  11.542   5.367   9.881 -0.1845 -0.1872  0.0125
32506ION     NA48640   7.968   4.439   9.774  0.3426  0.1917 -0.0995
32507ION     NA48641  17.290  17.824  10.793  0.2208 -0.1070  0.1537
32508ION     NA48642   9.088  15.427  10.523 -0.1174 -0.1267  0.0369
32509ION     NA48643   0.433  10.841  10.439  0.0208 -0.1390 -0.1214
32510ION     NA48644  14.236   2.610  12.389 -0.3063  0.0787 -0.2320
32511ION     NA48645   6.952  16.433  12.553 -0.2069 -0.0844 -0.1345
32512ION     NA48646  16.461   1.988   9.805 -0.1350  0.4374  0.0909
32513ION     NA48647  17.451   6.152  10.200  0.1321 -0.3255 -0.1748
32514ION     NA48648  17.610   2.291   5.698  0.1418  0.0178 -0.0367
32515ION     NA48649   1.112   3.260   1.490 -0.0979  0.2259  0.1603
32516ION     NA48650   3.283  16.508  14.896  0.0037  0.0421  0.1025
32517ION     NA48651   7.718  17.693   9.730 -0.3077  0.0703  0.2191
32518ION     NA48652   0.342  17.296  13.566  0.3743  0.1005  0.1374
32519ION     NA48653   6.207  13.636  14.281 -0.0748  0.0411 -0.3554
32520ION     NA48654  17.130   4.335   2.880 -0.0629  0.0536 -0.0086
32521ION     NA48655  11.602   0.377  12.442  0.0075 -0.4061  0.3084
32522ION     NA48656  16.235  18.825   0.821 -0.0070 -0.1971  0.1233
32523ION     NA48657   5.711   7.006   0.882 -0.1071  0.2674 -0.0581
32524ION     NA48658  12.328   9.056   3.967 -0.1074  0.3039  0.1645
32525ION     NA48659  15.664  13.815   0.246 -0.1376 -0.0993  0.1191
32526ION     NA48660   9.039  12.853   5.117 -0.0864  0.1875  0.0780
32527ION     NA48661  12.306  12.343   4.949 -0.0523 -0.3125  0.1725
32528ION     NA48662   4.392  18.899   9.960  0.2999 -0.1896 -0.2510
32529ION     NA48663  17.669   1.792   0.154 -0.1750 -0.0902 -0.0066
32530ION     NA48664  17.138   6.487  11.927 -0.0635 -0.2011  0.1020
32531ION     NA48665   4.478  18.857   1.506  0.1887  0.1637  0.1013
32532ION     NA48666  18.535   0.951  10.065 -0.1834 -0.1611  0.0137
32533ION     NA48667  13.230   5.162   2.632  0.3155  0.0716  0.2043
32534ION     NA48668   5.129  13.686  10.231  0.3395  0.0172 -0.0690
32535ION     NA48669   9.110   8.987   9.821  0.1085  0.0287  0.1436
32536ION     NA48670  15.390   8.037  11.617 -0.2213  0.1736 -0.0566
32537ION     NA48671   9.738   1.846  13.641 -0.0056 -0.0947 -0.0692
32538ION     NA48672   4.466   4.906   9.379 -0.4214 -0.0427 -0.0339
32539ION     NA48673   2.910   6.486   2.761  0.0902 -0.0012 -0.3640
32540ION     NA48674  17.650   3.901   3.802 -0.0342 -0.0159 -0.0142
32541ION     NA48675  11.907  16.433  13.956 -0.1698  0.0038  0.0470
32542ION     NA48676  16.033   8.107   5.281  0.0749 -0.1376  0.3175
32543ION     NA48677  18.124  17.091   6.298 -0.2068 -0.0115 -0.3598
32544ION     NA48678  11.502   6.233   9.233  0.1621  0.0784 -0.0261
32545ION     NA48679  11.150   7.267  13.564 -0.1451 -0.2321  0.2680
32546ION     NA48680   8.861   0.194   9.894 -0.0464  0.0998 -0.1629
32547ION     NA48681   8.613   7.478   4.898 -0.0534 -0.1202  0.0914
32548ION     NA48682  12.862   8.835   5.462  0.1311 -0.0120  0.0253
32549ION     NA48683  16.078   9.102   2.410 -0.1061 -0.0957  0.0849
32550ION     NA48684   9.354   7.985   5.247  0.3345 -0.1902 -0.0297
32551ION     NA48685   3.153   5.227   5.295  0.0620 -0.2095  0.0592
32552ION     NA48686   3.645  17.690   5.278 -0.2380 -0.0442  0.2468
32553ION     NA48687   7.997   0.109   5.543 -0.0974  0.1053 -0.1859
32554ION     NA48688   0.758  14.228  14.624 -0.3069 -0.0833 -0.1674
32555ION     NA48689   2.204   6.158   5.318  0.0347  0.1509  0.0438
32556ION     NA48690  13.618  12.259  13.139 -0.2226  0.1989 -0.0564
32557ION     NA48691  11.234  17.230   2.954 -0.3577 -0.0074  0.0674
32558ION     NA48692  12.905  12.455   3.842 -0.1348  0.0668 -0.1198
32559ION     NA48693  10.833   8.027  12.022 -0.0814  0.1672  0.1018
32560ION     NA48694   7.100   9.009  12.929 -0.0187  0.0737  0.0119
32561ION     NA48695   6.419  10.461  15.156  0.0759 -0.0749 -0.3123
32562ION     NA48696  17.737  10.427  13.897  0.0651  0.1562  0.2709
32563ION     NA48697   1.651   1.734   9.740 -0.0305 -0.0591 -0.4494
32564ION     NA48698  11.186  12.850  13.100  0.0598  0.0062  0.1004
32565ION     NA48699  12.369   9.066   3.148  0.3986  0.0944 -0.0975
32566ION     NA48700   5.406   3.642   4.973 -0.3294  0.3439  0.1564
32567ION     NA48701  13.207   1.041   0.856 -0.0456  0.2208 -0.0964
32568ION     NA48702   7.402  10.943  11.350 -0.0912  0.1919 -0.0232
32569ION     NA48703   9.085   5.723   5.244  0.0802 -0.3212 -0.3056
32570ION     NA48704  12.299   8.535  10.106 -0.2245 -0.0915 -0.1517
32571ION     NA48705   7.257  13.252   5.795  0.0902  0.0654  0.1382
32572ION     NA48706  12.173   4.997  14.276 -0.0181 -0.1653  0.2236
32573ION     NA48707   2.611   3.622   2.189 -0.1203 -0.0706  0.1284
32574ION     NA48708   4.925   6.929   9.462 -0.2994  0.2068  0.0133
32575ION     NA48709  12.631  16.243   0.199  0.4309  0.0006  0.0355
32576ION     NA48710  18.028  12.944  11.235 -0.0985  0.1521  0.2573
32577ION     NA48711  16.692   9.711   9.957  0.1648  0.1060 -0.3723
32578ION     NA48712  17.413   5.480   2.930  0.0304 -0.2068 -0.3064
32579ION     NA48713  16.441   8.963  15.163 -0.0394  0.0458 -0.0286
32580ION     NA48714   7.939   1.601   1.902 -0.0819  0.4286 -0.1672
32581ION     NA48715  16.120   5.540   5.133 -0.2244 -0.1231 -0.2283
32582ION     NA48716  18.261  15.908   3.970  0.0272  0.1907  0.0190
32583ION     NA48717  15.973  18.502   2.646  0.1963 -0.5348  0.0069
32584ION     NA48718   6.674   5.764   4.672 -0.0491  0.1321 -0.1166
32585ION     NA48719  16.170  10.400   9.723 -0.0078 -0.3314  0.0441
32586ION     NA48720  16.910  12.919  13.809  0.0154  0.0268  0.0024
32587ION     NA48721   1.622   7.477   2.042  0.3293 -0.2970  0.0629
32588ION     NA48722  11.333   8.404   2.151  0.1101 -0.0436 -0.0120
32589ION     NA48723   9.703  10.736   3.567  0.3605 -0.0373 -0.2239
32590ION     NA48724  17.290   9.531   5.351  0.0016 -0.0672 -0.0104
32591ION     NA48725  16.095   1.259  14.576 -0.0402 -0.0167  0.1055
32592ION     NA48726  15.110   2.296   9.846 -0.2972 -0.0472  0.1567
32593ION     NA48727  15.800  15.314   1.337 -0.0492 -0.2118 -0.0623
32594ION     NA48728   9.730  18.456   4.514  0.1803 -0.1034  0.0765
32595ION     NA48729   5.264   1.989   1.545  0.0775 -0.1341  0.1928
32596ION     NA48730   9.410  11.838   2.911 -0.0543 -0.0175  0.0487
32597ION     NA48731   6.830   0.629   9.805 -0.0884  0.4907  0.0088
32598ION     NA48732   6.915  10.860   5.219  0.0255  0.2180  0.0711
32599ION     NA48733   3.930   1.567   9.996  0.0727  0.3852  0.2487
32600ION     NA48734   1.548  14.960  10.239 -0.2516 -0.0351  0.2345
32601ION     NA48735   6.023  13.513   2.159  0.0563 -0.1734  0.3007
32602ION     NA48736  18.540  13.677  10.112 -0.0828  0.0175  0.3677
32603ION     NA48737   4.452  13.184   5.751  0.0153 -0.0943 -0.2681
32604ION     NA48738   2.145  13.248   0.349 -0.1104  0.2121  0.1165
32605ION     NA48739  10.094   3.169   5.246 -0.1402 -0.0883  0.1183
32606ION     NA48740   7.473  18.979   9.958 -0.2924  0.0173  0.0173
32607ION     NA48741   1.446   3.004   5.387 -0.0086  0.1123 -0.2475
32608ION     NA48742   7.581   2.514  12.841  0.0302 -0.0238  0.3454
32609ION     NA48743   3.289  15.351   0.854  0.2370  0.0264  0.0613
32610ION     NA48744  12.560   1.271   2.128 -0.1925  0.2922  0.0774
32611ION     NA48745  18.378  16.883   1.705 -0.0723  0.0008  0.1404
32612ION     NA48746  14.315   0.938   5.370 -0.0942  0.0961  0.1715
32613ION     NA48747  17.262  16.400  13.774  0.0598 -0.1631 -0.0243
32614ION     NA48748  18.654   2.928  10.124 -0.0952 -0.3346 -0.5107
32615ION     NA48749   7.845   1.513  12.024  0.0509 -0.2469 -0.4198
32616ION     NA48750  18.809   7.282   5.935 -0.0950  0.1618 -0.3126
32617ION     NA48751  13.275   6.409  12.813 -0.0845  0.1209 -0.2163
32618ION     NA48752   2.757   2.962   4.106 -0.0389 -0.1908  0.2855
32619ION     NA48753   7.514   6.337   4.889 -0.0780 -0.0247  0.4164
32620ION     NA48754  14.858  13.360   5.082 -0.0881  0.0418 -0.4942
32621ION     NA48755   8.258  18.588   9.671 -0.0444  0.0256  0.3183
32622ION     NA48756   1.428  12.389   3.370  0.0193 -0.0558  0.0353
32623ION     NA48757  16.120  13.406   3.373  0.0705  0.1203 -0.1777
32624ION     NA48758   4.281   3.106  12.028 -0.1156 -0.1664 -0.1312
32625ION     NA48759   7.361   3.956  12.620  0.1433 -0.1206 -0.0524
32626ION     NA48760  16.990  10.619  10.059  0.0804 -0.0054 -0.0660
32627ION     NA48761   7.070   4.057   9.674 -0.2070 -0.2212  0.1891
32628ION     NA48762  11.855  12.006  14.406 -0.2414  0.4616  0.1422
32629ION     NA48763  10.625  14.694   3.093  0.4121 -0.0153 -0.0442
32630ION     NA48764  10.347  16.186   9.950 -0.1143 -0.5291  0.0266
32631ION     NA48765   0.682  18.959  10.072  0.0709  0.2392  0.2554
32632ION     NA48766   9.218   5.476  11.370 -0.2455  0.1679 -0.0947
32633ION     NA48767  16.984   6.986  14.824  0.1581  0.0611 -0.0209
32634ION     NA48768   8.670   1.170   9.726 -0.1504 -0.1733 -0.4231
32635ION     NA48769  17.805   7.449   4.954 -0.2277  0.1251  0.2515
32636ION     NA48770   0.395   7.305   9.924 -0.3597  0.2037 -0.3122
32637ION     NA48771  12.815   0.258   4.626 -0.1181 -0.1399 -0.0585
32638ION     NA48772  14.193   2.281  11.216  0.0195  0.1735  0.1588
32639ION     NA48773  17.489   8.681   5.744  0.2456 -0.2756  0.2947
32640ION     NA48774  18.552  15.252   5.674  0.0871  0.1794  0.2767
32641ION     NA48775  10.716   0.767   5.544  0.3713  0.0187  0.1473
32642ION     NA48776  17.163   1.477   9.805 -0.1070 -0.0248 -0.0821
32643ION     NA48777  11.142  10.050   9.869  0.0731 -0.1573  0.1644
32644ION     NA48778   0.247  15.999  14.516  0.1040 -0.2148 -0.2281
32645ION     NA48779   1.098   3.298   5.668  0.0009  0.1137  0.0548
32646ION     NA48780  16.027  15.971   2.671 -0.3221  0.1600 -0.0289
32647ION     NA48781  10.618  17.692   9.956 -0.1672  0.2311 -0.1629
32648ION     NA48782  10.200  14.324   0.963  0.5028  0.0851  0.0167
32649ION     NA48783   3.513   4.869  14.145  0.0489 -0.1252  0.2716
32650ION     NA48784   1.990   5.100  11.418 -0.1530 -0.1022  0.0929
32651ION     NA48785  15.050   0.094   2.737  0.0103  0.0946 -0.3902
32652ION     NA48786  14.626  12.566   9.798  0.1013 -0.1382 -0.0128
32653ION     NA48787   7.969  18.509  12.344 -0.3589  0.2011  0.1458
32654ION     NA48788   2.875   7.416   9.636  0.1243  0.1021 -0.2703
32655ION     NA48789  14.522  15.982   9.980  0.2010 -0.0998  0.3432
32656ION     NA48790  15.305  11.186   5.528  0.4520  0.2832  0.2011
32657ION     NA48791  17.160   4.044   5.119  0.0114  0.0470  0.1238
32658ION     NA48792  16.313  13.764   1.944 -0.2787 -0.1118 -0.2214
32659ION     NA48793  18.991   7.923   1.101  0.2160 -0.2755  0.0998
32660ION     NA48794   5.551   6.303   9.372 -0.2123 -0.1864  0.0277
32661ION     NA48795  18.300   9.669   0.903 -0.1754 -0.0844  0.1443
32662ION     NA48796   9.896   4.119  11.754 -0.3175 -0.0697  0.1907
32663ION     NA48797  11.082   1.248   9.583  0.1728 -0.1683  0.1696
32664ION     NA48798  15.664   6.223  10.302  0.1487 -0.2349  0.0194
32665ION     NA48799  12.668  11.537  10.536 -0.0840  0.0393 -0.0544
32666ION     NA48800   1.083  18.825   5.421  0.1844  0.0352  0.1880
32667ION     NA48801  11.366   0.322   1.768  0.1523 -0.2390  0.1191
32668ION     NA48802   7.784  17.774   5.445  0.0383  0.1684 -0.1188
32669ION     NA48803   8.418   2.234   3.871 -0.2447 -0.1104  0.0360
32670ION     NA48804   0.288  19.007   4.420 -0.1059 -0.0053 -0.0552
32671ION     NA48805  14.094   0.192   4.563  0.3918  0.1087 -0.0304
32672ION     NA48806  12.854   4.058   0.516  0.0742 -0.0558  0.3676
32673ION     NA48807  13.438  14.044   9.559 -0.3512 -0.3123 -0.0357
32674ION     NA48808   3.955  16.167  13.460  0.3955  0.0950  0.2498
32675ION     NA48809  14.963  18.981  10.004  0.3553  0.2542 -0.3773
32676ION     NA48810   0.733   8.476   2.899 -0.3511  0.1009  0.2685
32677ION     NA48811   1.425  13.371   4.584 -0.3986 -0.3346 -0.1305
32678ION     NA48812  14.491  18.960  14.968  0.0605 -0.5400  0.1847
32679ION     NA48813   5.829  14.314  10.661  0.0045  0.2482  0.0153
32680ION     NA48814  12.082  12.606   0.546  0.2050 -0.0375  0.0500
32681ION     NA48815  11.041   7.964  14.915 -0.0873  0.0662  0.1381
32682ION     NA48816   2.361   4.033   2.869 -0.1430 -0.4008 -0.1008
32683ION     NA48817   5.549   2.495   9.820 -0.0280 -0.0609 -0.1478
32684ION     NA48818   6.956   6.478   9.528  0.1585  0.1599 -0.0672
32685ION     NA48819  11.221   4.319   9.482 -0.0260 -0.0806  0.0942
32686ION     NA48820  11.198  18.435  12.062  0.1685  0.3403 -0.2298
32687ION     NA48821   8.835   2.374   4.792 -0.0258  0.1308 -0.1033
32688ION     NA48822   8.154   7.177   0.868  0.3229  0.2190  0.0549
32689ION     NA48823  10.642  16.337   1.544  0.4070  0.2557  0.1532
32690ION     NA48824   2.850   5.593  11.309  0.0425 -0.0824  0.2470
32691ION     NA48825   4.766   5.382   5.249  0.4163  0.0130  0.0574
32692ION     NA48826   4.553   2.935   9.625 -0.1199  0.1811 -0.2141
32693ION     NA48827  17.725   8.161  10.311 -0.2839 -0.1120 -0.0374
32694ION     NA48828   1.590  14.161   1.652 -0.1974  0.1892 -0.0457
32695ION     NA48829  15.236  14.275   0.885  0.1860  0.0391  0.0225
32696ION     NA48830   2.752  11.805  10.305  0.1557 -0.0806  0.1495
32697ION     NA48831  18.250  16.669  12.493  0.0176  0.0043  0.2293
32698ION     NA48832   7.812  11.175   2.472 -0.0124 -0.1702 -0.3656
32699ION     NA48833  18.465   4.186  14.982 -0.1119 -0.0964  0.4415
32700ION     NA48834  15.304   8.287   5.310 -0.1758  0.0590 -0.1411
32701ION     NA48835  11.371   7.145   0.789 -0.0760  0.3895  0.1491
32702ION     NA48836  12.307   0.227   1.537  0.1188  0.1070 -0.1936
32703ION     NA48837  18.639   8.509   1.736  0.1343  0.1545 -0.1467
32704ION     NA48838   3.944   0.443   1.881  0.0185 -0.0604  0.1004
32705ION     NA48839   6.625   0.880  14.139  0.1860  0.2662 -0.0583
32706ION     NA48840   3.098  12.937  10.376 -0.2356 -0.0249  0.0715
32707ION     NA48841   8.105  10.547   3.881 -0.2585  0.1781 -0.2290
32708ION     NA48842  14.683   3.354   4.482 -0.2994  0.1041 -0.0266
32709ION     NA48843   3.126  14.792   5.679 -0.1688 -0.0679  0.0630
32710ION     NA48844   3.475  10.879  11.148 -0.4432  0.2912  0.1743
32711ION     NA48845  13.765  13.925   4.423  0.3013  0.2519  0.0493
32712ION     NA48846  16.667   2.449   4.062 -0.2767 -0.2301 -0.6511
32713ION     NA48847   3.124  11.831  14.002  0.2454  0.3091 -0.2869
32714ION     NA48848  11.095   4.343   1.217  0.1228  0.0521  0.0263
32715ION     NA48849   0.253   2.316  13.850  0.0375  0.1810  0.1293
32716ION     NA48850  18.247  19.007  13.251 -0.0600  0.0341 -0.0018
32717ION     NA48851  15.759   3.357  14.018  0.0569  0.0527  0.2835
32718ION     NA48852   8.974  13.945   5.035  0.0222  0.0043  0.2900
32719ION     NA48853   2.031  16.633   1.947  0.1418 -0.1562  0.0080
32720ION     NA48854  16.522   9.146   0.602 -0.0053 -0.0324 -0.0649
32721ION     NA48855   9.271   3.732   5.521  0.2223  0.3255  0.2444
32722ION     NA48856  17.161  16.013   5.852 -0.2138  0.1901  0.1701
32723ION     NA48857   2.720   5.077  15.085  0.0112 -0.5190 -0.2344
32724ION     NA48858   1.855  18.958   9.810  0.2250 -0.1891  0.3928
32725ION     NA48859   7.396   9.136   3.643 -0.4161 -0.0468 -0.2204
32726ION     NA48860   0.883  12.958   5.933  0.1995 -0.3823 -0.1733
32727ION     NA48861   3.397   5.924   9.282 -0.0149 -0.0963  0.0503
32728ION     NA48862   6.478   0.317   0.249  0.0929  0.0993  0.0285
32729ION     NA48863   4.654   8.557   3.096 -0.0016 -0.2286  0.1257
32730ION     NA48864  11.235  12.480   3.957 -0.1862 -0.1686 -0.0943
32731ION     NA48865  12.835   1.536  12.582 -0.1921  0.2026 -0.1294
32732ION     NA48866  16.760   7.665   3.004  0.0897  0.2433  0.0356
32733ION     NA48867   9.688   0.797  10.039  0.1300 -0.1242  0.1201
32734ION     NA48868  16.095   1.942  15.158  0.0667 -0.4118 -0.0585
32735ION     NA48869  17.039   4.856   5.991 -0.4212  0.1175  0.4201
32736ION     NA48870  12.104  17.218   9.743  0.0678 -0.1759  0.0365
32737ION     NA48871   0.190   1.558   5.757  0.0066  0.0521  0.2229
32738ION     NA48872   6.849  16.699  11.855 -0.1208 -0.1859 -0.0830
32739ION     NA48873  11.151   4.602   5.438 -0.1899 -0.0145 -0.0896
32740ION     NA48874   2.769   4.613   9.662 -0.1338 -0.2621  0.1075
32741ION     NA48875  14.922  17.376   3.442 -0.1359  0.0232  0.1351
32742ION     NA48876   7.421   7.213   3.726  0.0055 -0.3218  0.1689
32743ION     NA48877   6.861  14.339   9.765  0.0133 -0.1805  0.4716
32744ION     NA48878   9.126  16.484   1.188 -0.1360 -0.3318 -0.0811
32745ION     NA48879   1.143  16.358   0.796 -0.0206 -0.0835  0.0590
32746ION     NA48880   5.228  10.194   9.957  0.2300 -0.2524 -0.0597
32747ION     NA48881   4.618  12.272  12.716  0.0710  0.1476 -0.1316
32748ION     NA48882  14.647   3.498   1.367 -0.1480 -0.0734  0.2125
32749ION     NA48883  10.911   1.018   0.782  0.2318  0.2926 -0.0310
32750ION     NA48884   8.657  12.583   1.143 -0.0674 -0.0574 -0.1273
32751ION     NA48885   2.609   0.375   1.342 -0.0762 -0.3024  0.1136
32752ION     NA48886   2.581   3.143   0.880  0.0078  0.4107  0.1295
32753ION     NA48887  18.761   1.862  10.269 -0.0468 -0.0291  0.1398
32754ION     NA48888  16.473  11.768   3.786 -0.1664  0.0072  0.0879
32755ION     NA48889  13.306  16.548  11.863  0.0181  0.1894 -0.3629
32756ION     NA48890  18.573   3.278   3.910  0.3242 -0.3541 -0.0497
32757ION     NA48891   7.561   8.294   9.467 -0.3154 -0.1087  0.1072
32758ION     NA48892   7.116   8.069   3.794  0.1322 -0.1680 -0.0686
32759ION     NA48893   9.769  15.055   9.905  0.1984 -0.0117 -0.2590
32760ION     NA48894   6.353   0.213   0.866  0.0850  0.2536 -0.3606
32761ION     NA48895   4.930  16.236   4.470 -0.1008 -0.0207  0.1940
32762ION     NA48896  13.245   4.802   9.472  0.2414  0.4781  0.1170
32763ION     NA48897  12.939  18.906   5.401  0.1554  0.1158 -0.3796
32764ION     NA48898   6.668  14.155   2.834  0.2188 -0.1855 -0.1337
32765ION     NA48899   6.595  10.396   9.912  0.0484 -0.1313  0.3254
32766ION     NA48900  18.397   5.961  10.158  0.1735  0.1525  0.0906
32767ION     NA48901   5.989   1.535   1.782 -0.1979  0.1037 -0.3458
32768ION     NA48902   5.199  10.215   2.396 -0.3499  0.1310  0.1970
32769ION     NA48903  13.571  14.580  10.897  0.0431 -0.1396 -0.0813
32770ION     NA48904  18.894   1.792   4.391  0.0850  0.0746 -0.0745
32771ION     NA48905   1.740   9.747  14.168  0.0751 -0.0860  0.1271
32772ION     NA48906   9.013   6.857   0.337  0.0203  0.0199  0.1961
32773ION     NA48907  13.146  15.833   9.321  0.2527 -0.2787 -0.3865
32774ION     NA48908  14.628   6.471   2.579 -0.1589 -0.1131 -0.1497
32775ION     NA48909   8.310   0.744   4.890 -0.0852  0.0258 -0.0112
32776ION     NA48910   2.418  12.778   5.381 -0.0241 -0.1190 -0.2419
32777ION     NA48911   1.676   6.315   9.723 -0.0501  0.3533  0.0335
32778ION     NA48912  12.149   7.375   4.141 -0.1639 -0.1732  0.1709
32779ION     NA48913   6.167   8.259   9.657  0.2442  0.1074 -0.1592
32780ION     NA48914  10.175   7.709   1.225 -0.1905  0.2818  0.1988
32781ION     NA48915  16.543  16.176   9.952  0.4193  0.0835 -0.2016
32782ION     NA48916  18.226  11.537   9.831 -0.1566  0.2391  0.5057
32783ION     NA48917   6.697  16.154  10.015  0.1571  0.2624 -0.0594
32784ION     NA48918   2.547   9.063   9.844  0.1276 -0.0357  0.0709
32785ION     NA48919   7.812   1.272   5.411  0.1781  0.0963 -0.2316
32786ION     NA48920   1.727   9.782   3.170  0.1061 -0.2245  0.0707
32787ION     NA48921  12.078  13.981   4.640  0.0392  0.0590 -0.1396
32788ION     NA48922   2.784  18.004  12.119  0.2090  0.1404 -0.7239
32789ION     NA48923  14.389  18.538   1.422 -0.0216 -0.1200  0.3232
32790ION     NA48924  11.936  12.714   9.677 -0.1075 -0.2209  0.3336
32791ION     NA48925   2.803  16.511   9.637 -0.1099  0.1313 -0.3729
32792ION     NA48926   4.620  17.560   9.628 -0.2817  0.4134  0.1061
32793ION     NA48927   3.692  13.865  11.770 -0.1139 -0.4264  0.1694
32794ION     NA48928   2.322   3.789   9.614 -0.2913  0.0079  0.2917
32795ION     NA48929  17.726  12.319   4.440  0.1245 -0.0388  0.1326
32796ION     NA48930  16.288  18.087   3.658 -0.1002 -0.0213  0.1532
32797ION     NA48931   6.494   4.402   9.571 -0.0855 -0.0227  0.0562
32798ION     NA48932  11.531  16.123  14.763 -0.2956 -0.4537  0.0585
32799ION     NA48933   0.197   2.429  12.883  0.0212 -0.1104 -0.2355
32800ION     NA48934   6.992  17.004   1.911 -0.0389 -0.1146 -0.0358
32801ION     NA48935  17.472  13.125   5.250  0.1847 -0.0097  0.2083
32802ION     NA48936   7.631  17.003   2.782  0.0979 -0.0330  0.2981
32803ION     NA48937  18.592  10.716   1.210 -0.1873  0.3302 -0.3039
32804ION     NA48938  13.187   4.680   4.943  0.2194 -0.0827 -0.1037
32805ION     NA48939   4.539   3.903   9.747 -0.1476 -0.2969  0.4707
32806ION     NA48940   6.887  12.654   5.373 -0.0893  0.1048 -0.1140
32807ION     NA48941   9.377  15.715   4.949 -0.2255  0.1818 -0.1158
32808ION     NA48942  12.214   4.880   3.533  0.2283 -0.3866 -0.4850
32809ION     NA48943   0.385   8.022   5.912  0.2265 -0.3446 -0.2769
32810ION     NA48944   5.212   6.110   4.504  0.1140 -0.0212  0.2061
32811ION     NA48945   5.831  18.797  14.296 -0.1150  0.0950 -0.3224
32812ION     NA48946   7.391  16.403   5.488 -0.0441 -0.2702  0.0909
32813ION     NA48947   2.330  15.163   1.113 -0.1750  0.2904  0.1788
32814ION     NA48948  15.250   7.519  10.316 -0.3536  0.0698  0.1347
32815ION     NA48949  11.022  11.638   4.053 -0.1412 -0.0681  0.0124
32816ION     NA48950   0.548   4.592  10.105 -0.0217 -0.1127 -0.1715
32817ION     NA48951  11.417   0.982   2.378 -0.0333  0.0931  0.0967
32818ION     NA48952   5.690   0.765  10.100  0.0200 -0.0168 -0.3099
32819ION     NA48953  13.893   9.737  14.165 -0.5540 -0.1787  0.0534
32820ION     NA48954   5.358   3.965   9.602  0.1374 -0.0477 -0.1310
32821ION     NA48955   9.048  17.207  10.194  0.1135 -0.1143 -0.2783
32822ION     NA48956   2.048   5.557   9.540 -0.5104  0.1087 -0.1011
32823ION     NA48957   6.479   3.386  14.550  0.0477 -0.0667  0.4847
32824ION     NA48958  13.087  16.382  13.304  0.2015 -0.2700 -0.0871
32825ION     NA48959  18.662   8.732  10.217 -0.4995  0.1778 -0.0604
32826ION     NA48960   6.243  13.367  10.477  0.0886 -0.1122 -0.2421
32827ION     NA48961  17.344   7.681  14.392  0.1059  0.2568 -0.0548
32828ION     NA48962   0.197   6.985  14.962  0.1706  0.3573 -0.2066
32829ION     NA48963   3.467  17.194   0.886  0.1213  0.2005  0.0164
32830ION     NA48964  15.460   9.896   1.459 -0.0285 -0.0112  0.0916
32831ION     NA48965  15.382  10.049   5.698 -0.2690 -0.3512 -0.1456
32832ION     NA48966  15.272  13.253   2.431 -0.0876 -0.0805  0.0508
32833ION     NA48967  14.608   3.734   5.368 -0.0897  0.1251  0.3122
32834ION     NA48968   6.941   0.694   2.968 -0.0671 -0.0467  0.4617
32835ION     NA48969   2.962   8.036   2.506 -0.2761  0.0378  0.1442
32836ION     NA48970  17.295   7.335  10.308  0.2710 -0.0200 -0.1208
32837ION     NA48971   9.816   6.480   4.953  0.2942 -0.2385  0.1359
32838ION     NA48972   4.767   4.167  12.638  0.1390  0.3734 -0.0126
32839ION     NA48973   8.684  11.088  14.410  0.0398  0.0261 -0.0958
32840ION     NA48974  18.799   9.695   3.494  0.0482  0.2726  0.1982
32841ION     NA48975  11.495   9.389   4.584 -0.6437  0.0299  0.0952
32842ION     NA48976   7.144   6.854  12.939  0.1731 -0.0028  0.4068
32843ION     NA48977   9.725   7.194  10.933  0.0933  0.0069  0.0206
32844ION     NA48978   7.779   2.997   0.648 -0.0601  0.2630 -0.0889
32845ION     NA48979   8.199  14.405  10.010  0.2040 -0.0343 -0.0145
32846ION     NA48980  18.040   3.134   5.699  0.1361 -0.1317  0.2313
32847ION     NA48981  18.264  10.005   4.713 -0.0807 -0.2994  0.0221
32848ION     NA48982  15.703  15.509  15.058  0.2686 -0.0864  0.2225
32849ION     NA48983   4.786   5.015   1.446 -0.2156  0.0057 -0.0546
32850ION     NA48984   7.832   1.322   9.713 -0.0165  0.1461 -0.1455
32851ION     NA48985   9.243  17.738   5.507 -0.4052  0.1643  0.0538
32852ION     NA48986   3.707   4.442   9.714 -0.1152  0.1088  0.3207
32853ION     NA48987  13.981  13.217   9.461 -0.0302  0.0772 -0.2227
32854ION     NA48988   5.626   9.912   5.340 -0.1918  0.2005 -0.3088
32855ION     NA48989   4.726  12.019  10.204  0.4158  0.1167  0.1369
32856ION     NA48990   6.057   2.703   1.198 -0.0888 -0.0972  0.3693
32857ION     NA48991  10.003  13.184   9.962  0.3220  0.1785  0.0621
32858ION     NA48992   1.472   6.129  11.707 -0.1618 -0.3583  0.0280
32859ION     NA48993  10.531   0.582   9.625  0.1656  0.2520  0.1152
32860ION     NA48994  13.249   4.638  12.969  0.0447  0.1499 -0.1350
32861ION     NA48995   9.097  12.900   2.432  0.2969 -0.3524 -0.3455
32862ION     NA48996  13.020   6.369  13.640  0.4399 -0.1010  0.3349
32863ION     NA48997   7.468   7.311   9.604  0.0306  0.1316  0.2499
32864ION     NA48998  17.076   3.552   3.282 -0.1840 -0.3086 -0.0616
32865ION     NA48999   5.039   4.170  14.002 -0.3432  0.0158 -0.0192
32866ION     NA49000   9.447  12.032   1.988  0.0948  0.0786  0.4371
32867ION     NA49001   1.222   5.537  10.054 -0.0539 -0.0959 -0.5223
32868ION     NA49002   1.630  15.587   4.724 -0.1312  0.0218 -0.2032
32869ION     NA49003   9.019  18.269   9.942  0.0944 -0.0346  0.0801
32870ION     NA49004  11.449   9.801  12.854 -0.3932  0.2161  0.0676
32871ION     NA49005   0.339   9.406   9.943  0.2574  0.3832  0.0180
32872ION     NA49006   2.825  15.626   9.981  0.3430  0.2644  0.3464
32873ION     NA49007   3.502  14.593   2.337  0.0378 -0.2299 -0.2532
32874ION     NA49008  15.640   0.727   5.735  0.0796  0.0081 -0.2715
32875ION     NA49009   3.946  10.092  15.208  0.0502 -0.2416  0.2344
32876ION     NA49010   4.537  14.486   5.330  0.0981  0.0572 -0.0611
32877ION     NA49011  12.279   1.348   0.463 -0.2543  0.0332 -0.0568
32878ION     NA49012   7.255   2.795   4.384  0.2768 -0.2496  0.0098
32879ION     NA49013  18.614  17.939   5.698  0.1880  0.1327 -0.0829
32880ION     NA49014  17.045  15.093  12.657  0.0155 -0.0578 -0.3178
32881ION     NA49015   2.738  14.278  10.314 -0.0767 -0.2779 -0.3830
32882ION     NA49016  14.090   1.247   1.173  0.0894 -0.0341 -0.0937
32883ION     NA49017   6.385  13.655   5.511 -0.2786  0.6465 -0.2737
32884ION     NA49018   5.056   1.826   5.266  0.2083  0.1847 -0.2952
32885ION     NA49019   5.046   0.263  15.037  0.0103  0.0015  0.0189
32886ION     NA49020  13.102  18.477   5.814 -0.1865  0.2719  0.0918
32887ION     NA49021  15.349  17.543   9.786 -0.0131  0.1265  0.2741
32888ION     NA49022   5.170   6.923   4.761  0.0781  0.4022 -0.0222
32889ION     NA49023   0.883  13.104  10.171 -0.0004  0.0052  0.0586
32890ION     NA49024  18.998   9.792   5.751  0.0210  0.0972  0.0940
32891ION     NA49025   9.591   7.676   9.617  0.0788  0.0052  0.1869
32892ION     NA49026  15.461  14.783   4.382 -0.1680  0.2107  0.1050
32893ION     NA49027   8.300   3.464   4.137  0.4266  0.0090  0.0077
32894ION     NA49028   6.773   1.176   5.327 -0.0020 -0.3759 -0.1942
32895ION     NA49029  18.740   1.663   2.862 -0.0824 -0.3743 -0.2921
32896ION     NA49030   5.504   0.871   2.225 -0.0446  0.0891  0.2988
32897ION     NA49031  13.947   5.674  14.311  0.0485  0.1604  0.0747
32898ION     NA49032   7.846   3.454   9.701 -0.0916 -0.0737 -0.1023
32899ION     NA49033   4.511   5.930   3.921  0.0717 -0.0184 -0.0453
32900ION     NA49034  11.494   4.231  13.505  0.1087  0.0835 -0.0254
32901ION     NA49035   6.178   3.928   4.719 -0.0676  0.1507 -0.2414
32902ION     NA49036   4.534   7.867   9.604  0.0612  0.0029 -0.0169
32903ION     NA49037   4.666  18.928  12.253  0.1334  0.2439  0.0448
32904ION     NA49038  16.821  18.752   5.285 -0.2443  0.2285 -0.0362
32905ION     NA49039   4.586   7.696   5.258  0.0575  0.2373 -0.1078
32906ION     NA49040   9.439   2.283  14.494 -0.1733 -0.2204 -0.0861
32907ION     NA49041  13.541   2.738  11.654  0.0203  0.1915  0.0350
32908ION     NA49042  17.173  14.673   0.599 -0.0392  0.0075  0.1143
32909ION     NA49043  15.471   4.936   4.160 -0.0401  0.4261 -0.0295
32910ION     NA49044  16.456   6.107  10.441 -0.0160  0.2427  0.0520
32911ION     NA49045   0.768   6.053   0.645  0.2651 -0.0961 -0.0075
32912ION     NA49046   7.539  16.902   4.754  0.0032  0.0222  0.1692
32913ION     NA49047  15.096   1.207   9.804  0.1862  0.3122  0.3396
32914ION     NA49048  14.678   4.218   9.726 -0.3885 -0.0021  0.0517
32915ION     NA49049   9.831  10.786   4.947 -0.3270  0.0612  0.0865
32916ION     NA49050  13.117   1.400  10.480  0.1541  0.0291  0.2721
32917ION     NA49051   3.070  12.942   1.112  0.0000  0.5125  0.0250
32918ION     NA49052   8.676   5.057   2.611  0.3510  0.2408  0.0304
32919ION     NA49053   8.400  15.384  10.323 -0.0642 -0.1471 -0.0621
32920ION     NA49054   0.102   8.060  10.375 -0.0099  0.1216  0.0722
32921ION     NA49055  16.488   0.054  14.746 -0.1569 -0.2309 -0.1022
32922ION     NA49056  12.213   4.354   1.002  0.3984 -0.2251  0.3422
32923ION     NA49057  14.219  17.262   9.865 -0.2203 -0.1260 -0.0754
32924ION     NA49058  10.179   8.792   4.164 -0.0909 -0.3360  0.1098
32925ION     NA49059  14.042   1.699   0.047  0.1072 -0.1747 -0.0497
32926ION     NA49060  15.379  12.468  11.979  0.0655  0.2487 -0.1531
32927ION     NA49061  14.976  12.992   9.664 -0.4295 -0.0920 -0.1518
32928ION     NA49062   8.560   4.474   1.787 -0.1640 -0.2071 -0.0097
32929ION     NA49063  15.890  18.069  13.630  0.1211  0.2000 -0.1279
32930ION     NA49064  12.769   8.373   9.775 -0.0133 -0.2080 -0.3498
32931ION     NA49065   6.179   1.676   9.804  0.0459  0.1855 -0.0677
32932ION     NA49066  11.072  17.921   0.175 -0.2775 -0.4927 -0.2766
32933ION     NA49067  13.072  14.018   5.588  0.1292  0.0246 -0.0098
32934ION     NA49068   2.437   9.962  10.110 -0.1295 -0.1132 -0.3414
32935ION     NA49069   9.345   1.374   4.330 -0.2655  0.0272 -0.4105
32936ION     NA49070   5.828  15.021   2.350 -0.0633 -0.2089  0.2545
32937ION     NA49071   2.919  10.757   2.312 -0.1529  0.1526  0.3668
32938ION     NA49072  15.698   5.224   5.764 -0.2941  0.0910  0.0080
32939ION     NA49073   3.749   1.097   5.477 -0.2596 -0.1217  0.0469
32940ION     NA49074   5.249   5.824   5.069  0.1675  0.1227 -0.1842
32941ION     NA49075  17.419  12.591   1.011  0.1347 -0.1047 -0.3553
32942ION     NA49076   8.566  14.375   5.464  0.1273 -0.0392  0.1730
32943ION     NA49077   5.410  16.967   9.554  0.4203 -0.0818  0.1636
32944ION     NA49078  10.339  15.726   1.115 -0.3284  0.0311  0.0792
32945ION     NA49079  18.880  17.893   3.276  0.0734  0.1785  0.1462
32946ION     NA49080   5.568  12.048   4.130  0.1662  0.1087  0.4591
32947ION     NA49081  18.344  12.995   5.546 -0.0119 -0.2521  0.2558
32948ION     NA49082  14.380   4.268  13.177 -0.1532 -0.1462  0.2186
32949ION     NA49083   2.680   5.586   0.832 -0.0396 -0.3231  0.1336
32950ION     NA49084  11.914   3.290  13.798  0.0393  0.0914 -0.1265
32951ION     NA49085  12.783  15.031   9.452 -0.0664  0.2493 -0.1164
32952ION     NA49086  18.084  10.392   0.222  0.1459  0.0299  0.2301
32953ION     NA49087  15.460  14.621  14.231  0.2435 -0.1138 -0.0545
32954ION     NA49088  17.447   4.185  13.659  0.0764 -0.0085  0.0195
32955ION     NA49089   1.490   3.824   9.824 -0.1649  0.3399 -0.2363
32956ION     NA49090  15.610  18.846   5.830 -0.3124  0.0228  0.0421
32957ION     NA49091  15.313   9.534  13.229 -0.1785 -0.1935  0.1379
32958ION     NA49092  18.562  18.841   4.164  0.2312 -0.1668 -0.3314
32959ION     NA49093   2.188  11.638   4.283 -0.2754  0.1206 -0.0816
32960ION     NA49094  16.602   2.381   5.812  0.1127 -0.0005  0.0377
32961ION     NA49095   1.665  14.060   3.337 -0.0574  0.3962 -0.5057
32962ION     NA49096   9.783  17.972  13.600  0.0080  0.2297  0.0661
32963ION     NA49097   7.924   6.731   4.783  0.3369  0.1219  0.2204
32964ION     NA49098  10.409  18.574  10.234  0.1140 -0.3239  0.1157
32965ION     NA49099   5.946  10.556  10.321  0.4072  0.0007 -0.2417
32966ION     NA49100  15.560   9.853  15.036  0.2627  0.0333  0.0903
32967ION     NA49101  18.335  10.273   5.785 -0.4546 -0.2255 -0.0970
32968ION     NA49102  15.823   2.632   1.713 -0.1164  0.0538  0.0127
32969ION     NA49103   6.151  18.473   9.680  0.0428 -0.0004  0.2288
32970ION     NA49104   9.009  15.703  13.423 -0.2082 -0.0508  0.0042
32971ION     NA49105  16.958  18.991  13.471 -0.0057 -0.0029  0.3211
32972ION     NA49106  16.990  17.407   5.986  0.2534  0.2211  0.0252
32973ION     NA49107   1.411   8.613  13.301 -0.0374 -0.1103  0.1475
32974ION     NA49108  13.112  14.810   0.874 -0.0135  0.0120  0.0952
32975ION     NA49109   8.425  16.456   4.495 -0.2023 -0.0140 -0.2375
32976ION     NA49110  14.878   9.381   3.412  0.0048 -0.0546 -0.0473
32977ION     NA49111   6.614   8.905   2.943  0.3244  0.1768 -0.2592
32978ION     NA49112   6.737  12.816  15.144 -0.2133  0.1768 -0.4304
32979ION     NA49113  11.212  17.003   9.980  0.1716  0.1282  0.3338
32980ION     NA49114  11.001   8.954   5.159  0.3500 -0.0450  0.0659
32981ION     NA49115  13.055  13.922   0.747 -0.0285 -0.1238 -0.1487
32982ION     NA49116   8.488  17.277   5.168  0.0616 -0.0139 -0.2702
32983ION     NA49117  15.478  10.673   9.973 -0.0273  0.2013 -0.1213
32984ION     NA49118   7.212   9.804   4.291 -0.1915  0.1271  0.0450
32985ION     NA49119  12.830   0.758  14.435  0.1610  0.0068 -0.0520
32986ION     NA49120   8.087   6.799  13.430 -0.0335 -0.0634 -0.2101
32987ION     NA49121  17.362  12.044   9.737 -0.1550 -0.2683 -0.1178
32988ION     NA49122   3.763   2.988   5.259 -0.2741  0.1740 -0.0962
32989ION     NA49123  12.494  15.933   1.288 -0.0230  0.1554  0.0308
32990ION     NA49124   0.608   2.160   1.928 -0.0152  0.2675  0.0573
32991ION     NA49125  14.909   9.925  14.804 -0.1038 -0.2017  0.2698
32992ION     NA49126   6.088  15.017  12.425 -0.0348  0.0160 -0.0092
32993ION     NA49127   0.576  11.667   2.783 -0.1704 -0.0040 -0.1637
32994ION     NA49128   1.537  10.348   9.969 -0.0281 -0.3274 -0.1526
32995ION     NA49129   7.182   8.791  11.546  0.2266 -0.1049  0.2739
32996ION     NA49130   5.269  13.483   0.455 -0.3083 -0.0071 -0.2402
32997ION     NA49131  16.888   0.640   5.679 -0.2522  0.1022  0.1378
32998ION     NA49132   5.678   7.492   9.541  0.1030 -0.0622 -0.2083
32999ION     NA49133  16.192   9.999   5.484  0.1812  0.0652  0.2067
33000ION     NA49134   4.446   6.624   4.563  0.1982  0.0462  0.2062
33001ION     NA49135  16.293  15.857  14.628  0.3455  0.1961 -0.0656
33002ION     NA49136   8.529  12.871  10.268 -0.2952 -0.1975  0.0992
33003ION     NA49137  11.309  11.183   9.806 -0.0437  0.1716 -0.1082
33004ION     NA49138  10.721   3.764   9.832  0.0813  0.1021  0.1185
33005ION     NA49139   6.522   3.199   9.829 -0.0171  0.2190 -0.2543
33006ION     NA49140   3.594   6.814   9.461  0.0289  0.3093 -0.3027
33007ION     NA49141  18.308   1.255  15.016  0.0137  0.0929 -0.0628
33008ION     NA49142  11.039   6.332   5.506 -0.3538 -0.1411  0.2510
33009ION     NA49143  16.845  17.172  14.082  0.1731 -0.1158  0.1877
33010ION     NA49144  12.243  17.469  13.186  0.2093 -0.0841  0.1853
33011ION     NA49145   5.294   8.375   9.676  0.2096 -0.0344 -0.0302
33012ION     NA49146   1.052   1.105  10.105 -0.0163 -0.3294 -0.1144
33013ION     NA49147   7.459  14.222   5.197 -0.3039  0.1313  0.0836
33014ION     NA49148   1.974   3.065  13.272 -0.0701 -0.3439 -0.1067
33015ION     NA49149   7.484  16.204  13.419  0.1667 -0.0389 -0.1124
33016ION     NA49150  11.207  13.552   9.777  0.2487 -0.1092 -0.2323
33017ION     NA49151   1.546  14.336   6.009  0.0897  0.3887  0.1134
33018ION     NA49152   7.268   4.960   5.496 -0.3041  0.3128  0.1922
33019ION     NA49153   8.042  11.365   9.723  0.2591 -0.2685 -0.2008
33020ION     NA49154  16.906   3.979   5.963 -0.3049 -0.3773 -0.0767
33021ION     NA49155  16.935  13.062   9.728 -0.4745  0.2378 -0.1052
33022ION     NA49156   1.123   1.675   1.086  0.2214 -0.2762 -0.1973
33023ION     NA49157   5.677  12.220   9.893  0.0375  0.3127 -0.0613
33024ION     NA49158  11.506  11.729   4.897  0.0454 -0.0885  0.2028
33025ION     NA49159  14.657  14.713   0.419 -0.1687  0.1773  0.2406
33026ION     NA49160  10.251  13.313   0.453  0.1815 -0.0771  0.2760
33027ION     NA49161   0.515   6.778   3.413 -0.1643  0.1967 -0.1077
33028ION     NA49162  10.763   6.332   2.197 -0.2619 -0.1084 -0.0301
33029ION     NA49163   1.974   8.743   2.173  0.0888 -0.1992 -0.0170
33030ION     NA49164  18.888   0.535   5.328 -0.0682 -0.0149  0.0188
33031ION     NA49165  10.578  17.819   3.342  0.2612  0.1862  0.1444
33032ION     NA49166   4.593   8.901   9.790 -0.0097 -0.2873 -0.1723
33033ION     NA49167  12.253  14.529   9.412 -0.0468 -0.1400 -0.1686
33034ION     NA49168  14.176  16.862   1.435  0.3798 -0.1834 -0.0204
33035ION     NA49169  10.548   4.833   9.700  0.0412  0.2752  0.1942
33036ION     NA49170  13.064  12.815   9.433 -0.1332 -0.2059 -0.0375
33037ION     NA49171  12.516   9.921   5.505  0.0676 -0.1955 -0.2120
33038ION     NA49172   1.264   9.334  10.000  0.0665 -0.1391  0.3183
33039ION     NA49173  13.159   7.280  12.032 -0.0470 -0.0568 -0.1341
33040ION     NA49174   4.233   4.843   4.465 -0.3872 -0.0915  0.0020
33041ION     NA49175  14.507   1.267  13.642  0.0518  0.0237  0.1789
33042ION     NA49176  17.437  17.506  10.393  0.0910  0.0896 -0.1155
33043ION     NA49177  17.537  11.061   2.734 -0.1589  0.4415  0.0515
33044ION     NA49178   3.684  14.556   9.952  0.1788  0.1911  0.0792
33045ION     NA49179  13.575   4.661  14.656 -0.1399 -0.1358 -0.3547
33046ION     NA49180  11.010   7.097   5.232 -0.1458 -0.0033  0.0354
33047ION     NA49181   3.157   8.392   9.687  0.0240  0.1403 -0.0565
33048ION     NA49182   8.477  10.063   9.326 -0.1151  0.0109 -0.0298
33049ION     NA49183   2.052   1.278   0.713 -0.0276  0.0949 -0.1589
33050ION     NA49184  14.429  14.897   1.547 -0.2989  0.0569 -0.3489
33051ION     NA49185   5.897   7.038  12.097  0.1074 -0.0134 -0.0676
33052ION     NA49186   9.649   9.052  14.190 -0.0404  0.0440 -0.2416
33053ION     NA49187   9.245   4.350   9.649 -0.1062 -0.0429 -0.0052
33054ION     NA49188  12.262   7.290   3.220 -0.0770  0.0583 -0.0517
33055ION     NA49189   3.301  14.375   1.203 -0.1220 -0.0619 -0.0810
33056ION     NA49190  13.670  15.277   9.722 -0.1863 -0.4444  0.2679
33057ION     NA49191  15.723  14.625   9.645  0.0493  0.1974 -0.1068
33058ION     NA49192  17.209  15.210   5.596  0.3945 -0.0307 -0.2198
33059ION     NA49193   6.740   8.222  14.781  0.0846 -0.3106  0.1135
33060ION     NA49194   3.097   1.205   9.872 -0.2783  0.0107 -0.1503
33061ION     NA49195  16.769  18.770  10.326 -0.1044 -0.1417  0.0378
33062ION     NA49196   0.402   4.185   4.538  0.3504  0.0025  0.1104
33063ION     NA49197   8.096   9.890  13.461 -0.1993  0.1836  0.3143
33064ION     NA49198  14.698  11.146   2.449 -0.0943 -0.0166  0.1448
33065ION     NA49199   6.990  12.089  12.119 -0.1646  0.0779  0.2011
33066ION     NA49200   0.325   4.191  14.051 -0.1573 -0.1364 -0.0058
33067ION     NA49201   3.940  13.721  10.917 -0.2315  0.1480  0.0847
33068ION     NA49202   5.520  11.635   5.673  0.0738  0.0026  0.0568
33069ION     NA49203   5.790   3.965  11.310  0.2717  0.1248 -0.1311
33070ION     NA49204   5.341   3.149  14.127 -0.0393  0.1663 -0.1023
33071ION     NA49205   8.972   6.826   9.327  0.1118 -0.1495 -0.1493
33072ION     NA49206   7.206  10.064   5.206  0.0623 -0.2725 -0.0677
33073ION     NA49207   8.487   6.885   9.353 -0.0291  0.4891 -0.0687
33074ION     NA49208  16.545   0.448   2.843  0.2358 -0.2531 -0.1546
33075ION     NA49209   6.830  17.353   9.618  0.2692  0.1422  0.1161
33076ION     NA49210   5.829  17.089   1.833  0.0068  0.0466  0.0124
33077ION     NA49211   3.913   3.473   4.996  0.3955 -0.0447 -0.0434
33078ION     NA49212   9.446   6.651  14.861 -0.1533  0.0885  0.3498
33079ION     NA49213   5.964  12.904   4.002  0.1495 -0.1005  0.0553
33080ION     NA49214  14.394  12.723   2.377  0.2968 -0.0537  0.3793
33081ION     NA49215  13.775   1.720   4.450 -0.0504  0.0264 -0.4126
33082ION     NA49216   8.965   3.327   9.840  0.2146  0.2599 -0.1736
33083ION     NA49217   0.799   6.692  10.041  0.0451 -0.1183 -0.3945
33084ION     NA49218   3.448  11.989   4.951  0.1803  0.0265 -0.3221
33085ION     NA49219  13.522   3.499  12.055 -0.1385 -0.1711  0.1858
33086ION     NA49220   7.640  10.327  12.435 -0.1254 -0.0932 -0.3153
33087ION     NA49221  13.680   0.947   3.014 -0.1949  0.0943  0.1446
33088ION     NA49222  10.337  13.482   5.600 -0.2275 -0.2006 -0.1321
33089ION     NA49223   5.021   9.734  12.486 -0.3845  0.3924  0.0465
33090ION     NA49224   9.872   0.833  10.981 -0.0072  0.0475 -0.1813
33091ION     NA49225  10.886   2.247  13.203  0.2410  0.2182  0.0794
33092ION     NA49226  17.745  10.861   5.509  0.1438  0.1169 -0.0130
33093ION     NA49227  15.183   6.310   4.115  0.2082  0.1101  0.0265
33094ION     NA49228  17.486  16.412  10.044 -0.0022 -0.2897  0.1840
33095ION     NA49229  12.656  12.058   1.641 -0.0814  0.2466  0.1490
33096ION     NA49230   1.549   7.458   3.497  0.1207 -0.2230 -0.0682
33097ION     NA49231   4.430  14.061   4.524 -0.0760  0.0770  0.1442
33098ION     NA49232  10.079   5.737   0.667 -0.2230  0.0233 -0.0459
33099ION     NA49233   3.316  17.949   9.797  0.3729 -0.0932 -0.0370
33100ION     NA49234   6.269  16.965   9.585  0.1588 -0.1421 -0.4079
33101ION     NA49235   7.169  12.856   3.947 -0.2060 -0.3170  0.1110
33102ION     NA49236   0.643   3.144  10.213 -0.0046 -0.2553  0.1560
33103ION     NA49237  12.763  11.264   1.975  0.0625  0.2436  0.0077
33104ION     NA49238   6.484   0.590  12.016 -0.0729 -0.1904 -0.3087
33105ION     NA49239   1.330   5.178  14.603 -0.0998 -0.2707 -0.4371
33106ION     NA49240  13.283   3.737   2.037  0.1210  0.2309  0.0056
33107ION     NA49241  12.388  18.178   0.833  0.0781 -0.3008  0.1474
33108ION     NA49242   6.587  12.886   2.120 -0.3489 -0.0283 -0.0397
33109ION     NA49243  12.768   7.406  15.245 -0.1039  0.0319 -0.0484
33110ION     NA49244  16.116   4.519  13.370  0.1699 -0.0898  0.0175
33111ION     NA49245   1.864   8.531  10.029 -0.0914 -0.3145  0.3245
33112ION     NA49246  11.608   8.105   5.184  0.2942  0.0678 -0.2666
33113ION     NA49247  15.855   0.368   3.954 -0.3054 -0.0569  0.1821
33114ION     NA49248  10.039   7.138   5.506  0.1175  0.1154 -0.0700
33115ION     NA49249  10.075   7.658   9.411  0.1518 -0.5629  0.0076
33116ION     NA49250   3.746   6.424   4.992  0.1320  0.3003 -0.5167
33117ION     NA49251  13.678  17.630   5.313 -0.1622 -0.1044 -0.1211
33118ION     NA49252  13.066   8.999  11.447  0.1054 -0.1363 -0.0239
33119ION     NA49253  12.084   1.986   9.644  0.0109 -0.1975  0.0005
33120ION     NA49254   9.321   4.360   5.302 -0.1783 -0.1759  0.1641
33121ION     NA49255   6.840   2.430   9.710  0.2949 -0.1037 -0.2113
33122ION     NA49256  10.986  12.329   9.759  0.1918  0.1566 -0.0593
33123ION     NA49257   2.482  18.362   9.684 -0.0490  0.0175  0.0896
33124ION     NA49258   8.917  13.029  13.162  0.2955 -0.1393  0.0009
33125ION     NA49259  11.889   1.096   9.792  0.0779 -0.0280 -0.0820
33126ION     NA49260   2.477  10.268   3.703  0.1198 -0.3498 -0.1137
33127ION     NA49261  13.265   6.428   5.595 -0.4740  0.3180  0.3104
33128ION     NA49262   2.830   8.783   1.508  0.2325  0.1145 -0.1826
33129ION     NA49263   4.924  17.118  13.922  0.0080  0.1067 -0.1652
33130ION     NA49264   5.225  15.855   1.414  0.3164  0.0688 -0.1725
33131ION     NA49265  13.393  16.003   2.878  0.0920 -0.2574  0.0629
33132ION     NA49266  14.820   1.326  12.294 -0.1671  0.1522 -0.1591
33133ION     NA49267  10.752   6.696   9.450  0.5786 -0.0802 -0.1502
33134ION     NA49268  13.667   2.019  10.021  0.3509 -0.1062  0.0704
33135ION     NA49269   9.770   8.263   3.596 -0.0704 -0.1745 -0.1925
33136ION     NA49270   3.374   0.352   5.360  0.1977  0.3518 -0.2393
33137ION     NA49271  14.093  18.788   9.940  0.2344 -0.3664  0.2087
33138ION     NA49272   7.307   5.724   0.656  0.0089  0.1140  0.3708
33139ION     NA49273  12.681   8.553  15.056 -0.3704 -0.0243 -0.0868
33140ION     NA49274  18.647  12.211   9.937 -0.1181 -0.3298  0.0300
33141ION     NA49275  13.788   0.802  10.395  0.0926  0.0365 -0.0269
33142ION     NA49276  15.687  11.313   3.590 -0.0913 -0.0157  0.0482
33143ION     NA49277   3.818   7.688   1.353 -0.2470 -0.0714 -0.1946
33144ION     NA49278   4.192   0.975   4.670  0.3762  0.0321  0.2009
33145ION     NA49279  10.569  16.900  14.511  0.0869  0.5141 -0.0649
33146ION     NA49280   4.120   8.602   9.631 -0.1185 -0.1940 -0.1369
33147ION     NA49281  17.796   5.477   5.667 -0.0841 -0.2401  0.1615
33148ION     NA49282   5.584  15.706  10.047  0.0456  0.2388 -0.0034
33149ION     NA49283   9.441   8.529  13.317  0.0918  0.1276  0.0030
33150ION     NA49284   2.552   7.478   4.163  0.3352  0.2184 -0.0095
33151ION     NA49285   1.861   8.490   5.325 -0.3380  0.1288 -0.0239
33152ION     NA49286   4.013  11.234   9.943  0.1672 -0.0112 -0.2231
33153ION     NA49287  14.109   2.024   1.765 -0.5467 -0.1115 -0.0868
33154ION     NA49288  14.999   1.721   1.108 -0.0726  0.3997 -0.2913
33155ION     NA49289  16.431   5.595  14.316 -0.1030  0.1539  0.1358
33156ION     NA49290  13.166  17.876  11.263  0.2320  0.1418  0.0835
33157ION     NA49291  11.697   8.012   1.447 -0.0816 -0.2081 -0.1690
33158ION     NA49292   1.464   8.299   3.645  0.1753  0.0314 -0.2016
33159ION     NA49293   7.904   3.699   5.488 -0.0620  0.2221  0.0295
33160ION     NA49294   3.955  10.374   0.688 -0.0729 -0.0401  0.1743
33161ION     NA49295   5.248   7.770   4.225 -0.0831 -0.3037  0.0112
33162ION     NA49296  12.497  15.357   5.047  0.1864 -0.0563 -0.0759
33163ION     NA49297   4.972  16.323  14.226 -0.0217  0.0502 -0.0829
33164ION     NA49298   2.071  16.834   5.745 -0.3086 -0.0145  0.0122
33165ION     NA49299   2.908  11.119   3.553  0.1139  0.0214  0.1845
33166ION     NA49300   7.889   9.573   9.546 -0.0368  0.0883 -0.0955
33167ION     NA49301   0.586   8.065   4.017  0.1392 -0.0838 -0.1103
33168ION     NA49302  17.370  16.721   2.021  0.1940  0.0495 -0.0648
33169ION     NA49303   4.448   5.234  14.592 -0.0863  0.0562 -0.0479
33170ION     NA49304   3.438  12.005   0.983  0.2680 -0.1054 -0.1094
33171ION     NA49305  13.537   6.079   2.565 -0.0029 -0.2765  0.0879
33172ION     NA49306   4.979  12.298   5.605  0.2923  0.1618 -0.0453
33173ION     NA49307  15.105  15.967   3.176 -0.1311 -0.3007  0.0646
33174ION     NA49308   3.497  13.990   4.357 -0.0688 -0.1558 -0.0165
33175ION     NA49309  10.896  10.250   2.399  0.2180 -0.0207  0.1225
33176ION     NA49310  18.447   0.349  14.301 -0.1630 -0.0122 -0.0611
33177ION     NA49311   3.742   7.601  15.067 -0.0288  0.1103  0.0236
33178ION     NA49312  15.629  12.465   9.784  0.1665  0.0913  0.3992
33179ION     NA49313  17.569   5.421  14.142 -0.0025  0.2295  0.0058
33180ION     NA49314   2.203   4.698   1.122 -0.0276 -0.5157  0.1949
33181ION     NA49315  15.060   2.332   1.895  0.1719 -0.0986 -0.1928
33182ION     NA49316   0.645  14.068   5.894 -0.1926  0.0473  0.2429
33183ION     NA49317   3.233   8.190   5.455  0.2288 -0.0423 -0.0056
33184ION     NA49318   2.473  15.856  13.305  0.2200  0.2023  0.1258
33185ION     NA49319   7.014   3.810   4.429 -0.3312 -0.0412  0.2629
33186ION     NA49320   7.518  15.634  10.083 -0.3572 -0.0202 -0.1426
33187ION     NA49321  17.566  10.675   1.660  0.1101 -0.1942  0.2640
33188ION     NA49322  14.027   2.450  14.631  0.0943  0.2225 -0.0481
33189ION     NA49323  10.246   1.440   5.470 -0.1571  0.2090 -0.1402
33190ION     NA49324   2.499   0.642  10.143  0.1396 -0.0720 -0.0610
33191ION     NA49325   5.312   0.453   5.277 -0.2159 -0.1565  0.3337
33192ION     NA49326   8.331  16.113  10.416 -0.1431  0.0422  0.1496
33193ION     NA49327  14.273  11.104   5.461  0.1026  0.1783  0.0509
33194ION     NA49328   7.372  16.046  14.720 -0.2186 -0.0770  0.2733
33195ION     NA49329  13.017   9.394   9.704 -0.1447 -0.2448 -0.4939
33196ION     NA49330   3.424   8.469   4.284  0.5198  0.1287  0.1676
33197ION     NA49331   3.696   9.205   9.695 -0.1980  0.0701 -0.1791
33198ION     NA49332   1.919   0.845  13.161 -0.0694  0.0328 -0.3261
33199ION     NA49333   9.958   5.803   9.691 -0.2361 -0.0529 -0.0299
33200ION     NA49334  11.176   6.418  10.307  0.2823  0.0482  0.1505
33201ION     NA49335   5.964  18.792   5.532  0.0790  0.1323 -0.2639
33202ION     NA49336   4.489  15.630   0.670  0.0173 -0.0527  0.0590
33203ION     NA49337  16.524  12.910   5.680  0.1885 -0.0958  0.0758
33204ION     NA49338   6.928   5.939   3.744  0.0889 -0.2112  0.0124
33205ION     NA49339  18.622   3.817  12.694  0.1927 -0.0727  0.0324
33206ION     NA49340  17.880   6.697  15.183 -0.1142 -0.2453 -0.1740
33207ION     NA49341  10.057   8.615   0.360 -0.1318 -0.3379  0.0062
33208ION     NA49342  12.291  17.935  14.237  0.3256 -0.1612  0.0507
33209ION     NA49343  16.565   7.536   5.613 -0.0435 -0.1002  0.0433
33210ION     NA49344   5.996  11.268  13.582  0.2178  0.0503  0.1493
33211ION     NA49345  13.098  14.733   1.508  0.2884 -0.2710 -0.4167
33212ION     NA49346   5.749  12.645   1.717  0.1360 -0.2060  0.0529
33213ION     NA49347   7.706   6.936  11.949  0.1896  0.0236  0.0785
33214ION     NA49348   8.722  16.410   2.503 -0.1495  0.2468  0.7635
33215ION     NA49349  16.020  15.039   5.241  0.1093  0.2671  0.2000
33216ION     NA49350  12.553   1.382  11.231 -0.0218 -0.0904 -0.1110
33217ION     NA49351  15.708  13.157   5.517 -0.1281  0.0941 -0.2614
33218ION     NA49352  16.102   8.918   5.353  0.1834 -0.1742  0.1910
33219ION     NA49353   2.285   6.529   9.571 -0.2154  0.2169  0.1685
33220ION     NA49354   6.967   8.870   9.839  0.0024  0.3400 -0.0977
33221ION     NA49355  12.432   3.841   9.507  0.1767  0.2099  0.0160
33222ION     NA49356   9.389  13.290  11.960 -0.5603 -0.1962  0.2634
33223ION     NA49357  14.608  18.130   9.862  0.0213  0.0378 -0.0680
33224ION     NA49358  10.847  14.020   2.425 -0.1246 -0.0290  0.1094
33225ION     NA49359  17.857  13.971   9.654 -0.0677 -0.0019 -0.1919
33226ION     NA49360   2.204   4.097   5.379 -0.0563 -0.0968 -0.1812
33227ION     NA49361   0.328  16.456  10.178  0.0175 -0.0105  0.0066
33228ION     NA49362   2.003  11.779   3.161 -0.1398 -0.1905 -0.1443
33229ION     NA49363   4.193   5.319   9.476  0.0763 -0.1894 -0.2497
33230ION     NA49364  14.555  10.570   9.919  0.0020  0.3370 -0.0589
33231ION     NA49365   7.299   0.690   5.506  0.0510 -0.0741 -0.1802
33232ION     NA49366   2.518  10.993   9.694  0.3415 -0.3101 -0.1981
33233ION     NA49367  12.860   1.499  14.424  0.0156 -0.2901 -0.3466
33234ION     NA49368   5.534  18.000   2.981  0.2482 -0.2308 -0.0331
33235ION     NA49369   1.488  16.342  14.493 -0.3768  0.2332 -0.1384
33236ION     NA49370   7.106   8.668   5.447  0.0863 -0.0897 -0.0507
33237ION     NA49371  18.691  14.420  10.110 -0.0003  0.2079  0.0258
33238ION     NA49372   6.007   4.433   1.833  0.2387 -0.1189 -0.4542
33239ION     NA49373  13.273   7.579   9.887 -0.0235 -0.1874  0.2182
33240ION     NA49374  16.746   0.584   9.834 -0.3599 -0.1331  0.2271
33241ION     NA49375   8.736   6.335  11.246 -0.1485  0.0177 -0.0865
33242ION     NA49376  13.242  14.411  13.251 -0.4867  0.2910  0.0596
33243ION     NA49377  13.069   7.136   0.276  0.2018 -0.2019  0.2480
  19.00826  19.00826  15.28833
