INSANE! Membrane UpperLeaflet>loPI:POPI:DPPI:PYPI:ERGO=80.0:5.0:3.0:2.0:10.0 LowerLeaflet>PSPI:POPI:POPS:YOPS:POPE:YOPE:POPC:YOPC:ERGO=6.0:14.0:21.0:9.0:9.0:21.0:12.0:48.0:60.0
49377
    1loPI    C1    1  14.717   3.415   9.712 -0.2313 -0.0646 -0.0680
    1loPI    C2    2  14.746   3.783   9.865 -0.1586 -0.1326  0.0836
    1loPI    C3    3  14.711   3.468  10.108  0.0613 -0.2513 -0.0352
    1loPI   PO4    4  14.707   3.480   9.426 -0.3831 -0.0247  0.0486
    1loPI   GL1    5  14.965   3.616   9.063 -0.0725 -0.0697 -0.4784
    1loPI   GL2    6  15.183   3.854   9.167  0.2480 -0.0603 -0.0229
    1loPI   C1A    7  15.047   3.648   8.654 -0.0380 -0.1267 -0.3291
    1loPI   C2A    8  15.260   3.365   8.342  0.4052  0.0647 -0.0661
    1loPI   C3A    9  15.209   2.994   8.190 -0.0246  0.0065  0.0024
    1loPI   C4A   10  15.254   2.999   7.865 -0.0714 -0.1232  0.0937
    1loPI   C5A   11  15.249   2.842   7.492  0.0667 -0.1227 -0.0836
    1loPI   C6A   12  15.243   2.703   7.085  0.0725  0.1160  0.5522
    1loPI   C1B   13  15.118   4.097   8.844  0.0633 -0.2507  0.3292
    1loPI   C2B   14  14.873   4.301   8.706  0.1131  0.0702 -0.2032
    1loPI   C3B   15  14.886   4.575   8.368 -0.3053  0.3646 -0.2594
    1loPI   C4B   16  14.799   4.879   8.084 -0.0832 -0.6003  0.0367
    2loPI    C1   17  14.572  15.393  10.310  0.1938  0.0438 -0.0438
    2loPI    C2   18  14.651  15.719  10.528  0.0703  0.1100 -0.0972
    2loPI    C3   19  14.282  15.657  10.387  0.0971 -0.0450 -0.1010
    2loPI   PO4   20  14.832  15.346  10.222 -0.0860  0.0543 -0.2009
    2loPI   GL1   21  14.974  15.180   9.853  0.3009  0.0797 -0.1133
    2loPI   GL2   22  15.311  15.061   9.724 -0.1713 -0.1137 -0.1280
    2loPI   C1A   23  14.941  14.833   9.463  0.1270  0.0011 -0.0053
    2loPI   C2A   24  15.194  14.705   9.122  0.2596  0.0436  0.1539
    2loPI   C3A   25  15.224  15.034   8.795  0.0760  0.6364 -0.1399
    2loPI   C4A   26  14.854  15.215   8.587  0.3042 -0.4429 -0.1354
    2loPI   C5A   27  14.544  15.496   8.781  0.2002  0.1831  0.0986
    2loPI   C6A   28  14.286  15.618   9.001 -0.3322 -0.3649 -0.0728
    2loPI   C1B   29  15.493  15.074   9.297 -0.2299 -0.0351 -0.2689
    2loPI   C2B   30  15.578  15.274   8.975  0.1390 -0.2902  0.1057
    2loPI   C3B   31  15.689  15.193   8.506  0.2094 -0.1333  0.2675
    2loPI   C4B   32  15.833  15.353   8.151  0.2908  0.0794  0.0138
    3loPI    C1   33   0.778   7.338   9.983  0.0547  0.1199 -0.1337
    3loPI    C2   34   0.385   7.394   9.930  0.0161 -0.0696 -0.0583
    3loPI    C3   35   0.633   7.708   9.938 -0.1207  0.0439 -0.2044
    3loPI   PO4   36   0.824   7.079   9.758 -0.0138 -0.2321  0.2910
    3loPI   GL1   37   0.756   7.071   9.303  0.1694  0.2433  0.2013
    3loPI   GL2   38   0.944   7.289   9.140  0.1616  0.0034 -0.1869
    3loPI   C1A   39   0.676   6.918   8.911 -0.2169  0.2535  0.1348
    3loPI   C2A   40   0.669   6.852   8.553 -0.1127 -0.0386  0.0840
    3loPI   C3A   41   0.700   6.879   8.058 -0.0432 -0.0533 -0.0275
    3loPI   C4A   42   0.391   6.761   7.862  0.0608  0.1173  0.2172
    3loPI   C5A   43  -0.012   6.762   8.001 -0.1612 -0.0132  0.0552
    3loPI   C6A   44  -0.352   6.641   7.998  0.0131 -0.1182 -0.0085
    3loPI   C1B   45   0.870   7.302   8.675 -0.3030 -0.0024  0.0066
    3loPI   C2B   46   0.818   7.263   8.305 -0.0057  0.0287  0.2484
    3loPI   C3B   47   0.746   7.494   8.022 -0.2791  0.1720 -0.1008
    3loPI   C4B   48   0.721   7.115   7.640  0.1162 -0.1258 -0.3164
    4loPI    C1   49   5.673  14.947  10.293 -0.0866  0.0756  0.0895
    4loPI    C2   50   5.297  14.904  10.163 -0.1657  0.0352  0.3264
    4loPI    C3   51   5.367  14.986  10.548  0.0641  0.1702  0.2577
    4loPI   PO4   52   5.851  15.068  10.077 -0.0548 -0.0993  0.0530
    4loPI   GL1   53   5.941  15.009   9.687  0.1823  0.1910  0.1196
    4loPI   GL2   54   5.583  14.806   9.711 -0.1505  0.0735 -0.1348
    4loPI   C1A   55   6.057  14.980   9.242  0.0626 -0.0392 -0.1603
    4loPI   C2A   56   5.994  15.260   8.863 -0.0429  0.0453 -0.2383
    4loPI   C3A   57   6.153  15.453   8.439 -0.0359  0.2957  0.0861
    4loPI   C4A   58   5.819  15.300   8.130  0.2204  0.0594  0.1028
    4loPI   C5A   59   5.385  15.150   7.919 -0.0911  0.0365 -0.0215
    4loPI   C6A   60   5.044  15.080   7.615 -0.1395  0.1038 -0.2191
    4loPI   C1B   61   5.527  14.997   9.353 -0.1495 -0.1483 -0.0110
    4loPI   C2B   62   5.457  15.150   8.968 -0.1148 -0.0057  0.2298
    4loPI   C3B   63   5.268  15.209   8.595 -0.1864 -0.1889  0.1332
    4loPI   C4B   64   4.973  15.222   8.236  0.0583 -0.2396  0.0777
    5loPI    C1   65  14.668   2.911   9.583  0.1483 -0.1280  0.2201
    5loPI    C2   66  15.050   3.029   9.585  0.0627  0.1558  0.2392
    5loPI    C3   67  14.868   2.935   9.928  0.1167  0.0111  0.2292
    5loPI   PO4   68  14.588   2.944   9.309  0.2786  0.1074  0.0563
    5loPI   GL1   69  14.608   3.253   8.970  0.0103 -0.0079  0.2472
    5loPI   GL2   70  14.276   3.248   8.985  0.0296 -0.0829  0.0704
    5loPI   C1A   71  14.798   3.215   8.667  0.2845 -0.1130  0.2697
    5loPI   C2A   72  14.829   3.402   8.187  0.1887  0.0503  0.4371
    5loPI   C3A   73  14.855   3.240   7.749 -0.0490 -0.2690 -0.4246
    5loPI   C4A   74  14.953   3.268   7.280 -0.1160  0.1713 -0.2066
    5loPI   C5A   75  14.716   3.497   7.088 -0.3203 -0.1858  0.0033
    5loPI   C6A   76  14.700   3.745   6.798  0.5311 -0.0557 -0.1056
    5loPI   C1B   77  14.196   3.437   8.581  0.2706 -0.1610  0.1358
    5loPI   C2B   78  14.398   3.604   8.127  0.3773 -0.0963  0.0209
    5loPI   C3B   79  14.685   3.777   7.764 -0.2063  0.2188  0.1686
    5loPI   C4B   80  14.824   3.896   7.338 -0.3273 -0.2650  0.0412
    6loPI    C1   81   1.364   0.094   9.956  0.0170  0.0511 -0.0578
    6loPI    C2   82   1.458   0.328  10.267 -0.1160  0.0651 -0.0278
    6loPI    C3   83   1.240  -0.002  10.324 -0.0189 -0.0093 -0.0857
    6loPI   PO4   84   1.535   0.249   9.774  0.1811 -0.0587  0.1287
    6loPI   GL1   85   1.514   0.436   9.340  0.4031  0.3207 -0.1928
    6loPI   GL2   86   1.764   0.410   9.173  0.5003 -0.0435 -0.0619
    6loPI   C1A   87   1.439   0.705   9.048  0.2260  0.3355  0.4403
    6loPI   C2A   88   1.331   0.731   8.689 -0.1292 -0.2563 -0.1215
    6loPI   C3A   89   1.211   1.047   8.343  0.1593 -0.1541 -0.0567
    6loPI   C4A   90   1.404   1.188   7.971  0.1484 -0.2992 -0.1406
    6loPI   C5A   91   1.666   1.285   7.645 -0.0716  0.0970 -0.0742
    6loPI   C6A   92   2.087   1.435   7.532 -0.4084 -0.0327 -0.1748
    6loPI   C1B   93   1.740   0.426   8.732 -0.1476  0.0527  0.2482
    6loPI   C2B   94   1.762   0.399   8.238 -0.0030 -0.1924  0.1181
    6loPI   C3B   95   1.732   0.178   7.988 -0.0236  0.0373 -0.1342
    6loPI   C4B   96   1.809   0.097   7.526  0.0263  0.0023  0.0630
    7loPI    C1   97   6.969   2.591   9.533  0.0026 -0.2130 -0.0454
    7loPI    C2   98   7.156   2.665   9.878 -0.0293  0.1877 -0.1096
    7loPI    C3   99   6.784   2.519   9.880 -0.0565  0.2571  0.0261
    7loPI   PO4  100   7.145   2.500   9.327  0.1867 -0.1066  0.0390
    7loPI   GL1  101   7.184   2.118   9.191 -0.2989 -0.1053 -0.2550
    7loPI   GL2  102   7.378   2.080   9.435 -0.4605  0.0093  0.0523
    7loPI   C1A  103   7.067   2.092   8.787  0.2725 -0.1171 -0.4929
    7loPI   C2A  104   6.952   2.198   8.325 -0.1123  0.3475  0.3057
    7loPI   C3A  105   7.032   2.297   7.927 -0.1127  0.0074  0.2672
    7loPI   C4A  106   6.838   2.591   7.568  0.4936 -0.0090 -0.1053
    7loPI   C5A  107   6.822   2.892   7.263  0.3022 -0.0292 -0.1799
    7loPI   C6A  108   6.905   2.980   6.878 -0.1112 -0.4509  0.0287
    7loPI   C1B  109   7.645   1.883   9.070  0.2754 -0.1389 -0.0692
    7loPI   C2B  110   7.567   1.843   8.593 -0.0933 -0.0940  0.0803
    7loPI   C3B  111   7.471   1.899   8.108  0.1280 -0.3101  0.1622
    7loPI   C4B  112   7.514   1.851   7.699 -0.0373 -0.1388  0.2659
    8loPI    C1  113  16.438  17.986  10.318  0.1375  0.0414 -0.0711
    8loPI    C2  114  16.386  18.380  10.365 -0.1768  0.0016 -0.0657
    8loPI    C3  115  16.444  18.146  10.684  0.1115  0.0555 -0.0768
    8loPI   PO4  116  16.192  17.870  10.088  0.4544 -0.1220 -0.0226
    8loPI   GL1  117  16.146  17.749   9.585  0.2416 -0.1644  0.0912
    8loPI   GL2  118  16.154  18.090   9.632  0.4699  0.0730  0.0445
    8loPI   C1A  119  16.103  17.512   9.163 -0.0018  0.0715 -0.2539
    8loPI   C2A  120  16.321  17.309   8.799  0.0908  0.4263 -0.1293
    8loPI   C3A  121  16.144  17.175   8.467  0.0250 -0.0286 -0.0905
    8loPI   C4A  122  16.319  16.879   8.164  0.3254  0.0907 -0.0247
    8loPI   C5A  123  16.300  16.561   7.874  0.2055  0.2491  0.0983
    8loPI   C6A  124  15.910  16.365   7.836  0.1419 -0.0398 -0.0308
    8loPI   C1B  125  16.216  18.246   9.124  0.4138  0.1072  0.1232
    8loPI   C2B  126  16.335  18.070   8.639 -0.1165  0.0059 -0.2921
    8loPI   C3B  127  16.272  17.946   8.228 -0.0333  0.0186 -0.0506
    8loPI   C4B  128  16.288  18.202   7.812  0.0518  0.0340 -0.0534
    9loPI    C1  129  18.784  18.431   9.869 -0.1839 -0.3181 -0.1903
    9loPI    C2  130  18.720  18.283  10.235  0.1208 -0.1197 -0.0533
    9loPI    C3  131  18.420  18.301   9.972 -0.0930 -0.2960  0.1738
    9loPI   PO4  132  19.028  18.366   9.847  0.0409 -0.1496  0.0927
    9loPI   GL1  133  19.152  18.127   9.419 -0.1457 -0.1473 -0.0217
    9loPI   GL2  134  18.842  18.043   9.499 -0.2311  0.1369 -0.1209
    9loPI   C1A  135  19.022  18.278   8.967  0.2272  0.0821 -0.3574
    9loPI   C2A  136  18.915  18.181   8.603  0.1153 -0.0900  0.1553
    9loPI   C3A  137  18.594  18.027   8.359 -0.0938 -0.1222 -0.3633
    9loPI   C4A  138  18.300  17.841   8.084  0.1163  0.0684  0.1821
    9loPI   C5A  139  18.158  17.633   7.655  0.0268 -0.1346  0.0527
    9loPI   C6A  140  18.241  17.409   7.278 -0.2294 -0.0849 -0.0611
    9loPI   C1B  141  18.672  17.785   9.217  0.0824  0.1028 -0.1019
    9loPI   C2B  142  18.612  17.680   8.749  0.3333  0.1423 -0.1031
    9loPI   C3B  143  18.475  17.576   8.444 -0.1226 -0.0919  0.0048
    9loPI   C4B  144  18.661  17.492   8.081  0.1945  0.0423  0.0503
   10loPI    C1  145   1.581   8.510   9.587 -0.0004 -0.2498  0.1409
   10loPI    C2  146   1.323   8.334   9.837 -0.1138  0.0307  0.2247
   10loPI    C3  147   1.704   8.384   9.946 -0.1365  0.0500  0.2966
   10loPI   PO4  148   1.384   8.590   9.396  0.2010 -0.1540  0.0485
   10loPI   GL1  149   1.380   9.060   9.188  0.0370 -0.1795 -0.2378
   10loPI   GL2  150   1.200   8.804   8.971 -0.0387  0.0284 -0.2504
   10loPI   C1A  151   1.572   9.073   8.783  0.1393 -0.0039  0.2467
   10loPI   C2A  152   1.543   9.160   8.465 -0.3086  0.0272 -0.3046
   10loPI   C3A  153   1.726   9.207   8.027  0.1249 -0.1527 -0.2610
   10loPI   C4A  154   2.004   8.937   7.706 -0.1061 -0.0282 -0.0458
   10loPI   C5A  155   2.115   8.421   7.732  0.0098  0.1776 -0.1063
   10loPI   C6A  156   2.452   8.234   7.540 -0.0151  0.1500  0.0338
   10loPI   C1B  157   1.265   8.716   8.560  0.1192 -0.0495 -0.0643
   10loPI   C2B  158   1.207   8.704   8.127  0.2836  0.3802 -0.0290
   10loPI   C3B  159   1.298   8.973   7.835 -0.3487 -0.1013 -0.0531
   10loPI   C4B  160   1.102   9.151   7.398 -0.0024  0.1446 -0.1629
   11loPI    C1  161   1.732   0.833   9.572 -0.0482  0.0368  0.0341
   11loPI    C2  162   1.471   0.742   9.861 -0.0637 -0.1118 -0.0262
   11loPI    C3  163   1.342   0.899   9.517 -0.0284  0.2246  0.1108
   11loPI   PO4  164   1.934   0.625   9.577 -0.0891  0.0626  0.2095
   11loPI   GL1  165   2.204   0.455   9.322  0.0850  0.1512 -0.0154
   11loPI   GL2  166   2.226   0.189   9.388  0.2755 -0.2866  0.2253
   11loPI   C1A  167   2.223   0.570   8.861  0.2671  0.0518  0.3253
   11loPI   C2A  168   2.184   0.378   8.517  0.2252 -0.0565 -0.2008
   11loPI   C3A  169   2.212   0.211   8.166  0.1763 -0.2272  0.3749
   11loPI   C4A  170   2.300  -0.013   7.855 -0.1730  0.0180 -0.1834
   11loPI   C5A  171   2.255   0.088   7.369  0.0427  0.0128  0.0855
   11loPI   C6A  172   2.187   0.553   7.296 -0.0316 -0.4773 -0.0481
   11loPI   C1B  173   2.024   0.086   8.980 -0.1441  0.0861  0.1946
   11loPI   C2B  174   1.938  -0.091   8.500  0.4022 -0.0946 -0.3670
   11loPI   C3B  175   1.925  -0.276   8.122 -0.2981 -0.1329 -0.5838
   11loPI   C4B  176   1.764  -0.425   7.770  0.1917 -0.0610  0.0520
   12loPI    C1  177   7.308  19.014   9.661  0.0021 -0.3027 -0.0054
   12loPI    C2  178   7.313  18.849  10.025  0.0020  0.0667  0.1664
   12loPI    C3  179   7.360  19.245   9.984 -0.0541  0.0358 -0.2322
   12loPI   PO4  180   7.053  18.743   9.603 -0.3304 -0.0186 -0.0814
   12loPI   GL1  181   7.091  18.559   9.217 -0.3822  0.0404 -0.1251
   12loPI   GL2  182   7.370  18.769   9.220  0.0069 -0.3406  0.1223
   12loPI   C1A  183   7.185  18.364   8.853  0.0475  0.0491 -0.0971
   12loPI   C2A  184   7.585  18.292   8.565 -0.0031 -0.0726 -0.4637
   12loPI   C3A  185   7.674  18.400   8.250 -0.2687  0.1436  0.0439
   12loPI   C4A  186   7.530  18.223   7.900 -0.1799 -0.1720 -0.0371
   12loPI   C5A  187   7.266  17.980   7.540  0.1045  0.1588 -0.2216
   12loPI   C6A  188   7.102  18.164   7.305 -0.0712  0.0565 -0.0242
   12loPI   C1B  189   7.447  18.757   8.829  0.1574  0.2124  0.3119
   12loPI   C2B  190   7.350  18.741   8.397  0.3093  0.0951 -0.2352
   12loPI   C3B  191   7.349  18.780   7.949  0.0926  0.0693  0.0435
   12loPI   C4B  192   7.581  18.608   7.564  0.0275  0.0169 -0.1061
   13loPI    C1  193  11.359   9.507   9.695  0.0794  0.0493  0.0427
   13loPI    C2  194  11.154   9.570   9.357  0.3047 -0.2413 -0.1529
   13loPI    C3  195  11.083   9.797   9.679  0.0316 -0.0130 -0.3687
   13loPI   PO4  196  11.671   9.473   9.591  0.1638  0.2560  0.3109
   13loPI   GL1  197  11.845   9.614   9.154  0.3066 -0.2047  0.1861
   13loPI   GL2  198  11.582   9.761   9.100 -0.1413  0.1492 -0.1580
   13loPI   C1A  199  12.023   9.932   8.823 -0.0201 -0.0119  0.0230
   13loPI   C2A  200  12.119  10.217   8.473 -0.1801 -0.0989  0.1223
   13loPI   C3A  201  12.291  10.280   8.116  0.1826 -0.0490  0.0006
   13loPI   C4A  202  12.407  10.585   7.845  0.2114 -0.0534  0.0203
   13loPI   C5A  203  12.874  10.734   7.622  0.0472  0.0861  0.0294
   13loPI   C6A  204  13.160  11.115   7.635  0.0406  0.1032 -0.0908
   13loPI   C1B  205  11.666   9.711   8.620 -0.1519  0.0214  0.0853
   13loPI   C2B  206  11.917   9.724   8.302  0.3846 -0.2744  0.0032
   13loPI   C3B  207  11.962   9.833   7.875  0.2169  0.2403 -0.2305
   13loPI   C4B  208  12.328  10.056   7.609 -0.2743  0.0319  0.1917
   14loPI    C1  209   2.088  11.207  10.149  0.1306  0.1890 -0.5371
   14loPI    C2  210   2.299  11.538  10.228  0.0648  0.1186 -0.0325
   14loPI    C3  211   2.197  11.290  10.525 -0.2875 -0.1166 -0.3408
   14loPI   PO4  212   2.099  11.128   9.843 -0.0303 -0.0754  0.0245
   14loPI   GL1  213   1.866  11.127   9.450  0.0401  0.1155  0.0769
   14loPI   GL2  214   1.608  11.488   9.443 -0.1777 -0.3299  0.0753
   14loPI   C1A  215   1.942  10.897   9.022  0.0283 -0.0918 -0.0286
   14loPI   C2A  216   1.863  11.085   8.687 -0.0382  0.5195 -0.2143
   14loPI   C3A  217   1.601  11.329   8.385  0.0392  0.0095 -0.0538
   14loPI   C4A  218   1.245  11.518   8.286  0.2998  0.3992  0.3563
   14loPI   C5A  219   1.056  11.664   8.521 -0.0232  0.2300  0.0924
   14loPI   C6A  220   0.628  11.875   8.470 -0.1122 -0.1256 -0.1556
   14loPI   C1B  221   1.687  11.528   8.958  0.0980 -0.1553  0.0223
   14loPI   C2B  222   2.001  11.586   8.588 -0.0729  0.0088 -0.0239
   14loPI   C3B  223   2.048  11.406   8.107 -0.0105 -0.1387 -0.5240
   14loPI   C4B  224   1.985  11.623   7.795  0.0997  0.1014 -0.2646
   15loPI    C1  225  15.740  17.519   9.893  0.0420  0.1861 -0.1891
   15loPI    C2  226  15.652  17.869  10.065 -0.0326  0.1059 -0.0629
   15loPI    C3  227  15.661  17.534  10.285 -0.2150 -0.0108 -0.2303
   15loPI   PO4  228  15.620  17.639   9.591 -0.1907 -0.0463 -0.0676
   15loPI   GL1  229  15.736  18.059   9.356  0.0558 -0.2596  0.0596
   15loPI   GL2  230  15.747  18.305   9.254  0.1056  0.2065 -0.0900
   15loPI   C1A  231  15.705  17.835   8.998 -0.1344 -0.2911 -0.0247
   15loPI   C2A  232  15.329  17.620   8.971 -0.1511 -0.0692 -0.1848
   15loPI   C3A  233  15.049  17.503   8.646  0.0552 -0.0519  0.4351
   15loPI   C4A  234  14.994  17.489   8.158 -0.4383  0.1590  0.0104
   15loPI   C5A  235  15.000  17.411   7.658 -0.1291 -0.0232  0.1522
   15loPI   C6A  236  14.929  17.727   7.235  0.0437  0.2576  0.1032
   15loPI   C1B  237  15.731  18.329   8.795  0.2503 -0.0435 -0.0437
   15loPI   C2B  238  15.817  18.185   8.306  0.0950 -0.4424 -0.2867
   15loPI   C3B  239  15.853  17.860   8.016  0.0703 -0.0900 -0.3930
   15loPI   C4B  240  15.978  17.507   8.133  0.2453  0.4317  0.0503
   16loPI    C1  241  14.962   0.692   9.702 -0.2292  0.1009  0.0443
   16loPI    C2  242  15.192   0.907   9.949 -0.0581 -0.2655  0.2119
   16loPI    C3  243  14.959   1.092   9.681  0.2944  0.1175  0.1596
   16loPI   PO4  244  15.121   0.537   9.567  0.1944  0.2041 -0.1114
   16loPI   GL1  245  15.247   0.496   9.222 -0.1865 -0.0307 -0.3642
   16loPI   GL2  246  15.294   0.181   9.287 -0.0987 -0.1870  0.2921
   16loPI   C1A  247  15.277   0.711   8.760  0.0380 -0.1090 -0.2571
   16loPI   C2A  248  15.308   0.936   8.375 -0.0030 -0.0792 -0.1688
   16loPI   C3A  249  15.269   0.857   7.910 -0.3758 -0.0088  0.0741
   16loPI   C4A  250  15.223   1.038   7.471  0.3394 -0.0249 -0.2890
   16loPI   C5A  251  15.515   1.289   7.122  0.1049 -0.2731  0.0296
   16loPI   C6A  252  15.801   1.344   6.760  0.3014  0.0009  0.1006
   16loPI   C1B  253  15.313   0.187   8.834  0.2202 -0.0457  0.2056
   16loPI   C2B  254  15.170   0.259   8.353  0.2994  0.3316  0.1481
   16loPI   C3B  255  15.053   0.302   7.920 -0.2865  0.0480 -0.3843
   16loPI   C4B  256  14.988   0.508   7.508  0.2368 -0.0451 -0.1392
   17loPI    C1  257   1.256  10.126  10.091 -0.1767  0.0582  0.1349
   17loPI    C2  258   1.652  10.069  10.082 -0.1743  0.0588  0.2234
   17loPI    C3  259   1.503  10.417  10.209 -0.1970  0.1476 -0.0411
   17loPI   PO4  260   1.165   9.951   9.929 -0.1418  0.1549  0.1150
   17loPI   GL1  261   1.313   9.802   9.555  0.0482 -0.1805  0.0305
   17loPI   GL2  262   1.281   9.572   9.238 -0.0980  0.1907 -0.0364
   17loPI   C1A  263   1.017   9.995   9.274 -0.0609  0.0686 -0.0608
   17loPI   C2A  264   0.865  10.068   8.910 -0.2240  0.1224  0.0429
   17loPI   C3A  265   0.661  10.221   8.562  0.3264  0.0786  0.1341
   17loPI   C4A  266   0.475  10.297   8.155 -0.2530 -0.1448 -0.0398
   17loPI   C5A  267   0.515  10.291   7.753  0.0342  0.2429 -0.2888
   17loPI   C6A  268   0.344  10.465   7.443 -0.0697  0.0699  0.1324
   17loPI   C1B  269   1.308   9.524   8.825 -0.0524  0.1749  0.3207
   17loPI   C2B  270   1.372   9.642   8.329  0.0978  0.0852 -0.0960
   17loPI   C3B  271   1.329   9.448   7.953  0.2517 -0.2892  0.1431
   17loPI   C4B  272   1.532   9.443   7.587 -0.2402 -0.4984  0.3330
   18loPI    C1  273   9.053  14.994  10.013  0.1764  0.0024 -0.0623
   18loPI    C2  274   9.234  14.678   9.848 -0.0099 -0.0483 -0.1733
   18loPI    C3  275   8.843  14.663   9.932  0.0073  0.1077 -0.0600
   18loPI   PO4  276   9.258  15.200   9.858  0.0076 -0.1206 -0.0519
   18loPI   GL1  277   9.077  15.479   9.544 -0.1163  0.2124  0.2607
   18loPI   GL2  278   9.333  15.436   9.320  0.0121  0.2280 -0.3401
   18loPI   C1A  279   8.871  15.466   9.166  0.1473 -0.0401  0.3325
   18loPI   C2A  280   8.838  15.277   8.819  0.1124  0.1785  0.0825
   18loPI   C3A  281   8.735  14.952   8.585  0.2330  0.1164  0.1688
   18loPI   C4A  282   8.895  14.940   8.174  0.1868  0.2743  0.0111
   18loPI   C5A  283   9.041  14.630   7.869  0.0068 -0.0545  0.0458
   18loPI   C6A  284   9.297  14.393   7.963 -0.1239 -0.1164  0.0969
   18loPI   C1B  285   9.362  15.372   8.876  0.2363 -0.0218  0.0612
   18loPI   C2B  286   9.124  15.342   8.363 -0.2925  0.3334  0.0725
   18loPI   C3B  287   9.296  15.193   7.974  0.0773  0.0890  0.1166
   18loPI   C4B  288   9.394  14.971   7.584 -0.1231  0.0603 -0.0988
   19loPI    C1  289  14.038   8.875   9.877 -0.1014  0.3451 -0.0292
   19loPI    C2  290  13.682   8.962   9.717 -0.2316  0.0469  0.0916
   19loPI    C3  291  13.726   8.953  10.114 -0.1318 -0.0796  0.0784
   19loPI   PO4  292  14.098   8.651   9.706 -0.1576  0.0323  0.2403
   19loPI   GL1  293  13.935   8.445   9.417  0.0272  0.4488 -0.1626
   19loPI   GL2  294  13.726   8.422   9.188 -0.1813 -0.2317 -0.3727
   19loPI   C1A  295  14.191   8.242   9.193 -0.1926 -0.0622 -0.0819
   19loPI   C2A  296  14.448   8.416   8.846 -0.0393  0.2016 -0.2048
   19loPI   C3A  297  14.592   8.515   8.379 -0.0973  0.3410  0.2781
   19loPI   C4A  298  14.846   8.542   8.114 -0.0109 -0.4481 -0.1784
   19loPI   C5A  299  15.051   8.310   7.816  0.3149 -0.2797 -0.1102
   19loPI   C6A  300  15.182   8.346   7.346  0.1057 -0.2346 -0.0450
   19loPI   C1B  301  13.929   8.700   9.009  0.1075 -0.0572 -0.3379
   19loPI   C2B  302  13.959   8.562   8.648  0.0510 -0.0010  0.1699
   19loPI   C3B  303  14.028   8.691   8.259 -0.0500 -0.0890  0.0491
   19loPI   C4B  304  14.113   8.801   7.871 -0.0798 -0.0757 -0.2118
   20loPI    C1  305  10.644   5.002   9.775  0.3705 -0.1495 -0.0114
   20loPI    C2  306  10.601   5.190  10.125  0.2498  0.0419 -0.1273
   20loPI    C3  307  10.695   4.802  10.118  0.4958  0.0935  0.1146
   20loPI   PO4  308  10.423   5.075   9.686 -0.2422 -0.0827  0.2234
   20loPI   GL1  309  10.387   5.081   9.235  0.2689  0.0673 -0.0765
   20loPI   GL2  310  10.612   5.208   9.252 -0.0756  0.1186 -0.1419
   20loPI   C1A  311  10.266   5.254   8.849 -0.1388 -0.3319  0.1975
   20loPI   C2A  312  10.134   5.354   8.452  0.0791  0.0610  0.1322
   20loPI   C3A  313  10.062   5.253   8.111  0.0009 -0.3281 -0.0656
   20loPI   C4A  314   9.844   5.254   7.728 -0.1892  0.0565 -0.2167
   20loPI   C5A  315   9.864   5.590   7.460  0.0533 -0.1097  0.0249
   20loPI   C6A  316   9.634   5.542   7.049  0.0231  0.2169  0.0224
   20loPI   C1B  317  10.801   5.042   8.843  0.0241  0.4006  0.0503
   20loPI   C2B  318  10.907   5.102   8.432  0.0581  0.0908  0.0924
   20loPI   C3B  319  10.869   5.316   8.053  0.1494  0.1687  0.1612
   20loPI   C4B  320  10.937   5.436   7.625  0.0951  0.1388 -0.2212
   21loPI    C1  321  17.462   9.524  10.030  0.0937 -0.1747 -0.0528
   21loPI    C2  322  17.591   9.146  10.057  0.3842 -0.0653  0.1308
   21loPI    C3  323  17.659   9.403  10.356  0.1185  0.1133  0.0416
   21loPI   PO4  324  17.247   9.509   9.825 -0.2222 -0.0363  0.1354
   21loPI   GL1  325  17.240   9.582   9.343 -0.1000 -0.0105  0.3026
   21loPI   GL2  326  17.073   9.230   9.316 -0.0787 -0.0078  0.0357
   21loPI   C1A  327  16.964   9.808   9.011  0.2130  0.6622 -0.0517
   21loPI   C2A  328  16.953   9.922   8.499 -0.0118  0.0558  0.1130
   21loPI   C3A  329  17.042  10.157   8.188 -0.1675 -0.0782  0.0401
   21loPI   C4A  330  16.907  10.357   7.903 -0.1624  0.0742  0.5135
   21loPI   C5A  331  16.680  10.600   7.964 -0.0176 -0.1622  0.1444
   21loPI   C6A  332  16.609  10.874   8.225 -0.1141  0.1686  0.2158
   21loPI   C1B  333  16.862   9.267   8.958  0.2160 -0.0326  0.0604
   21loPI   C2B  334  16.838   9.372   8.555 -0.2286  0.0731 -0.0655
   21loPI   C3B  335  16.903   9.558   8.070 -0.2269  0.2263 -0.1642
   21loPI   C4B  336  16.742   9.878   7.857  0.4381  0.1932  0.1342
   22loPI    C1  337   0.565  10.643   9.380  0.2124 -0.0981  0.1601
   22loPI    C2  338   0.408  10.552   9.737 -0.1724  0.1791  0.0685
   22loPI    C3  339   0.741  10.773   9.715 -0.0099 -0.0408  0.2568
   22loPI   PO4  340   0.467  10.405   9.224  0.0966  0.0468 -0.1564
   22loPI   GL1  341   0.150  10.463   8.920 -0.2609  0.0026  0.1800
   22loPI   GL2  342   0.015  10.146   8.968  0.3182 -0.1938 -0.0357
   22loPI   C1A  343  -0.264  10.587   8.649  0.1268  0.4326 -0.1255
   22loPI   C2A  344  -0.091  10.607   8.290  0.1831 -0.1013 -0.3424
   22loPI   C3A  345   0.269  10.805   8.013  0.1041  0.0293 -0.1870
   22loPI   C4A  346   0.354  10.902   7.583 -0.0876 -0.0463 -0.1326
   22loPI   C5A  347   0.627  10.842   7.217 -0.2663  0.0082  0.3166
   22loPI   C6A  348   1.002  10.631   7.029 -0.1671  0.0008 -0.0945
   22loPI   C1B  349   0.443   9.860   8.800 -0.2868  0.2666  0.0980
   22loPI   C2B  350   0.436   9.832   8.342 -0.2741 -0.2765 -0.3433
   22loPI   C3B  351   0.127   9.932   7.967 -0.0231  0.1410 -0.5283
   22loPI   C4B  352  -0.005  10.287   7.912 -0.2282  0.1971 -0.1572
   23loPI    C1  353   0.387  17.772  10.407 -0.0396  0.0925 -0.0429
   23loPI    C2  354   0.753  17.804  10.564 -0.0828 -0.1450  0.1109
   23loPI    C3  355   0.493  17.541  10.715 -0.3136  0.0122 -0.0063
   23loPI   PO4  356   0.361  17.771  10.186 -0.1692 -0.0364 -0.0175
   23loPI   GL1  357   0.388  17.682   9.768  0.0216  0.0142  0.0507
   23loPI   GL2  358   0.478  17.915   9.534 -0.0511 -0.2333  0.1279
   23loPI   C1A  359   0.311  17.425   9.414 -0.2278 -0.0258  0.0604
   23loPI   C2A  360   0.197  17.257   8.950 -0.0237 -0.1265 -0.1018
   23loPI   C3A  361   0.264  17.134   8.488 -0.0341  0.3465 -0.3642
   23loPI   C4A  362   0.205  17.139   8.056 -0.4020 -0.1438  0.2353
   23loPI   C5A  363  -0.157  17.209   7.871  0.0003  0.0785  0.0770
   23loPI   C6A  364  -0.394  17.011   7.931  0.4162  0.0547 -0.1863
   23loPI   C1B  365   0.201  17.796   9.158  0.1520  0.0664 -0.4363
   23loPI   C2B  366   0.344  17.705   8.774 -0.0826  0.1810 -0.0025
   23loPI   C3B  367   0.289  17.625   8.288  0.0005 -0.0547  0.0547
   23loPI   C4B  368   0.199  17.565   7.931  0.2842 -0.0773 -0.2198
   24loPI    C1  369   1.184   5.942  10.185 -0.0457 -0.0457 -0.0782
   24loPI    C2  370   1.376   6.144  10.472 -0.1785  0.1490 -0.1240
   24loPI    C3  371   1.343   5.746  10.495  0.1923  0.1164 -0.0952
   24loPI   PO4  372   1.271   5.883   9.833 -0.0182 -0.1348  0.4443
   24loPI   GL1  373   1.267   5.727   9.481  0.2166  0.2175 -0.0365
   24loPI   GL2  374   1.224   5.377   9.380  0.2571  0.0108 -0.2063
   24loPI   C1A  375   1.402   5.767   9.058  0.1212  0.0415 -0.1031
   24loPI   C2A  376   1.516   5.875   8.696 -0.0735  0.0022 -0.1931
   24loPI   C3A  377   1.481   5.763   8.249  0.2330 -0.3609 -0.2211
   24loPI   C4A  378   1.239   5.600   7.949  0.1182 -0.1313 -0.0385
   24loPI   C5A  379   0.927   5.785   7.676  0.0615  0.1510 -0.0550
   24loPI   C6A  380   0.593   6.080   7.425 -0.0139  0.0407 -0.1571
   24loPI   C1B  381   0.985   5.324   8.898 -0.3823  0.1055 -0.2051
   24loPI   C2B  382   0.935   5.158   8.484  0.1064 -0.1914  0.3491
   24loPI   C3B  383   1.054   4.988   8.088  0.1296  0.1910  0.3723
   24loPI   C4B  384   1.349   4.719   7.894  0.1026  0.2242  0.0043
   25loPI    C1  385  15.590  11.408  10.386  0.0952 -0.3376  0.1953
   25loPI    C2  386  15.284  11.558  10.595  0.0525 -0.2381  0.0624
   25loPI    C3  387  15.611  11.779  10.533 -0.0291 -0.1796 -0.1734
   25loPI   PO4  388  15.478  11.356  10.128  0.1300 -0.0407  0.1466
   25loPI   GL1  389  15.683  11.460   9.763 -0.3938 -0.2319  0.3788
   25loPI   GL2  390  15.960  11.500   9.755  0.1106  0.0849 -0.1287
   25loPI   C1A  391  15.582  11.139   9.473  0.2157 -0.0531  0.1569
   25loPI   C2A  392  15.361  10.888   9.185 -0.1891  0.1717 -0.0341
   25loPI   C3A  393  15.280  10.643   8.760  0.1446  0.0803  0.1147
   25loPI   C4A  394  15.225  10.870   8.242  0.0120  0.1333  0.1998
   25loPI   C5A  395  15.264  10.898   7.857 -0.2711  0.4302  0.1478
   25loPI   C6A  396  15.290  11.104   7.464  0.0326  0.0915  0.0799
   25loPI   C1B  397  15.870  11.528   9.318  0.3777  0.2812  0.1597
   25loPI   C2B  398  15.577  11.464   9.033 -0.0269  0.1364  0.0528
   25loPI   C3B  399  15.393  11.603   8.574 -0.0449  0.1597  0.2789
   25loPI   C4B  400  15.290  11.796   8.176  0.1925 -0.0717 -0.0437
   26loPI    C1  401   8.871   2.106   9.577  0.1528  0.0328 -0.0146
   26loPI    C2  402   8.558   2.249   9.780 -0.0734 -0.1808 -0.2076
   26loPI    C3  403   8.886   2.131   9.976 -0.1304 -0.0004 -0.0002
   26loPI   PO4  404   8.783   2.201   9.306 -0.1137 -0.2879  0.1433
   26loPI   GL1  405   8.476   2.339   9.106  0.3890 -0.0480  0.0645
   26loPI   GL2  406   8.768   2.463   8.841 -0.1087  0.1145  0.0870
   26loPI   C1A  407   8.339   2.306   8.683  0.0407  0.0420  0.0411
   26loPI   C2A  408   8.253   2.141   8.240 -0.1136 -0.0588 -0.3523
   26loPI   C3A  409   8.063   2.370   7.987 -0.2931 -0.0302 -0.2190
   26loPI   C4A  410   8.366   2.525   7.712 -0.1516 -0.1249  0.0047
   26loPI   C5A  411   8.619   2.319   7.463  0.0178  0.1038  0.3187
   26loPI   C6A  412   9.077   2.132   7.462 -0.0671 -0.0476  0.1441
   26loPI   C1B  413   8.737   2.287   8.469  0.0006 -0.2793 -0.0081
   26loPI   C2B  414   8.753   2.142   8.043 -0.0906 -0.0853 -0.1691
   26loPI   C3B  415   8.668   1.901   7.671 -0.2196  0.0192 -0.0992
   26loPI   C4B  416   8.595   1.538   7.363  0.0722  0.1831  0.1200
   27loPI    C1  417   9.199   1.271   9.707 -0.0026  0.1411 -0.0921
   27loPI    C2  418   9.160   1.225  10.103 -0.1047  0.2086 -0.0939
   27loPI    C3  419   9.470   1.431   9.955  0.1421 -0.1352 -0.0682
   27loPI   PO4  420   8.973   1.224   9.551  0.0307 -0.1157 -0.0759
   27loPI   GL1  421   8.861   1.238   9.034 -0.2221 -0.0976  0.1317
   27loPI   GL2  422   8.860   1.020   9.134 -0.2149 -0.3073  0.0760
   27loPI   C1A  423   8.895   1.310   8.651 -0.0700  0.2827  0.1389
   27loPI   C2A  424   8.915   1.257   8.189  0.1130  0.2214 -0.2219
   27loPI   C3A  425   8.948   1.299   7.701  0.1931  0.1194  0.2264
   27loPI   C4A  426   9.201   1.235   7.275 -0.0646 -0.0090  0.1879
   27loPI   C5A  427   9.605   1.409   7.334 -0.2134  0.0043 -0.0698
   27loPI   C6A  428   9.944   1.561   7.349  0.0863 -0.0329  0.2528
   27loPI   C1B  429   8.765   0.831   8.728 -0.0784  0.0469 -0.1901
   27loPI   C2B  430   8.400   0.790   8.402 -0.1530  0.3688 -0.0201
   27loPI   C3B  431   8.220   0.770   7.972  0.2794  0.2336 -0.0354
   27loPI   C4B  432   8.401   0.501   7.605 -0.0284  0.1009 -0.0065
   28loPI    C1  433  10.141  13.377  10.108  0.1394  0.1912 -0.0875
   28loPI    C2  434  10.508  13.457  10.246  0.1997 -0.1279 -0.0548
   28loPI    C3  435  10.237  13.284  10.485  0.0811 -0.0465 -0.1292
   28loPI   PO4  436  10.014  13.531   9.986 -0.3221  0.0141  0.1197
   28loPI   GL1  437  10.020  13.620   9.524  0.2528 -0.0038 -0.0146
   28loPI   GL2  438   9.926  13.268   9.526 -0.1016 -0.2015 -0.2052
   28loPI   C1A  439  10.025  13.574   9.060 -0.1524 -0.0945  0.0512
   28loPI   C2A  440   9.971  13.454   8.637 -0.1005 -0.0399  0.2337
   28loPI   C3A  441  10.041  13.151   8.414 -0.3262 -0.3963 -0.2760
   28loPI   C4A  442  10.322  12.987   8.080  0.0537  0.0412  0.0923
   28loPI   C5A  443  10.638  12.687   7.956 -0.1576 -0.0927 -0.2643
   28loPI   C6A  444  11.015  12.551   8.010 -0.1016 -0.1949 -0.0445
   28loPI   C1B  445  10.239  13.142   9.371  0.1264  0.0410  0.0279
   28loPI   C2B  446  10.279  13.093   9.017 -0.2784 -0.0460 -0.2331
   28loPI   C3B  447  10.392  12.775   8.685  0.3199  0.0455 -0.2326
   28loPI   C4B  448  10.699  12.502   8.407  0.2194 -0.1613 -0.7982
   29loPI    C1  449   4.503  10.231  10.048  0.1591 -0.3424  0.1964
   29loPI    C2  450   4.125  10.120  10.116 -0.0313  0.1995  0.0737
   29loPI    C3  451   4.402  10.067  10.399 -0.1242 -0.4806  0.0536
   29loPI   PO4  452   4.451  10.416   9.851  0.0393 -0.0561  0.0227
   29loPI   GL1  453   4.488  10.466   9.372  0.0045 -0.0913 -0.0693
   29loPI   GL2  454   4.353  10.151   9.421  0.0903 -0.0525 -0.1300
   29loPI   C1A  455   4.393  10.596   8.950  0.3134  0.0201  0.0972
   29loPI   C2A  456   4.358  10.598   8.606 -0.0227  0.0119  0.0260
   29loPI   C3A  457   4.237  10.502   8.132  0.1801  0.1017  0.1703
   29loPI   C4A  458   4.080  10.462   7.738  0.0583 -0.0212  0.0998
   29loPI   C5A  459   3.909  10.575   7.315 -0.1048 -0.4294 -0.0751
   29loPI   C6A  460   3.748  10.214   7.077 -0.0705 -0.0743 -0.3885
   29loPI   C1B  461   4.265   9.786   9.106  0.3027  0.0836  0.0197
   29loPI   C2B  462   4.174   9.622   8.609 -0.2065  0.1071  0.0228
   29loPI   C3B  463   3.932   9.663   8.222 -0.0029 -0.0804  0.2252
   29loPI   C4B  464   3.879   9.590   7.714 -0.1869 -0.0003 -0.1716
   30loPI    C1  465  12.858   6.412   9.650  0.0037  0.1253 -0.0019
   30loPI    C2  466  12.805   6.120   9.918  0.0343  0.2406  0.1308
   30loPI    C3  467  12.696   6.495  10.006  0.0521  0.2806 -0.0152
   30loPI   PO4  468  13.066   6.196   9.482  0.2608 -0.2903 -0.1428
   30loPI   GL1  469  13.260   5.978   9.070 -0.3522  0.2588  0.0579
   30loPI   GL2  470  13.264   6.335   9.025  0.1791 -0.2063 -0.0815
   30loPI   C1A  471  13.285   5.968   8.610  0.3705  0.0145  0.0398
   30loPI   C2A  472  13.386   6.090   8.179 -0.1662  0.2001 -0.0394
   30loPI   C3A  473  13.639   6.338   7.854  0.1263  0.0092 -0.1437
   30loPI   C4A  474  13.608   6.210   7.439 -0.4625 -0.1989  0.0005
   30loPI   C5A  475  13.908   6.099   7.142 -0.1125  0.1082 -0.4811
   30loPI   C6A  476  14.160   6.005   6.796  0.1517 -0.2413  0.2129
   30loPI   C1B  477  13.658   6.407   8.738 -0.2735 -0.2942 -0.2767
   30loPI   C2B  478  13.905   6.507   8.305  0.0385  0.0409 -0.1241
   30loPI   C3B  479  13.920   6.728   7.941  0.0301  0.0873  0.2651
   30loPI   C4B  480  13.958   6.642   7.469  0.0651  0.1019 -0.1486
   31loPI    C1  481  16.176  16.707  10.189  0.1195  0.0410 -0.2429
   31loPI    C2  482  16.223  16.351  10.014 -0.2255 -0.1185 -0.0239
   31loPI    C3  483  16.267  16.386  10.410 -0.1359  0.0969 -0.0512
   31loPI   PO4  484  16.367  16.917  10.043 -0.0654 -0.3796  0.2621
   31loPI   GL1  485  16.387  16.861   9.565  0.1426 -0.2039  0.1881
   31loPI   GL2  486  16.083  16.702   9.645 -0.3086 -0.3736 -0.2111
   31loPI   C1A  487  16.176  17.020   9.187  0.1665 -0.1178 -0.0573
   31loPI   C2A  488  15.930  16.887   8.782  0.0158  0.1241 -0.4577
   31loPI   C3A  489  15.784  16.809   8.416  0.0160  0.1204 -0.1046
   31loPI   C4A  490  15.821  16.856   7.972 -0.2011  0.2112  0.1646
   31loPI   C5A  491  15.627  17.244   7.815 -0.1876 -0.1228 -0.0574
   31loPI   C6A  492  15.408  17.664   7.853 -0.0067 -0.1521  0.1270
   31loPI   C1B  493  15.877  16.578   9.363 -0.1301 -0.2293 -0.3410
   31loPI   C2B  494  15.637  16.655   9.081 -0.0143 -0.0706  0.0600
   31loPI   C3B  495  15.429  16.971   8.821  0.0357 -0.1722 -0.1917
   31loPI   C4B  496  15.220  17.067   8.378 -0.1404  0.1452 -0.0249
   32loPI    C1  497  15.419   5.642   9.527 -0.1771  0.0449  0.1876
   32loPI    C2  498  15.570   5.937   9.751  0.1134  0.0483 -0.0072
   32loPI    C3  499  15.630   5.555   9.856  0.2855  0.0491 -0.0987
   32loPI   PO4  500  15.499   5.700   9.251 -0.4431  0.0661  0.0497
   32loPI   GL1  501  15.738   5.887   8.919 -0.1172  0.1793  0.0274
   32loPI   GL2  502  15.533   6.132   8.917  0.4504  0.1052 -0.1144
   32loPI   C1A  503  15.658   5.892   8.486  0.0284  0.0021 -0.4437
   32loPI   C2A  504  15.714   6.170   8.203 -0.0039  0.1249  0.2681
   32loPI   C3A  505  15.740   6.484   7.882 -0.0386 -0.0891  0.1661
   32loPI   C4A  506  15.671   6.710   7.521  0.0067  0.3730  0.2846
   32loPI   C5A  507  15.523   6.679   7.166 -0.4309 -0.0403 -0.0794
   32loPI   C6A  508  15.743   6.837   6.903  0.2183 -0.0646  0.1608
   32loPI   C1B  509  15.667   6.358   8.632  0.1064 -0.0126 -0.1583
   32loPI   C2B  510  15.320   6.473   8.253 -0.1697 -0.1343  0.1118
   32loPI   C3B  511  15.238   6.467   7.893 -0.1605 -0.0815 -0.3288
   32loPI   C4B  512  15.349   6.321   7.573 -0.1134  0.0929 -0.1506
   33loPI    C1  513   4.366  18.882   9.809 -0.0561  0.1185  0.1332
   33loPI    C2  514   4.508  19.050   9.475 -0.0541 -0.1164  0.0142
   33loPI    C3  515   4.609  19.199   9.832 -0.1364  0.1977 -0.0910
   33loPI   PO4  516   4.155  18.670   9.626  0.2360  0.0655  0.1408
   33loPI   GL1  517   3.937  18.932   9.215  0.0704  0.4131 -0.0999
   33loPI   GL2  518   4.183  18.735   9.114  0.0249 -0.1795 -0.1914
   33loPI   C1A  519   3.852  19.069   8.899  0.3765  0.2520 -0.0673
   33loPI   C2A  520   3.614  18.919   8.595  0.0639  0.3233 -0.0071
   33loPI   C3A  521   3.579  18.926   8.147  0.1656 -0.0131  0.0812
   33loPI   C4A  522   3.575  18.967   7.700  0.1523 -0.1930  0.2022
   33loPI   C5A  523   3.722  18.962   7.296  0.0865 -0.3728 -0.0920
   33loPI   C6A  524   3.968  19.213   7.074  0.0854 -0.0311  0.2326
   33loPI   C1B  525   3.974  18.593   8.747  0.2113  0.1307  0.0729
   33loPI   C2B  526   3.920  18.588   8.294 -0.1578  0.2011 -0.3527
   33loPI   C3B  527   4.086  18.709   7.846  0.0993 -0.0646  0.0194
   33loPI   C4B  528   4.331  18.484   7.587  0.3341 -0.1240  0.0769
   34loPI    C1  529   9.571   3.876   9.561 -0.0810 -0.0474  0.1595
   34loPI    C2  530   9.399   3.613   9.314 -0.1229  0.0643  0.0687
   34loPI    C3  531   9.251   3.669   9.682  0.0965 -0.2927  0.2164
   34loPI   PO4  532   9.747   3.973   9.359 -0.3791 -0.2125 -0.0365
   34loPI   GL1  533  10.025   3.755   9.059 -0.1780 -0.0459 -0.0667
   34loPI   GL2  534  10.302   3.756   9.159 -0.0245  0.0648 -0.0613
   34loPI   C1A  535  10.086   3.833   8.604  0.3240  0.3462  0.1800
   34loPI   C2A  536  10.194   3.848   8.147  0.0508  0.1945 -0.2727
   34loPI   C3A  537  10.253   3.808   7.723  0.2331 -0.1649 -0.0854
   34loPI   C4A  538  10.124   3.546   7.326  0.0277  0.0323  0.0847
   34loPI   C5A  539  10.248   3.340   6.929  0.0526  0.1598  0.0102
   34loPI   C6A  540  10.007   2.962   6.730  0.0024 -0.2446  0.0988
   34loPI   C1B  541  10.237   3.357   8.886 -0.0668  0.2834  0.0978
   34loPI   C2B  542  10.214   3.286   8.342 -0.0833  0.4086  0.0316
   34loPI   C3B  543  10.212   3.342   7.887  0.0175 -0.0258 -0.2513
   34loPI   C4B  544  10.474   3.147   7.502 -0.1041 -0.0952  0.0813
   35loPI    C1  545  14.294   9.627  10.137 -0.2371 -0.2275  0.4949
   35loPI    C2  546  13.960   9.791   9.992 -0.0601 -0.1205  0.1992
   35loPI    C3  547  14.017   9.396   9.966 -0.0920 -0.1191  0.1021
   35loPI   PO4  548  14.508   9.796   9.994 -0.1005 -0.1533  0.0873
   35loPI   GL1  549  14.476   9.782   9.606  0.1812 -0.3905  0.4062
   35loPI   GL2  550  14.384   9.539   9.557  0.1247  0.2521  0.0011
   35loPI   C1A  551  14.533   9.859   9.138  0.1325 -0.3058 -0.1866
   35loPI   C2A  552  14.719   9.941   8.773 -0.0836 -0.3402 -0.2079
   35loPI   C3A  553  14.825   9.981   8.295  0.1920 -0.1799  0.0771
   35loPI   C4A  554  15.083   9.862   7.962  0.2011 -0.1016 -0.1593
   35loPI   C5A  555  15.165   9.699   7.478 -0.0403  0.2787 -0.1948
   35loPI   C6A  556  15.009   9.781   7.091 -0.0764  0.1360 -0.1604
   35loPI   C1B  557  14.707   9.257   9.258 -0.2456  0.0297 -0.0985
   35loPI   C2B  558  14.764   9.035   8.910  0.2495 -0.4087  0.0331
   35loPI   C3B  559  14.848   9.002   8.428 -0.0660 -0.0605  0.0921
   35loPI   C4B  560  15.118   8.951   8.096 -0.0424  0.1929 -0.0253
   36loPI    C1  561   6.434   2.853   9.648 -0.1913 -0.0156 -0.2253
   36loPI    C2  562   6.056   2.789   9.760 -0.1584  0.0628 -0.0659
   36loPI    C3  563   6.356   2.644   9.980 -0.0935  0.1455 -0.0996
   36loPI   PO4  564   6.433   2.954   9.449 -0.1346 -0.0821  0.2755
   36loPI   GL1  565   6.712   2.671   9.099 -0.0145 -0.2176 -0.2305
   36loPI   GL2  566   6.640   3.100   9.020  0.2429 -0.0786  0.0506
   36loPI   C1A  567   6.485   2.463   8.786 -0.1695  0.3178  0.1413
   36loPI   C2A  568   6.264   2.422   8.348 -0.2598 -0.0585 -0.0808
   36loPI   C3A  569   5.902   2.154   8.066  0.0880 -0.2401  0.0048
   36loPI   C4A  570   6.010   1.954   7.646 -0.1590 -0.3039 -0.5257
   36loPI   C5A  571   6.119   2.220   7.349  0.0084 -0.1260 -0.1748
   36loPI   C6A  572   6.517   2.421   7.192 -0.2200 -0.1520  0.1632
   36loPI   C1B  573   6.316   2.935   8.826  0.1047 -0.0060  0.0916
   36loPI   C2B  574   6.172   2.967   8.472  0.1220 -0.1320 -0.0847
   36loPI   C3B  575   6.179   2.854   8.000  0.2440 -0.0623 -0.1290
   36loPI   C4B  576   6.118   2.812   7.597  0.0177  0.0658  0.4030
   37loPI    C1  577  17.607  12.880   9.910  0.0679  0.2065 -0.1525
   37loPI    C2  578  17.243  12.925   9.751 -0.0063  0.2473  0.0256
   37loPI    C3  579  17.284  12.751  10.108  0.1704  0.0303 -0.0976
   37loPI   PO4  580  17.690  12.690   9.672 -0.0138 -0.1085  0.0218
   37loPI   GL1  581  17.607  12.343   9.323 -0.3053  0.0819  0.4034
   37loPI   GL2  582  17.732  12.046   9.220  0.0022  0.1918 -0.0760
   37loPI   C1A  583  17.805  12.459   9.005  0.1002 -0.0395 -0.0792
   37loPI   C2A  584  17.995  12.598   8.583  0.0757 -0.4935  0.2198
   37loPI   C3A  585  17.994  12.636   8.114  0.2706 -0.2616 -0.2471
   37loPI   C4A  586  18.185  12.420   7.854 -0.3075 -0.0636  0.1501
   37loPI   C5A  587  18.469  12.374   7.555 -0.0135 -0.3523 -0.0340
   37loPI   C6A  588  18.759  12.310   7.182  0.1677  0.3674 -0.3250
   37loPI   C1B  589  17.874  12.039   8.768 -0.0485  0.0372 -0.0363
   37loPI   C2B  590  17.888  12.145   8.300  0.0294 -0.2520 -0.3062
   37loPI   C3B  591  17.766  12.110   7.797  0.0668 -0.1685 -0.3000
   37loPI   C4B  592  18.014  12.229   7.446 -0.0485  0.2222 -0.0824
   38loPI    C1  593   2.903   5.705   9.915  0.0927 -0.1630  0.0210
   38loPI    C2  594   2.816   5.430  10.193 -0.0160 -0.1731 -0.0224
   38loPI    C3  595   2.878   5.811  10.300  0.2787 -0.2401  0.0554
   38loPI   PO4  596   3.059   5.607   9.764  0.2917 -0.1131 -0.3431
   38loPI   GL1  597   3.192   5.422   9.466 -0.0434  0.4113  0.0478
   38loPI   GL2  598   3.101   5.216   9.281  0.0526 -0.1566 -0.1014
   38loPI   C1A  599   3.466   5.539   9.157 -0.1437 -0.0333 -0.0284
   38loPI   C2A  600   3.586   5.690   8.794 -0.0735  0.0573  0.0011
   38loPI   C3A  601   3.554   5.718   8.388  0.5260  0.2338 -0.4727
   38loPI   C4A  602   3.359   5.661   7.992  0.2992  0.0791 -0.1634
   38loPI   C5A  603   3.185   5.759   7.477 -0.1356  0.1359  0.1472
   38loPI   C6A  604   2.869   5.508   7.210 -0.2107 -0.4687  0.0128
   38loPI   C1B  605   3.013   5.458   8.931 -0.1034  0.2025  0.1501
   38loPI   C2B  606   3.066   5.531   8.552  0.4087 -0.1363  0.1527
   38loPI   C3B  607   2.873   5.495   8.081 -0.3420  0.3208 -0.3970
   38loPI   C4B  608   2.657   5.463   7.682  0.1838  0.0416  0.0514
   39loPI    C1  609  16.237   6.667   9.544  0.3204 -0.0212  0.1614
   39loPI    C2  610  15.948   6.437   9.697  0.0224  0.3395  0.1547
   39loPI    C3  611  16.281   6.507   9.908 -0.1234  0.3446  0.3865
   39loPI   PO4  612  16.292   6.612   9.361  0.0520 -0.0527  0.1447
   39loPI   GL1  613  16.528   6.791   9.016  0.0029  0.1701  0.1084
   39loPI   GL2  614  16.387   7.018   8.972  0.2683  0.2908 -0.3483
   39loPI   C1A  615  16.602   6.666   8.544 -0.5259 -0.3613 -0.0444
   39loPI   C2A  616  16.437   6.827   8.196  0.1820  0.0336  0.2289
   39loPI   C3A  617  16.167   6.685   7.804 -0.0135  0.0652  0.0457
   39loPI   C4A  618  16.167   6.641   7.390  0.0520  0.0844  0.1715
   39loPI   C5A  619  15.988   6.315   7.288 -0.3866 -0.2135  0.3649
   39loPI   C6A  620  15.718   6.064   7.609 -0.0940 -0.0215 -0.0146
   39loPI   C1B  621  16.545   7.165   8.510  0.1243 -0.2894 -0.1545
   39loPI   C2B  622  16.368   7.303   8.187  0.0068  0.0935  0.0042
   39loPI   C3B  623  16.194   7.595   7.891 -0.0780 -0.0116 -0.1825
   39loPI   C4B  624  15.886   7.611   7.519  0.1354 -0.0045  0.0356
   40loPI    C1  625   9.748  18.046   9.779  0.0678  0.1420  0.0060
   40loPI    C2  626  10.004  18.129  10.075  0.0311 -0.0209  0.0846
   40loPI    C3  627   9.812  18.425   9.887  0.3854  0.1137 -0.0729
   40loPI   PO4  628   9.869  17.812   9.672  0.0177 -0.1036 -0.4611
   40loPI   GL1  629   9.946  17.873   9.256  0.2761 -0.2146 -0.2696
   40loPI   GL2  630   9.928  17.487   9.235 -0.0480 -0.0157 -0.1282
   40loPI   C1A  631   9.893  18.161   8.908 -0.1528 -0.3371  0.0871
   40loPI   C2A  632   9.797  18.339   8.465 -0.1233  0.2524 -0.0169
   40loPI   C3A  633   9.668  18.188   8.049 -0.2651  0.3045 -0.0450
   40loPI   C4A  634   9.847  17.834   7.772  0.1586 -0.0371 -0.0355
   40loPI   C5A  635  10.027  17.906   7.400 -0.1876 -0.1373 -0.0259
   40loPI   C6A  636  10.300  18.084   7.134 -0.0945  0.0657 -0.2186
   40loPI   C1B  637   9.815  17.335   8.776  0.1082 -0.2365  0.0023
   40loPI   C2B  638  10.081  17.223   8.595  0.2832 -0.3795 -0.2271
   40loPI   C3B  639   9.893  17.066   8.301 -0.1036 -0.3743 -0.0047
   40loPI   C4B  640   9.560  16.810   8.474 -0.0979 -0.3341 -0.1856
   41loPI    C1  641   1.237   4.358  10.043 -0.0378  0.1697 -0.2045
   41loPI    C2  642   1.349   4.742  10.064  0.1326  0.1057  0.1380
   41loPI    C3  643   1.183   4.564  10.382  0.3046 -0.1793  0.0719
   41loPI   PO4  644   1.163   4.324   9.804 -0.1643 -0.1157  0.1176
   41loPI   GL1  645   1.399   4.351   9.481  0.1665  0.0361 -0.0530
   41loPI   GL2  646   1.669   4.155   9.451 -0.0786  0.1444 -0.0028
   41loPI   C1A  647   1.368   4.387   9.060 -0.0565  0.2032 -0.0346
   41loPI   C2A  648   1.532   4.302   8.581  0.4155 -0.4251 -0.1221
   41loPI   C3A  649   1.542   4.441   8.280 -0.0096 -0.3571 -0.1043
   41loPI   C4A  650   1.769   4.367   7.904 -0.2038 -0.1509  0.2301
   41loPI   C5A  651   1.482   4.301   7.578  0.1647 -0.1659  0.1238
   41loPI   C6A  652   1.187   4.531   7.274  0.3067 -0.0419  0.2020
   41loPI   C1B  653   1.876   4.267   9.107 -0.1489 -0.1296  0.0901
   41loPI   C2B  654   2.143   4.185   8.658 -0.1691 -0.1776 -0.1479
   41loPI   C3B  655   2.260   4.272   8.118  0.1348  0.1170 -0.1203
   41loPI   C4B  656   2.416   4.307   7.693 -0.3258  0.0815 -0.1061
   42loPI    C1  657   5.762  17.475   9.276 -0.0981  0.1328  0.2786
   42loPI    C2  658   5.586  17.251   8.996  0.2287  0.3909 -0.1454
   42loPI    C3  659   5.763  17.076   9.309  0.2397  0.0712 -0.3247
   42loPI   PO4  660   5.593  17.700   9.327 -0.0909 -0.1122  0.0792
   42loPI   GL1  661   5.510  17.950   8.969 -0.0303 -0.0893 -0.0613
   42loPI   GL2  662   5.462  17.742   8.816  0.0943  0.1527  0.3637
   42loPI   C1A  663   5.517  18.364   8.691  0.3169 -0.2169 -0.4277
   42loPI   C2A  664   5.619  18.439   8.276  0.1432  0.2680  0.3399
   42loPI   C3A  665   5.996  18.402   8.006 -0.0758  0.1491 -0.1159
   42loPI   C4A  666   6.401  18.530   7.928 -0.0459  0.0526 -0.4498
   42loPI   C5A  667   6.784  18.691   8.111  0.1566 -0.0437 -0.1107
   42loPI   C6A  668   6.837  18.671   8.586  0.0334  0.0667  0.0056
   42loPI   C1B  669   5.427  17.958   8.434 -0.1843 -0.3676 -0.1752
   42loPI   C2B  670   5.488  17.946   8.085 -0.2837  0.2044  0.1639
   42loPI   C3B  671   5.675  17.961   7.646 -0.1377 -0.0516 -0.1190
   42loPI   C4B  672   5.777  18.106   7.137 -0.2217 -0.0072 -0.1220
   43loPI    C1  673  11.722  13.308   9.871  0.0609 -0.0401 -0.2723
   43loPI    C2  674  12.019  13.388  10.127 -0.1246 -0.1632 -0.0135
   43loPI    C3  675  11.664  13.566  10.172 -0.0717  0.0396 -0.3653
   43loPI   PO4  676  11.775  13.074   9.863 -0.0212  0.1210  0.1219
   43loPI   GL1  677  11.857  13.003   9.510  0.0093  0.1006  0.2523
   43loPI   GL2  678  12.005  13.385   9.460 -0.0408  0.0530  0.0257
   43loPI   C1A  679  11.933  13.040   9.067 -0.0727  0.1300 -0.2384
   43loPI   C2A  680  11.977  13.317   8.664  0.0896  0.0109  0.0718
   43loPI   C3A  681  11.674  13.335   8.335  0.0388 -0.0849 -0.2608
   43loPI   C4A  682  11.604  13.623   8.028  0.0774 -0.3553  0.0824
   43loPI   C5A  683  11.316  13.864   7.964  0.1160  0.1412 -0.0445
   43loPI   C6A  684  11.037  13.862   7.671 -0.1795 -0.3967 -0.0459
   43loPI   C1B  685  12.175  13.588   9.066 -0.0366  0.0638 -0.2302
   43loPI   C2B  686  12.396  13.688   8.846  0.0673 -0.1800  0.1427
   43loPI   C3B  687  12.699  13.918   8.751 -0.1904 -0.3451  0.3613
   43loPI   C4B  688  12.894  14.240   8.411 -0.0016 -0.0840 -0.3671
   44loPI    C1  689   1.383   6.407   9.711 -0.2305  0.1149  0.1897
   44loPI    C2  690   1.207   6.749   9.820 -0.1705  0.0854  0.3828
   44loPI    C3  691   1.338   6.494  10.099 -0.0497 -0.0101  0.2403
   44loPI   PO4  692   1.612   6.428   9.565 -0.2096 -0.1352  0.0328
   44loPI   GL1  693   1.907   6.421   9.163  0.1170  0.2397  0.1813
   44loPI   GL2  694   1.771   6.198   9.027  0.1497 -0.0036 -0.0306
   44loPI   C1A  695   2.201   6.705   8.920 -0.1190 -0.4499  0.0482
   44loPI   C2A  696   2.180   6.716   8.534  0.2578  0.1657 -0.2700
   44loPI   C3A  697   2.234   6.785   8.149  0.1729  0.0720  0.0642
   44loPI   C4A  698   2.466   6.790   7.723 -0.1733 -0.1443  0.0704
   44loPI   C5A  699   2.743   6.589   7.424 -0.0916 -0.0355 -0.1072
   44loPI   C6A  700   3.109   6.264   7.377  0.2113  0.0395  0.3135
   44loPI   C1B  701   1.867   6.301   8.581  0.0133  0.1186  0.3155
   44loPI   C2B  702   1.933   6.422   8.245 -0.2014 -0.1573  0.2432
   44loPI   C3B  703   2.033   6.398   7.863  0.3873 -0.2981 -0.1223
   44loPI   C4B  704   2.400   6.170   7.761  0.0616 -0.1260 -0.0740
   45loPI    C1  705  12.152  11.699  10.363 -0.0869  0.1225 -0.1357
   45loPI    C2  706  12.196  11.308  10.438 -0.2097  0.0827 -0.2649
   45loPI    C3  707  11.892  11.510  10.601  0.1024  0.2267  0.1598
   45loPI   PO4  708  12.145  11.768  10.120 -0.4585 -0.5423 -0.0017
   45loPI   GL1  709  12.056  11.714   9.582  0.1733 -0.0293 -0.2484
   45loPI   GL2  710  12.292  11.635   9.346 -0.1607 -0.0214  0.0419
   45loPI   C1A  711  11.954  11.995   9.249 -0.1868  0.1429  0.1367
   45loPI   C2A  712  11.940  12.295   8.952  0.2294  0.0026 -0.3467
   45loPI   C3A  713  12.075  12.370   8.502  0.1296 -0.2779 -0.1011
   45loPI   C4A  714  12.024  12.382   8.083  0.1949 -0.0981  0.0542
   45loPI   C5A  715  12.257  12.177   7.822 -0.1751 -0.2044  0.0785
   45loPI   C6A  716  12.456  11.911   7.578  0.0882  0.0087  0.0326
   45loPI   C1B  717  12.688  11.679   9.024 -0.1546  0.1493  0.2366
   45loPI   C2B  718  12.644  11.706   8.612 -0.0065  0.0598 -0.2310
   45loPI   C3B  719  12.577  11.678   8.268 -0.0356  0.0019  0.0518
   45loPI   C4B  720  12.273  11.720   8.009 -0.0989  0.0868  0.2039
   46loPI    C1  721  13.046   9.480   9.924  0.1346 -0.0761  0.0915
   46loPI    C2  722  12.938   9.199  10.188 -0.0991  0.0545  0.1377
   46loPI    C3  723  12.953   9.583  10.299  0.1068  0.0752  0.0437
   46loPI   PO4  724  12.931   9.445   9.659 -0.1118 -0.2307 -0.2386
   46loPI   GL1  725  13.086   9.805   9.416 -0.1962  0.0246 -0.0093
   46loPI   GL2  726  13.312   9.636   9.335  0.3024 -0.0593 -0.0025
   46loPI   C1A  727  12.892   9.802   8.972  0.0483  0.1742 -0.1782
   46loPI   C2A  728  12.885   9.711   8.443 -0.0446 -0.2805 -0.0022
   46loPI   C3A  729  13.099   9.781   8.015  0.2962 -0.0033 -0.0297
   46loPI   C4A  730  13.330   9.735   7.687  0.1970  0.0293  0.2567
   46loPI   C5A  731  13.734   9.605   7.476 -0.1629  0.1240 -0.3299
   46loPI   C6A  732  14.162   9.636   7.588 -0.0347  0.0973 -0.2764
   46loPI   C1B  733  13.574   9.640   8.938  0.2414 -0.1836  0.1136
   46loPI   C2B  734  13.908   9.561   8.589 -0.2013  0.1420  0.1460
   46loPI   C3B  735  14.192   9.631   8.374  0.0428 -0.0243  0.1190
   46loPI   C4B  736  14.485   9.531   7.967 -0.0258  0.1072  0.2056
   47loPI    C1  737  18.325   0.985   9.952 -0.1421 -0.1740 -0.0389
   47loPI    C2  738  18.367   0.595  10.031 -0.0675 -0.1738 -0.0774
   47loPI    C3  739  18.357   0.859  10.331 -0.2896 -0.2212 -0.0414
   47loPI   PO4  740  18.450   1.016   9.778  0.4586 -0.5087 -0.0955
   47loPI   GL1  741  18.543   0.865   9.404  0.2727  0.1191 -0.3911
   47loPI   GL2  742  18.855   1.011   9.449 -0.3094 -0.0976 -0.1871
   47loPI   C1A  743  18.586   0.817   9.029  0.0206  0.1327 -0.0316
   47loPI   C2A  744  18.645   0.501   8.727 -0.0333  0.1730  0.2087
   47loPI   C3A  745  18.754   0.132   8.525  0.0738 -0.1731 -0.0350
   47loPI   C4A  746  18.978  -0.018   8.439 -0.1176 -0.1233  0.0743
   47loPI   C5A  747  19.301  -0.217   8.070 -0.3815 -0.0158 -0.2119
   47loPI   C6A  748  19.494  -0.612   7.946  0.1926 -0.0758  0.2339
   47loPI   C1B  749  18.924   1.163   9.103  0.1457 -0.2899  0.6391
   47loPI   C2B  750  18.680   1.206   8.707 -0.1075 -0.0992 -0.1469
   47loPI   C3B  751  18.686   1.497   8.308 -0.2286 -0.2716  0.2901
   47loPI   C4B  752  18.491   1.696   7.919  0.0724 -0.0092 -0.0557
   48loPI    C1  753  10.820   2.729  10.146 -0.1159  0.1242 -0.0443
   48loPI    C2  754  10.990   2.436  10.360 -0.0246  0.1102 -0.1351
   48loPI    C3  755  10.632   2.580  10.467  0.0147  0.0953  0.0197
   48loPI   PO4  756  10.827   2.659   9.829  0.0816  0.4398  0.0900
   48loPI   GL1  757  10.814   2.849   9.423 -0.2592  0.1092  0.1004
   48loPI   GL2  758  11.063   3.037   9.425  0.0794 -0.0394 -0.1624
   48loPI   C1A  759  10.613   2.966   9.023  0.2735 -0.0546 -0.0034
   48loPI   C2A  760  10.508   2.985   8.617 -0.1392  0.3183  0.3031
   48loPI   C3A  761  10.634   2.846   8.304  0.0741 -0.1727  0.4050
   48loPI   C4A  762  11.036   2.707   8.259 -0.4997 -0.0170  0.0268
   48loPI   C5A  763  11.391   2.324   8.134  0.1199  0.1509 -0.2331
   48loPI   C6A  764  11.494   2.016   7.857  0.0875  0.0928  0.1980
   48loPI   C1B  765  11.268   2.835   9.077 -0.1363 -0.2656 -0.5031
   48loPI   C2B  766  11.462   2.753   8.582  0.2912 -0.1034  0.0517
   48loPI   C3B  767  11.548   2.882   8.256 -0.3352 -0.0029 -0.1189
   48loPI   C4B  768  11.388   2.953   7.779  0.1628 -0.0712 -0.0567
   49loPI    C1  769  12.241  12.953  10.024 -0.1004 -0.0683 -0.0293
   49loPI    C2  770  12.362  12.572  10.013  0.0381 -0.0240 -0.0701
   49loPI    C3  771  12.236  12.732  10.358 -0.1082 -0.1327 -0.0719
   49loPI   PO4  772  12.476  13.038   9.894  0.0276 -0.1359 -0.1103
   49loPI   GL1  773  12.419  13.021   9.490  0.1183  0.1833 -0.2479
   49loPI   GL2  774  12.823  12.907   9.446 -0.3028 -0.1541 -0.0928
   49loPI   C1A  775  12.532  13.216   9.162 -0.1328  0.0144 -0.0093
   49loPI   C2A  776  12.450  13.118   8.799  0.0737  0.0344  0.0490
   49loPI   C3A  777  12.444  13.422   8.459 -0.1701 -0.0199 -0.0987
   49loPI   C4A  778  12.071  13.527   8.069  0.0286 -0.0443 -0.0418
   49loPI   C5A  779  12.001  13.484   7.693  0.2644  0.0750 -0.2220
   49loPI   C6A  780  12.056  13.776   7.388 -0.2531  0.0921  0.0956
   49loPI   C1B  781  12.809  12.840   8.949 -0.3598 -0.0229  0.1402
   49loPI   C2B  782  12.651  12.726   8.483  0.0938 -0.0914  0.2699
   49loPI   C3B  783  12.562  12.609   8.055  0.1401  0.0511  0.1895
   49loPI   C4B  784  12.740  12.426   7.646  0.1916  0.2917 -0.2568
   50loPI    C1  785  13.745   6.588   9.679 -0.1204 -0.1773  0.1112
   50loPI    C2  786  14.048   6.698   9.916  0.0955 -0.2417 -0.1295
   50loPI    C3  787  13.800   6.406  10.032 -0.0925  0.0494  0.2256
   50loPI   PO4  788  13.890   6.667   9.361 -0.2289 -0.2941 -0.1380
   50loPI   GL1  789  14.244   6.484   9.098 -0.0887 -0.1692 -0.1023
   50loPI   GL2  790  14.141   6.293   8.777 -0.1110 -0.1616 -0.1769
   50loPI   C1A  791  14.027   6.762   8.710 -0.6293  0.1130 -0.2229
   50loPI   C2A  792  14.253   6.841   8.321 -0.0454 -0.0222  0.2600
   50loPI   C3A  793  14.364   6.751   7.817  0.0444 -0.1685 -0.2584
   50loPI   C4A  794  14.478   6.839   7.378  0.0010 -0.1909  0.0040
   50loPI   C5A  795  14.143   7.134   7.244  0.1767  0.1623 -0.0737
   50loPI   C6A  796  13.743   7.096   7.408  0.2474 -0.1145  0.2615
   50loPI   C1B  797  13.878   6.053   8.521  0.1967 -0.0697  0.1314
   50loPI   C2B  798  13.941   5.930   8.130  0.0717  0.3458 -0.0594
   50loPI   C3B  799  13.748   5.795   7.698  0.2887 -0.0698 -0.0088
   50loPI   C4B  800  13.697   5.366   7.415  0.2535  0.2890 -0.1507
   51loPI    C1  801   4.207   6.891  10.063  0.1350 -0.2439 -0.0209
   51loPI    C2  802   3.899   6.953   9.816  0.0199 -0.3768  0.0873
   51loPI    C3  803   3.889   7.098  10.189  0.2582 -0.0471 -0.0298
   51loPI   PO4  804   4.436   6.922   9.803 -0.2005 -0.2109 -0.2160
   51loPI   GL1  805   4.379   6.704   9.390 -0.0885 -0.0076 -0.1619
   51loPI   GL2  806   4.137   6.846   9.302  0.2538 -0.3714 -0.4776
   51loPI   C1A  807   4.502   6.636   8.915 -0.1643  0.0294  0.2498
   51loPI   C2A  808   4.720   6.359   8.599  0.1759 -0.2101  0.2983
   51loPI   C3A  809   4.736   6.078   8.207  0.1954  0.0345  0.0353
   51loPI   C4A  810   4.468   6.109   7.814 -0.0878 -0.1657  0.0433
   51loPI   C5A  811   4.085   6.046   7.529 -0.0647  0.0395  0.0979
   51loPI   C6A  812   3.777   5.631   7.610 -0.1100 -0.1312  0.2322
   51loPI   C1B  813   3.928   6.959   8.935  0.0671  0.1588 -0.0302
   51loPI   C2B  814   3.755   7.232   8.584 -0.0851 -0.1348 -0.2655
   51loPI   C3B  815   3.420   7.114   8.262  0.3646  0.0277  0.0883
   51loPI   C4B  816   3.036   7.385   8.197  0.0814 -0.0940  0.0889
   52loPI    C1  817   5.692  10.716  10.044  0.2692 -0.0768 -0.0131
   52loPI    C2  818   5.611  10.434  10.315  0.0300  0.0132  0.0110
   52loPI    C3  819   5.986  10.561  10.266  0.0885 -0.0681  0.2360
   52loPI   PO4  820   5.481  10.723   9.798 -0.0962 -0.1965 -0.2812
   52loPI   GL1  821   5.194  10.729   9.461 -0.2286 -0.0241 -0.0220
   52loPI   GL2  822   4.982  10.462   9.322 -0.0955  0.2845  0.0728
   52loPI   C1A  823   5.439  10.520   9.168  0.2526 -0.0565 -0.2633
   52loPI   C2A  824   5.270  10.588   8.847  0.3622 -0.1126  0.3674
   52loPI   C3A  825   4.872  10.449   8.703 -0.0641 -0.0695  0.2823
   52loPI   C4A  826   4.759  10.341   8.354  0.1399 -0.2727  0.0370
   52loPI   C5A  827   4.672  10.342   7.966  0.0915  0.0193  0.0302
   52loPI   C6A  828   4.649  10.277   7.454 -0.1978 -0.3054 -0.3373
   52loPI   C1B  829   4.854  10.784   9.125  0.0254  0.0993 -0.0995
   52loPI   C2B  830   4.872  10.992   8.820 -0.1793  0.0410 -0.0461
   52loPI   C3B  831   4.744  10.901   8.467  0.1862 -0.0182  0.0739
   52loPI   C4B  832   4.808  10.834   7.855  0.0715  0.3145  0.1423
   53loPI    C1  833   0.333   8.444   9.361  0.0578 -0.1589 -0.2257
   53loPI    C2  834   0.467   8.617   9.696 -0.1779 -0.2543 -0.0795
   53loPI    C3  835   0.298   8.840   9.410 -0.1420 -0.1957 -0.0555
   53loPI   PO4  836   0.314   8.142   9.326  0.0962 -0.2603 -0.5038
   53loPI   GL1  837   0.499   7.947   8.982 -0.1640  0.1582 -0.0037
   53loPI   GL2  838   0.624   7.637   8.932 -0.0072  0.0957  0.2403
   53loPI   C1A  839   0.624   8.171   8.621  0.0873 -0.0541  0.1356
   53loPI   C2A  840   0.801   8.343   8.365  0.3506 -0.0248  0.0460
   53loPI   C3A  841   0.717   8.480   7.958 -0.2325 -0.0434  0.0502
   53loPI   C4A  842   0.810   8.615   7.551 -0.2094 -0.5110 -0.0449
   53loPI   C5A  843   0.681   8.728   7.142  0.1927  0.4177 -0.0374
   53loPI   C6A  844   0.350   8.841   6.850 -0.3354 -0.1633 -0.0207
   53loPI   C1B  845   0.607   7.692   8.535  0.0208 -0.2266  0.2990
   53loPI   C2B  846   0.532   7.999   8.144  0.2581  0.2331 -0.1444
   53loPI   C3B  847   0.610   8.041   7.671 -0.0775  0.2397 -0.0285
   53loPI   C4B  848   0.881   7.766   7.457  0.0100  0.3087 -0.0007
   54loPI    C1  849  14.210   3.642   9.715 -0.5554 -0.0785 -0.3122
   54loPI    C2  850  13.972   3.808   9.990 -0.3174  0.0096 -0.1562
   54loPI    C3  851  14.202   3.495  10.087 -0.2112  0.0587 -0.2469
   54loPI   PO4  852  14.075   3.603   9.501 -0.1089 -0.2404  0.0616
   54loPI   GL1  853  14.109   3.665   9.136  0.0477 -0.1878 -0.1004
   54loPI   GL2  854  14.425   3.711   8.946 -0.0488  0.0032  0.1559
   54loPI   C1A  855  13.796   3.520   8.840 -0.0297  0.2489 -0.1976
   54loPI   C2A  856  13.601   3.483   8.435 -0.2280 -0.1229 -0.0434
   54loPI   C3A  857  13.416   3.209   8.206 -0.0470 -0.2584 -0.0192
   54loPI   C4A  858  13.489   3.212   7.819  0.3004 -0.0856  0.1656
   54loPI   C5A  859  13.265   3.350   7.365 -0.1431  0.2586  0.0205
   54loPI   C6A  860  13.109   3.637   7.130 -0.0922 -0.0608 -0.0041
   54loPI   C1B  861  14.615   3.775   8.615  0.0612  0.3203 -0.1917
   54loPI   C2B  862  14.722   3.965   8.226 -0.0222  0.2979 -0.3209
   54loPI   C3B  863  14.839   4.272   7.932  0.2367 -0.1412  0.0997
   54loPI   C4B  864  14.715   4.617   7.671  0.1343 -0.2145 -0.2148
   55loPI    C1  865  17.518  10.604   9.877  0.0408 -0.0184 -0.2170
   55loPI    C2  866  17.314  10.322  10.075 -0.0327  0.0553 -0.1874
   55loPI    C3  867  17.255  10.709  10.160  0.3626  0.0673  0.0566
   55loPI   PO4  868  17.444  10.577   9.652 -0.2957 -0.2922 -0.1024
   55loPI   GL1  869  17.426  10.554   9.352  0.0512 -0.1125  0.0730
   55loPI   GL2  870  17.709  10.609   9.196  0.0882  0.0440  0.1199
   55loPI   C1A  871  17.342  11.004   9.169 -0.1878  0.4401  0.1246
   55loPI   C2A  872  17.500  11.215   8.796 -0.0831 -0.0409  0.0027
   55loPI   C3A  873  17.273  11.296   8.339 -0.0732 -0.1186 -0.1444
   55loPI   C4A  874  17.087  11.416   7.931 -0.2690  0.1668 -0.1357
   55loPI   C5A  875  17.138  11.283   7.508  0.1475  0.2111 -0.1006
   55loPI   C6A  876  16.913  11.143   7.170 -0.1803  0.0599 -0.0336
   55loPI   C1B  877  17.926  10.578   8.797 -0.0109 -0.0740 -0.1557
   55loPI   C2B  878  18.003  10.291   8.443  0.1587 -0.1480 -0.0443
   55loPI   C3B  879  17.932  10.156   8.036 -0.2793 -0.4499 -0.0668
   55loPI   C4B  880  17.780  10.065   7.635 -0.2605 -0.2056 -0.0854
   56loPI    C1  881  10.055   0.741   9.583 -0.0649 -0.0627 -0.1887
   56loPI    C2  882  10.314   0.437   9.550 -0.1628 -0.1915  0.1828
   56loPI    C3  883  10.254   0.612   9.905 -0.2420  0.1461  0.0074
   56loPI   PO4  884  10.105   0.858   9.402 -0.5327  0.0529 -0.1485
   56loPI   GL1  885  10.112   1.158   9.060 -0.3441  0.0991 -0.0967
   56loPI   GL2  886   9.811   0.917   9.003 -0.0395  0.0698  0.1457
   56loPI   C1A  887   9.997   1.247   8.606  0.0261 -0.1415 -0.1294
   56loPI   C2A  888   9.871   1.074   8.094  0.0185  0.3649 -0.4422
   56loPI   C3A  889   9.881   1.046   7.601  0.0582 -0.1297  0.0911
   56loPI   C4A  890   9.579   0.928   7.404  0.0294  0.1281  0.2640
   56loPI   C5A  891   9.200   0.820   7.505  0.0567 -0.4992  0.1692
   56loPI   C6A  892   8.940   0.471   7.510 -0.0573  0.1717  0.0326
   56loPI   C1B  893   9.756   0.747   8.698  0.2233 -0.0716  0.4108
   56loPI   C2B  894   9.371   0.619   8.507  0.2095  0.1058 -0.0184
   56loPI   C3B  895   8.967   0.797   8.255 -0.3704  0.2331 -0.3667
   56loPI   C4B  896   8.716   0.824   7.829 -0.0070 -0.0068 -0.0707
   57loPI    C1  897  18.062  12.720   9.997  0.2747  0.1271  0.1086
   57loPI    C2  898  18.164  12.357  10.130  0.1317  0.0057 -0.1075
   57loPI    C3  899  17.792  12.493  10.186  0.2029  0.1466  0.0305
   57loPI   PO4  900  18.183  12.738   9.769 -0.0480  0.2418 -0.0852
   57loPI   GL1  901  18.064  12.738   9.333 -0.0645 -0.0899  0.0452
   57loPI   GL2  902  18.271  13.007   9.369 -0.0809  0.1126  0.2445
   57loPI   C1A  903  17.910  12.923   8.948 -0.1441 -0.1152 -0.2592
   57loPI   C2A  904  18.009  13.065   8.520 -0.1142 -0.0047  0.0314
   57loPI   C3A  905  18.068  13.150   8.133  0.0454 -0.4248 -0.1149
   57loPI   C4A  906  17.902  13.455   7.886  0.3776  0.0641 -0.2115
   57loPI   C5A  907  17.523  13.538   7.655 -0.0156 -0.1237 -0.1097
   57loPI   C6A  908  17.397  13.734   7.353 -0.1926  0.0921  0.1479
   57loPI   C1B  909  18.317  13.281   9.047 -0.0022  0.1759  0.1977
   57loPI   C2B  910  18.599  13.271   8.761  0.0687  0.2413  0.0980
   57loPI   C3B  911  18.893  13.175   8.490  0.1449 -0.2638  0.0792
   57loPI   C4B  912  18.980  13.234   8.029  0.2554  0.1946  0.0538
   58loPI    C1  913   2.411   3.804   9.868 -0.1878 -0.0010 -0.0420
   58loPI    C2  914   2.140   4.041  10.041 -0.0471  0.2145 -0.1120
   58loPI    C3  915   2.022   3.745   9.799 -0.2272  0.1640  0.0354
   58loPI   PO4  916   2.572   3.980   9.749 -0.2144 -0.2483  0.0086
   58loPI   GL1  917   2.841   3.897   9.433  0.0426  0.5010  0.1109
   58loPI   GL2  918   2.595   3.916   9.259  0.0379 -0.0109  0.2340
   58loPI   C1A  919   2.945   3.584   9.029 -0.1071  0.0837 -0.2826
   58loPI   C2A  920   2.838   3.519   8.569  0.1437  0.0151  0.1000
   58loPI   C3A  921   2.922   3.317   8.136 -0.3715  0.0334 -0.1733
   58loPI   C4A  922   2.872   3.208   7.696  0.1021  0.2876 -0.0668
   58loPI   C5A  923   2.689   3.022   7.326  0.2416  0.2424  0.0659
   58loPI   C6A  924   2.218   3.178   7.113  0.1372 -0.1046  0.0199
   58loPI   C1B  925   2.648   4.013   8.858 -0.1866 -0.1295  0.1094
   58loPI   C2B  926   2.460   3.857   8.456 -0.1623  0.0923  0.1606
   58loPI   C3B  927   1.930   3.849   8.371 -0.1892 -0.0768  0.0094
   58loPI   C4B  928   1.761   3.939   8.039 -0.0288 -0.0158  0.0085
   59loPI    C1  929  12.555   4.729   9.742  0.0860 -0.1112 -0.3259
   59loPI    C2  930  12.165   4.802   9.786  0.1062 -0.1837 -0.0063
   59loPI    C3  931  12.316   4.447   9.895  0.2563 -0.1678 -0.1591
   59loPI   PO4  932  12.597   4.684   9.582  0.1314 -0.0147  0.0884
   59loPI   GL1  933  12.662   4.880   9.162 -0.1774  0.0121 -0.1388
   59loPI   GL2  934  12.628   5.051   8.886  0.0590 -0.2157  0.3739
   59loPI   C1A  935  12.680   4.602   8.793  0.1089 -0.5024 -0.0396
   59loPI   C2A  936  12.775   4.562   8.368 -0.0179 -0.1115 -0.0062
   59loPI   C3A  937  12.626   4.576   7.977 -0.1822 -0.0462 -0.2334
   59loPI   C4A  938  12.716   4.360   7.568 -0.0575  0.0725 -0.0181
   59loPI   C5A  939  12.808   3.984   7.422  0.0266 -0.4540  0.0243
   59loPI   C6A  940  12.525   3.737   7.141 -0.1640  0.0618  0.2962
   59loPI   C1B  941  12.414   4.957   8.504 -0.2189  0.0457  0.2345
   59loPI   C2B  942  12.293   5.104   8.058  0.0488 -0.0724 -0.1650
   59loPI   C3B  943  12.161   5.087   7.600  0.1261  0.1381 -0.0666
   59loPI   C4B  944  12.073   4.855   7.204 -0.4078 -0.0912 -0.0885
   60loPI    C1  945  13.529   0.532   9.781  0.0581  0.2675 -0.1793
   60loPI    C2  946  13.435   0.749   9.459  0.2784  0.2469 -0.2588
   60loPI    C3  947  13.776   0.540   9.467  0.1092 -0.0303 -0.1502
   60loPI   PO4  948  13.190   0.426   9.828 -0.0558  0.0911  0.1179
   60loPI   GL1  949  12.919   0.663   9.496 -0.0522  0.0884  0.2882
   60loPI   GL2  950  12.614   0.534   9.446 -0.0260  0.0639 -0.1407
   60loPI   C1A  951  12.772   0.815   9.068 -0.1579  0.3261  0.2380
   60loPI   C2A  952  12.878   0.673   8.713 -0.0790 -0.0850 -0.2052
   60loPI   C3A  953  13.008   0.408   8.417 -0.2738  0.0350 -0.1854
   60loPI   C4A  954  13.286   0.110   8.207  0.0550 -0.0106 -0.1535
   60loPI   C5A  955  13.420   0.167   7.806 -0.2750  0.0043  0.1497
   60loPI   C6A  956  13.106   0.352   7.500 -0.2612 -0.2145 -0.0484
   60loPI   C1B  957  12.728   0.208   9.115 -0.2382 -0.4028 -0.4861
   60loPI   C2B  958  12.885   0.081   8.810 -0.1172  0.1954  0.1860
   60loPI   C3B  959  13.180  -0.078   8.677  0.2123 -0.0072  0.2717
   60loPI   C4B  960  13.584  -0.208   8.496  0.1434  0.1048  0.0146
   61loPI    C1  961  15.658   4.856   9.598 -0.1979  0.1635  0.2382
   61loPI    C2  962  15.831   5.206   9.508 -0.0909  0.0534  0.0065
   61loPI    C3  963  15.835   5.072   9.885  0.2384  0.1029  0.0234
   61loPI   PO4  964  15.614   4.789   9.413 -0.0947 -0.3228 -0.2873
   61loPI   GL1  965  15.760   4.886   9.026  0.0968  0.3018 -0.1610
   61loPI   GL2  966  15.574   4.938   8.837 -0.0973  0.0279 -0.2588
   61loPI   C1A  967  15.761   4.459   8.925  0.2681  0.1289  0.0645
   61loPI   C2A  968  15.713   4.148   8.607  0.3528  0.2970 -0.2291
   61loPI   C3A  969  16.025   4.034   8.186  0.1409  0.0622 -0.0812
   61loPI   C4A  970  16.287   3.842   7.825 -0.1315 -0.2883 -0.2467
   61loPI   C5A  971  16.544   3.988   7.605  0.3098 -0.0497 -0.0845
   61loPI   C6A  972  16.723   4.134   7.285 -0.1989  0.0471 -0.0191
   61loPI   C1B  973  15.720   4.861   8.505 -0.1871  0.2593  0.2278
   61loPI   C2B  974  15.668   4.463   8.170  0.1781 -0.0548  0.2250
   61loPI   C3B  975  15.372   4.437   7.892  0.0995  0.2153 -0.1387
   61loPI   C4B  976  15.243   4.142   7.661 -0.0877  0.1543  0.1469
   62loPI    C1  977   4.057   2.790   9.824 -0.2146  0.1330  0.1888
   62loPI    C2  978   4.344   2.513   9.790 -0.1701  0.2267 -0.2672
   62loPI    C3  979   4.271   2.682  10.145  0.1408 -0.0052 -0.0868
   62loPI   PO4  980   3.859   2.674   9.754  0.1984  0.5394  0.1231
   62loPI   GL1  981   3.941   2.293   9.517 -0.2659 -0.1846 -0.3611
   62loPI   GL2  982   3.617   2.234   9.588  0.4181  0.0605 -0.1782
   62loPI   C1A  983   4.084   2.191   9.036 -0.1186  0.2473 -0.0820
   62loPI   C2A  984   4.227   2.024   8.599  0.0313 -0.1789 -0.1045
   62loPI   C3A  985   4.216   1.744   8.195  0.0151 -0.3030 -0.0313
   62loPI   C4A  986   4.217   1.875   7.719  0.0256 -0.1142 -0.0225
   62loPI   C5A  987   4.398   2.172   7.401  0.3544  0.1285 -0.1309
   62loPI   C6A  988   4.617   2.100   7.089 -0.0435  0.4055 -0.3902
   62loPI   C1B  989   3.362   1.998   9.186  0.0183  0.0771  0.0534
   62loPI   C2B  990   3.420   1.756   8.727  0.3370  0.2314 -0.1437
   62loPI   C3B  991   3.292   1.634   8.387 -0.2314 -0.0740 -0.2370
   62loPI   C4B  992   3.192   1.547   7.958 -0.0284  0.1997  0.0429
   63loPI    C1  993  11.695  18.069   9.747  0.1114  0.0186 -0.1428
   63loPI    C2  994  11.310  17.997   9.664  0.0755  0.0848 -0.0353
   63loPI    C3  995  11.410  18.188  10.001  0.1954  0.1718 -0.1196
   63loPI   PO4  996  11.821  18.035   9.536  0.1868 -0.0260 -0.0993
   63loPI   GL1  997  11.836  18.080   9.095  0.0987 -0.0303 -0.4802
   63loPI   GL2  998  11.583  17.966   9.040  0.0815  0.0495  0.1390
   63loPI   C1A  999  11.966  18.292   8.916  0.1732 -0.0320  0.0054
   63loPI   C2A 1000  12.156  18.179   8.469  0.0723  0.2358  0.0630
   63loPI   C3A 1001  12.075  18.066   8.038 -0.0640 -0.0403 -0.2386
   63loPI   C4A 1002  12.173  17.852   7.720  0.0362 -0.0192 -0.0335
   63loPI   C5A 1003  12.168  17.475   7.548 -0.0689  0.2072  0.0111
   63loPI   C6A 1004  12.085  17.188   7.100  0.0641  0.0780  0.1010
   63loPI   C1B 1005  11.695  17.901   8.580 -0.4191 -0.0766  0.0110
   63loPI   C2B 1006  11.827  17.696   8.263 -0.1294 -0.0397  0.2535
   63loPI   C3B 1007  12.050  17.419   8.022  0.0482 -0.1150 -0.1195
   63loPI   C4B 1008  12.305  17.136   7.901 -0.1194 -0.0448  0.2809
   64loPI    C1 1009   2.951  16.015   9.701  0.0672 -0.0894 -0.1071
   64loPI    C2 1010   2.928  16.361   9.502  0.1662  0.0026  0.0396
   64loPI    C3 1011   3.131  16.341   9.846 -0.1440 -0.1138  0.2197
   64loPI   PO4 1012   2.614  15.893   9.518 -0.0278  0.1945 -0.0506
   64loPI   GL1 1013   2.410  15.895   9.095 -0.2196 -0.0350 -0.2001
   64loPI   GL2 1014   2.640  15.702   9.089 -0.0719  0.0828 -0.1622
   64loPI   C1A 1015   2.817  15.958   8.727  0.2830 -0.2042 -0.3149
   64loPI   C2A 1016   2.725  15.795   8.296  0.4266  0.0923  0.3267
   64loPI   C3A 1017   2.756  15.814   7.823 -0.0733 -0.0036  0.1063
   64loPI   C4A 1018   3.014  15.728   7.536 -0.1227  0.0943 -0.0164
   64loPI   C5A 1019   3.399  15.798   7.404  0.3133 -0.1283 -0.1719
   64loPI   C6A 1020   3.880  15.798   7.393  0.2310  0.0165 -0.0037
   64loPI   C1B 1021   2.467  15.522   8.787  0.2692 -0.0010  0.0785
   64loPI   C2B 1022   2.345  15.510   8.357 -0.1572 -0.0200  0.3183
   64loPI   C3B 1023   2.267  15.460   7.946 -0.0419 -0.1127  0.1230
   64loPI   C4B 1024   2.228  15.653   7.553 -0.0684  0.4096 -0.1688
   65loPI    C1 1025   5.351  11.863   9.908 -0.3479 -0.0088 -0.0982
   65loPI    C2 1026   4.980  11.824  10.054 -0.2995  0.3204  0.1240
   65loPI    C3 1027   5.230  11.511  10.055 -0.4249  0.2179  0.4017
   65loPI   PO4 1028   5.387  11.794   9.658  0.0560  0.1500  0.0994
   65loPI   GL1 1029   5.307  11.834   9.179  0.2595 -0.1840 -0.2463
   65loPI   GL2 1030   5.227  11.521   9.204  0.1024 -0.2198  0.0129
   65loPI   C1A 1031   5.239  11.745   8.746 -0.2004  0.0000  0.0574
   65loPI   C2A 1032   5.100  11.423   8.510 -0.0355 -0.1282 -0.0909
   65loPI   C3A 1033   5.130  11.181   8.219  0.0032 -0.1703  0.3529
   65loPI   C4A 1034   5.320  11.003   7.908  0.3978 -0.2484 -0.1212
   65loPI   C5A 1035   5.376  10.797   7.525 -0.1540 -0.0836  0.0460
   65loPI   C6A 1036   5.607  10.517   7.287  0.1633 -0.0284  0.1289
   65loPI   C1B 1037   4.786  11.544   8.981 -0.1618  0.1709 -0.0028
   65loPI   C2B 1038   4.581  11.379   8.676  0.1597 -0.1124 -0.0577
   65loPI   C3B 1039   4.090  11.470   8.541  0.0951  0.2189  0.0757
   65loPI   C4B 1040   3.739  11.265   8.481 -0.0499  0.0383 -0.1272
   66loPI    C1 1041   0.581   6.120   9.788 -0.0033 -0.1850 -0.2431
   66loPI    C2 1042   0.753   5.843   9.556  0.3768  0.1281 -0.3481
   66loPI    C3 1043   0.941   6.189   9.627 -0.0365  0.3149 -0.1224
   66loPI   PO4 1044   0.361   6.116   9.706  0.0665  0.0297 -0.0979
   66loPI   GL1 1045   0.336   6.105   9.299  0.4690  0.0069 -0.0556
   66loPI   GL2 1046   0.586   6.281   9.306 -0.2628 -0.0148  0.2214
   66loPI   C1A 1047   0.345   5.908   8.971  0.2058 -0.5597 -0.0403
   66loPI   C2A 1048   0.565   5.614   8.658 -0.1094  0.0097  0.1027
   66loPI   C3A 1049   0.586   5.466   8.170 -0.1082  0.1098 -0.1086
   66loPI   C4A 1050   0.668   5.272   7.722  0.2927  0.0046 -0.4075
   66loPI   C5A 1051   0.874   5.396   7.311 -0.1606 -0.0596  0.3609
   66loPI   C6A 1052   0.808   5.725   7.049 -0.1579  0.3130  0.0099
   66loPI   C1B 1053   0.905   6.348   8.911 -0.0187  0.2432 -0.0218
   66loPI   C2B 1054   1.360   6.385   8.645 -0.0491 -0.2553 -0.4709
   66loPI   C3B 1055   1.450   6.267   8.274 -0.0179 -0.2896  0.5463
   66loPI   C4B 1056   1.242   6.323   7.783 -0.0273  0.0539  0.1779
   67loPI    C1 1057  15.401  15.512  10.010  0.1453 -0.0806 -0.0515
   67loPI    C2 1058  15.640  15.514  10.332  0.2128 -0.0990 -0.1013
   67loPI    C3 1059  15.388  15.209  10.271  0.1766 -0.0797 -0.0489
   67loPI   PO4 1060  15.341  15.832  10.039 -0.3463  0.3354 -0.1385
   67loPI   GL1 1061  15.333  16.274   9.764 -0.1251 -0.0961 -0.1663
   67loPI   GL2 1062  15.484  16.359   9.504  0.1165 -0.2117 -0.0300
   67loPI   C1A 1063  14.947  16.249   9.403  0.0111  0.1454 -0.2083
   67loPI   C2A 1064  14.818  16.191   8.998  0.2416  0.2636  0.0526
   67loPI   C3A 1065  14.725  15.944   8.614  0.0147  0.1853  0.0494
   67loPI   C4A 1066  14.606  15.913   8.229  0.1971 -0.1189 -0.0152
   67loPI   C5A 1067  14.632  15.614   8.033 -0.2747  0.0439  0.1652
   67loPI   C6A 1068  14.650  15.350   7.749 -0.1366  0.4310 -0.3257
   67loPI   C1B 1069  15.373  16.132   9.094  0.0105  0.1481 -0.1724
   67loPI   C2B 1070  15.210  15.687   8.911 -0.0933 -0.3707  0.0877
   67loPI   C3B 1071  15.147  15.600   8.437  0.0322 -0.0789  0.2358
   67loPI   C4B 1072  15.321  15.266   8.138  0.2684 -0.1443 -0.0140
   68loPI    C1 1073   7.636   7.496   9.775  0.2634 -0.1851 -0.1586
   68loPI    C2 1074   7.796   7.831   9.924  0.2984 -0.1750 -0.2184
   68loPI    C3 1075   7.819   7.489  10.131 -0.0197 -0.0740 -0.0082
   68loPI   PO4 1076   7.717   7.562   9.514 -0.0671 -0.0640 -0.3681
   68loPI   GL1 1077   7.537   7.740   9.156 -0.2296 -0.1162 -0.1699
   68loPI   GL2 1078   7.259   7.872   8.931  0.0462 -0.3154  0.1949
   68loPI   C1A 1079   7.794   7.628   8.831 -0.0360 -0.0394  0.1130
   68loPI   C2A 1080   8.169   7.485   8.642  0.1069 -0.2386  0.0031
   68loPI   C3A 1081   8.362   7.432   8.198  0.0910  0.0102  0.3872
   68loPI   C4A 1082   8.289   7.625   7.779  0.3252  0.0738  0.3410
   68loPI   C5A 1083   8.435   7.600   7.316 -0.1730  0.0297 -0.0641
   68loPI   C6A 1084   8.673   7.694   7.080  0.1869 -0.1727  0.1159
   68loPI   C1B 1085   7.298   7.792   8.539 -0.2487  0.2271 -0.0697
   68loPI   C2B 1086   7.214   7.612   8.158 -0.0976  0.0745  0.0604
   68loPI   C3B 1087   7.326   7.311   7.962 -0.2247 -0.0585  0.3100
   68loPI   C4B 1088   7.494   7.116   7.502  0.1290  0.0666  0.1543
   69loPI    C1 1089  11.536  18.624   9.801  0.0101 -0.2542  0.0395
   69loPI    C2 1090  11.899  18.565   9.643  0.0767 -0.0533  0.1135
   69loPI    C3 1091  11.863  18.689  10.022 -0.0496  0.4297 -0.0490
   69loPI   PO4 1092  11.406  18.766   9.588 -0.2389 -0.0904 -0.0190
   69loPI   GL1 1093  11.416  18.858   9.153 -0.0306  0.2766 -0.0111
   69loPI   GL2 1094  11.139  18.657   9.168  0.0427  0.2140 -0.1044
   69loPI   C1A 1095  11.466  19.093   8.831 -0.2997 -0.1849 -0.0273
   69loPI   C2A 1096  11.530  19.086   8.415  0.3098  0.2225 -0.1568
   69loPI   C3A 1097  11.520  18.818   7.978 -0.2923  0.0974  0.3106
   69loPI   C4A 1098  11.961  18.733   7.708  0.0376  0.0640  0.0106
   69loPI   C5A 1099  12.208  18.348   7.553  0.0013 -0.0289 -0.0360
   69loPI   C6A 1100  12.456  18.048   7.379  0.0371 -0.2969 -0.1494
   69loPI   C1B 1101  11.095  18.686   8.637  0.1344 -0.1005  0.0644
   69loPI   C2B 1102  11.148  18.522   8.284  0.0836  0.1116  0.2442
   69loPI   C3B 1103  11.150  18.464   7.899  0.0556  0.1180 -0.2826
   69loPI   C4B 1104  10.921  18.286   7.536  0.3770  0.2356 -0.2430
   70loPI    C1 1105  15.142   9.565  10.225  0.0728 -0.0783 -0.1822
   70loPI    C2 1106  15.017   9.199  10.124 -0.1266  0.0007 -0.2256
   70loPI    C3 1107  14.767   9.453  10.305  0.0273  0.0970 -0.1458
   70loPI   PO4 1108  15.450   9.474  10.070  0.0898  0.1040 -0.1456
   70loPI   GL1 1109  15.585   9.468   9.644  0.2474 -0.1887  0.1669
   70loPI   GL2 1110  15.397   9.367   9.455  0.3632  0.0317  0.1112
   70loPI   C1A 1111  15.861   9.445   9.312  0.1927 -0.0602 -0.1008
   70loPI   C2A 1112  15.948   9.443   8.864 -0.0643  0.3927  0.1203
   70loPI   C3A 1113  15.852   9.376   8.411  0.0948  0.0276  0.1702
   70loPI   C4A 1114  15.909   9.435   8.012 -0.0360  0.0960 -0.0285
   70loPI   C5A 1115  16.048   9.278   7.618  0.1929  0.1949  0.1476
   70loPI   C6A 1116  16.029   9.233   7.160  0.1474  0.1392 -0.1996
   70loPI   C1B 1117  15.431   9.285   9.031 -0.0744 -0.1066 -0.1078
   70loPI   C2B 1118  15.290   8.948   8.793 -0.2011  0.0586 -0.0779
   70loPI   C3B 1119  15.516   8.854   8.401  0.1518  0.1945  0.0482
   70loPI   C4B 1120  15.697   8.904   7.987  0.0715  0.1385 -0.0134
   71loPI    C1 1121  16.786   9.452   9.950 -0.1639  0.0983  0.1355
   71loPI    C2 1122  16.547   9.148  10.054 -0.1242  0.0425  0.0645
   71loPI    C3 1123  16.483   9.513  10.204 -0.4246  0.0892 -0.1666
   71loPI   PO4 1124  16.783   9.434   9.685 -0.0772 -0.0630  0.0647
   71loPI   GL1 1125  16.504   9.617   9.464 -0.0487  0.0143 -0.1969
   71loPI   GL2 1126  16.262   9.662   9.608  0.1997  0.0487 -0.2723
   71loPI   C1A 1127  16.440   9.591   8.993  0.0745  0.1377  0.0621
   71loPI   C2A 1128  16.518   9.734   8.562  0.5454  0.1806  0.1319
   71loPI   C3A 1129  16.476  10.096   8.227 -0.1058 -0.2888 -0.0687
   71loPI   C4A 1130  16.411  10.230   7.739  0.0490 -0.0204  0.3803
   71loPI   C5A 1131  16.337   9.983   7.441  0.0494 -0.0230 -0.1432
   71loPI   C6A 1132  16.038   9.714   7.306 -0.2623  0.2745  0.0420
   71loPI   C1B 1133  16.108   9.887   9.201 -0.0695 -0.0651 -0.0049
   71loPI   C2B 1134  16.087   9.971   8.785 -0.1029 -0.2841 -0.3176
   71loPI   C3B 1135  16.063   9.818   8.398  0.1355  0.0292 -0.1578
   71loPI   C4B 1136  16.101   9.858   7.844 -0.0195 -0.0489 -0.2986
   72loPI    C1 1137  10.202   2.003   9.859 -0.0181  0.0700 -0.0273
   72loPI    C2 1138   9.827   1.979   9.996  0.0436 -0.0432  0.1247
   72loPI    C3 1139   9.995   1.663   9.817  0.0596  0.0145  0.0371
   72loPI   PO4 1140  10.161   2.258   9.739  0.0637  0.1023 -0.1408
   72loPI   GL1 1141  10.057   2.514   9.373 -0.1251  0.0378 -0.2007
   72loPI   GL2 1142  10.414   2.625   9.448  0.1859  0.3061  0.3883
   72loPI   C1A 1143  10.037   2.712   8.935 -0.2710  0.0471 -0.0426
   72loPI   C2A 1144   9.887   2.844   8.434  0.0659  0.1090  0.1250
   72loPI   C3A 1145  10.167   2.878   8.097  0.1648  0.3265 -0.0095
   72loPI   C4A 1146  10.480   2.713   7.843 -0.4585 -0.2486  0.2517
   72loPI   C5A 1147  10.907   2.655   7.779  0.1630 -0.0332 -0.0622
   72loPI   C6A 1148  11.323   2.441   7.628  0.0774 -0.1421  0.1100
   72loPI   C1B 1149  10.414   2.379   9.044  0.0432 -0.0400  0.1823
   72loPI   C2B 1150  10.365   2.479   8.616 -0.2076  0.0305  0.0147
   72loPI   C3B 1151  10.193   2.324   8.215 -0.1026 -0.0681 -0.1816
   72loPI   C4B 1152  10.047   2.444   7.793  0.1320  0.0764 -0.0882
   73loPI    C1 1153   0.310   9.407   9.376 -0.2508  0.0272  0.1083
   73loPI    C2 1154   0.344   9.806   9.387 -0.1202  0.0202 -0.0237
   73loPI    C3 1155   0.038   9.637   9.194 -0.1003  0.0544 -0.0856
   73loPI   PO4 1156   0.470   9.339   9.263 -0.1574 -0.0916 -0.2418
   73loPI   GL1 1157   0.417   9.230   8.885  0.1705 -0.1433 -0.2062
   73loPI   GL2 1158   0.085   9.198   8.936  0.2980  0.1134 -0.5481
   73loPI   C1A 1159   0.417   9.371   8.535 -0.1454 -0.2120  0.1416
   73loPI   C2A 1160   0.562   9.370   8.157  0.0383  0.4646 -0.4008
   73loPI   C3A 1161   0.662   9.770   7.923  0.2722  0.1122 -0.1144
   73loPI   C4A 1162   0.987   9.697   7.701  0.0153 -0.3509  0.0825
   73loPI   C5A 1163   1.115   9.616   7.208 -0.2118  0.1272  0.0051
   73loPI   C6A 1164   1.556   9.544   7.089 -0.0080  0.1448  0.0389
   73loPI   C1B 1165  -0.025   9.162   8.453  0.1735  0.0609  0.1626
   73loPI   C2B 1166   0.040   9.382   8.078  0.2301  0.0289  0.1841
   73loPI   C3B 1167   0.245   9.500   7.635 -0.2169  0.1235  0.2414
   73loPI   C4B 1168   0.564   9.665   7.357 -0.1451  0.2176 -0.3668
   74loPI    C1 1169   2.051   5.993  10.000  0.0341  0.0501 -0.0637
   74loPI    C2 1170   1.672   6.102  10.071  0.0093  0.0072 -0.1291
   74loPI    C3 1171   1.896   5.949  10.366 -0.0081  0.0798 -0.0779
   74loPI   PO4 1172   2.066   6.211   9.699 -0.2269 -0.0949  0.1160
   74loPI   GL1 1173   2.344   6.158   9.399 -0.0331 -0.1592 -0.2977
   74loPI   GL2 1174   2.218   5.971   9.248  0.2803  0.3519  0.1438
   74loPI   C1A 1175   2.319   6.202   8.859 -0.1177 -0.2539 -0.2783
   74loPI   C2A 1176   2.370   6.188   8.391  0.0085 -0.0735  0.0113
   74loPI   C3A 1177   2.584   6.411   8.174 -0.0899 -0.2130  0.1735
   74loPI   C4A 1178   2.927   6.376   7.857  0.1746  0.0943  0.1118
   74loPI   C5A 1179   3.167   6.644   7.770  0.0163 -0.1660  0.1075
   74loPI   C6A 1180   3.399   7.047   7.731 -0.1937 -0.0716  0.1751
   74loPI   C1B 1181   1.936   5.754   8.939 -0.3545  0.4209 -0.4285
   74loPI   C2B 1182   2.032   5.797   8.524 -0.0702 -0.1532  0.4038
   74loPI   C3B 1183   1.884   5.957   8.128 -0.2961  0.0474 -0.1270
   74loPI   C4B 1184   1.697   5.760   7.792 -0.1335  0.0646  0.0651
   75loPI    C1 1185   7.581   2.355   9.836 -0.2123 -0.0451 -0.1213
   75loPI    C2 1186   7.584   2.366  10.236  0.2404  0.2041 -0.1249
   75loPI    C3 1187   7.639   2.019  10.045 -0.2442  0.0375  0.0222
   75loPI   PO4 1188   7.755   2.462   9.734 -0.0253 -0.1515 -0.0921
   75loPI   GL1 1189   7.754   2.480   9.227 -0.0024 -0.1558 -0.4583
   75loPI   GL2 1190   7.898   2.612   8.947 -0.1795 -0.3125  0.2310
   75loPI   C1A 1191   7.522   2.325   8.872 -0.1683  0.1575 -0.0157
   75loPI   C2A 1192   7.319   2.451   8.556  0.0022 -0.0320 -0.0634
   75loPI   C3A 1193   7.211   2.671   8.239 -0.0535  0.0723  0.3870
   75loPI   C4A 1194   7.381   2.777   7.900 -0.4036  0.1143 -0.1169
   75loPI   C5A 1195   7.276   2.830   7.506  0.0896 -0.0220  0.0821
   75loPI   C6A 1196   7.153   2.581   7.112 -0.1714 -0.2135 -0.2028
   75loPI   C1B 1197   7.856   2.362   8.515 -0.0879 -0.1499  0.0198
   75loPI   C2B 1198   7.597   2.365   8.171  0.0978  0.2925  0.1534
   75loPI   C3B 1199   7.444   2.342   7.687 -0.4466  0.3139  0.3240
   75loPI   C4B 1200   7.467   2.172   7.252  0.1080  0.1066 -0.0452
   76loPI    C1 1201   6.050  14.024  10.093 -0.1811 -0.1284 -0.2324
   76loPI    C2 1202   5.912  14.280  10.367 -0.1779 -0.0315 -0.3206
   76loPI    C3 1203   6.265  14.346  10.192 -0.0385 -0.2543 -0.1293
   76loPI   PO4 1204   5.766  14.018   9.970  0.0997 -0.3383 -0.1933
   76loPI   GL1 1205   5.655  13.778   9.608  0.0216 -0.2615 -0.0629
   76loPI   GL2 1206   5.711  13.528   9.581  0.3424 -0.0733 -0.0696
   76loPI   C1A 1207   5.466  13.998   9.138  0.1478 -0.0685  0.5505
   76loPI   C2A 1208   5.246  13.776   8.784 -0.0990  0.2079  0.1524
   76loPI   C3A 1209   5.192  13.560   8.440 -0.2232  0.1994 -0.1699
   76loPI   C4A 1210   5.012  13.683   8.036  0.0617  0.4286 -0.0107
   76loPI   C5A 1211   5.082  13.892   7.632 -0.1868 -0.0850 -0.1053
   76loPI   C6A 1212   5.438  14.030   7.252  0.0662 -0.0230  0.0946
   76loPI   C1B 1213   5.787  13.607   9.206 -0.0654  0.2267 -0.0822
   76loPI   C2B 1214   6.115  13.862   8.953  0.4873  0.1342 -0.0618
   76loPI   C3B 1215   6.206  13.996   8.612 -0.0685  0.1518  0.3943
   76loPI   C4B 1216   5.960  13.922   8.223 -0.0158 -0.3851 -0.0618
   77loPI    C1 1217   8.525  16.224  10.019  0.3062 -0.0799 -0.0734
   77loPI    C2 1218   8.648  16.579  10.156 -0.0424 -0.0889  0.2794
   77loPI    C3 1219   8.888  16.260  10.183  0.2515  0.1039  0.0102
   77loPI   PO4 1220   8.455  16.197   9.815  0.0162 -0.0534  0.2700
   77loPI   GL1 1221   8.530  16.009   9.528  0.1819  0.0231 -0.2248
   77loPI   GL2 1222   8.389  16.348   9.351 -0.2513 -0.1542 -0.2520
   77loPI   C1A 1223   8.900  16.003   9.067  0.2608 -0.1958  0.2763
   77loPI   C2A 1224   9.048  15.695   8.696 -0.1348 -0.1457 -0.1839
   77loPI   C3A 1225   9.408  15.765   8.459  0.2424  0.2246 -0.0052
   77loPI   C4A 1226   9.442  15.725   7.972  0.1729  0.2813 -0.0270
   77loPI   C5A 1227   9.458  15.543   7.603  0.1160 -0.4089 -0.0355
   77loPI   C6A 1228   9.738  15.272   7.400  0.1392 -0.0856 -0.0111
   77loPI   C1B 1229   8.398  15.956   9.071 -0.2519 -0.2162  0.2421
   77loPI   C2B 1230   8.528  15.626   8.766 -0.1295 -0.1425  0.0900
   77loPI   C3B 1231   8.591  15.438   8.400  0.0348  0.0236  0.2383
   77loPI   C4B 1232   8.504  15.231   8.007  0.0475  0.1037  0.0143
   78loPI    C1 1233  14.615   0.031   9.989  0.0368  0.3888 -0.1611
   78loPI    C2 1234  14.933  -0.040  10.220  0.0190 -0.0618 -0.2663
   78loPI    C3 1235  14.565  -0.088  10.367 -0.0007  0.2252 -0.2167
   78loPI   PO4 1236  14.664   0.207   9.877 -0.1250 -0.7303  0.1117
   78loPI   GL1 1237  14.736   0.179   9.455  0.2730 -0.1097 -0.3133
   78loPI   GL2 1238  14.499   0.235   9.326 -0.3078 -0.0072 -0.0688
   78loPI   C1A 1239  14.928  -0.172   9.203  0.3288  0.1146 -0.1599
   78loPI   C2A 1240  15.076  -0.251   8.825 -0.0837  0.1810 -0.2280
   78loPI   C3A 1241  15.151  -0.262   8.440 -0.0738 -0.0627  0.2285
   78loPI   C4A 1242  15.238  -0.187   8.118 -0.1261  0.0864 -0.0337
   78loPI   C5A 1243  15.295  -0.079   7.670  0.1025 -0.2513  0.2025
   78loPI   C6A 1244  15.122   0.056   7.317  0.0695  0.0897  0.1215
   78loPI   C1B 1245  14.699   0.190   8.929  0.0787  0.2865 -0.1645
   78loPI   C2B 1246  14.702   0.073   8.430 -0.2028 -0.0029  0.0776
   78loPI   C3B 1247  14.531   0.107   7.952 -0.0198  0.2553 -0.5138
   78loPI   C4B 1248  14.690  -0.056   7.492 -0.1149  0.1263  0.0853
   79loPI    C1 1249  12.642  18.399  10.129  0.0470  0.0760 -0.1419
   79loPI    C2 1250  12.570  18.782  10.216 -0.1659  0.0171 -0.0529
   79loPI    C3 1251  12.287  18.506  10.276 -0.0063 -0.1581 -0.0952
   79loPI   PO4 1252  12.759  18.425   9.827  0.0722  0.1177 -0.0819
   79loPI   GL1 1253  12.971  18.414   9.401  0.1240 -0.2132  0.2511
   79loPI   GL2 1254  12.709  18.220   9.277 -0.3322 -0.3745  0.2605
   79loPI   C1A 1255  13.240  18.439   9.044 -0.1339  0.0438 -0.2001
   79loPI   C2A 1256  13.451  18.580   8.652  0.2623  0.1898 -0.1397
   79loPI   C3A 1257  13.524  18.571   8.200 -0.0086 -0.1296 -0.1003
   79loPI   C4A 1258  13.535  18.888   7.924 -0.2835  0.1111 -0.1471
   79loPI   C5A 1259  13.483  18.984   7.495 -0.2319  0.0858  0.1304
   79loPI   C6A 1260  13.034  19.147   7.381 -0.0950  0.2248  0.1038
   79loPI   C1B 1261  12.909  18.061   8.815  0.3125 -0.0975  0.0907
   79loPI   C2B 1262  13.160  18.187   8.389  0.1578  0.1243 -0.1257
   79loPI   C3B 1263  13.024  18.298   8.031 -0.1394 -0.1025 -0.1677
   79loPI   C4B 1264  13.247  18.494   7.646 -0.0116  0.3891  0.0958
   80loPI    C1 1265   2.886   3.153   9.825  0.1454 -0.1831 -0.1361
   80loPI    C2 1266   2.763   2.988  10.168 -0.1375 -0.0292 -0.1597
   80loPI    C3 1267   2.919   2.758   9.880  0.1841 -0.1486  0.1019
   80loPI   PO4 1268   2.634   3.293   9.735  0.0953 -0.1729  0.0136
   80loPI   GL1 1269   2.604   3.113   9.348  0.2860 -0.1430  0.1382
   80loPI   GL2 1270   2.551   3.307   9.061 -0.1946  0.1515 -0.1822
   80loPI   C1A 1271   2.950   3.108   8.939 -0.1943  0.2231  0.1005
   80loPI   C2A 1272   3.024   2.941   8.484 -0.0849 -0.0574 -0.0036
   80loPI   C3A 1273   3.045   2.714   8.133 -0.2503  0.0952 -0.1025
   80loPI   C4A 1274   3.093   2.585   7.653  0.0021 -0.2090 -0.0131
   80loPI   C5A 1275   2.820   2.348   7.371 -0.1748 -0.0037 -0.1886
   80loPI   C6A 1276   2.907   1.933   7.530 -0.1166 -0.2069  0.0159
   80loPI   C1B 1277   2.505   2.920   8.723  0.3464 -0.4285 -0.2203
   80loPI   C2B 1278   2.692   2.510   8.671  0.1010  0.1046  0.1969
   80loPI   C3B 1279   2.697   2.382   8.279 -0.4213 -0.0066  0.2294
   80loPI   C4B 1280   2.672   2.215   7.912 -0.0250  0.3896 -0.2822
   81loPI    C1 1281  16.368   4.432   9.622 -0.1895  0.2500  0.2745
   81loPI    C2 1282  16.450   4.655   9.301  0.0486 -0.1453  0.0520
   81loPI    C3 1283  16.070   4.589   9.407 -0.0280  0.1288 -0.0433
   81loPI   PO4 1284  16.459   4.221   9.583 -0.0247 -0.1659 -0.1150
   81loPI   GL1 1285  16.597   4.164   9.245 -0.2998  0.0818  0.0731
   81loPI   GL2 1286  16.537   4.000   8.983 -0.0695 -0.1861 -0.0998
   81loPI   C1A 1287  16.686   4.564   8.919 -0.1368  0.2258 -0.6427
   81loPI   C2A 1288  16.832   4.922   8.752 -0.1309 -0.2373 -0.1191
   81loPI   C3A 1289  16.962   4.936   8.375 -0.0504 -0.1878  0.1423
   81loPI   C4A 1290  16.942   5.249   7.977 -0.0161  0.2785 -0.0198
   81loPI   C5A 1291  17.156   5.597   7.923  0.1291  0.0434 -0.1418
   81loPI   C6A 1292  17.353   5.867   7.586  0.0274  0.2407  0.0081
   81loPI   C1B 1293  16.210   4.311   8.923 -0.3085 -0.2214  0.1984
   81loPI   C2B 1294  16.111   4.454   8.495  0.4011  0.1116 -0.0261
   81loPI   C3B 1295  16.090   4.782   8.138  0.0829 -0.0205 -0.0409
   81loPI   C4B 1296  16.199   4.918   7.737 -0.1313  0.1217  0.1101
   82loPI    C1 1297  12.612  12.013  10.262 -0.1480 -0.1903  0.0892
   82loPI    C2 1298  12.974  12.081  10.419 -0.1839  0.0610  0.0669
   82loPI    C3 1299  12.706  11.863  10.622  0.0672 -0.3517 -0.0317
   82loPI   PO4 1300  12.619  12.082  10.031  0.1769  0.0693  0.0584
   82loPI   GL1 1301  12.277  12.127   9.730  0.2418  0.0406 -0.1753
   82loPI   GL2 1302  12.072  12.321   9.618 -0.1162 -0.1242 -0.0259
   82loPI   C1A 1303  12.402  12.157   9.292 -0.1387  0.0012  0.2638
   82loPI   C2A 1304  12.373  12.061   8.822 -0.0247 -0.0724  0.0290
   82loPI   C3A 1305  12.220  11.878   8.523  0.0909  0.0759 -0.1053
   82loPI   C4A 1306  11.979  11.521   8.376 -0.0628  0.0702 -0.0891
   82loPI   C5A 1307  11.918  11.327   7.942 -0.0333  0.1019 -0.0007
   82loPI   C6A 1308  12.143  11.424   7.604  0.1132  0.0148  0.2510
   82loPI   C1B 1309  12.174  12.614   9.289  0.1704  0.2002 -0.1140
   82loPI   C2B 1310  12.311  12.653   8.903 -0.0287  0.0054 -0.0475
   82loPI   C3B 1311  12.114  12.840   8.460 -0.0687  0.0196 -0.2202
   82loPI   C4B 1312  12.008  13.077   8.060 -0.2778  0.1784  0.0372
   83loPI    C1 1313   1.392  15.976  10.295  0.0248 -0.0192  0.0823
   83loPI    C2 1314   1.572  16.048  10.645 -0.0189 -0.0079  0.1024
   83loPI    C3 1315   1.450  15.678  10.554 -0.0806  0.0046  0.1337
   83loPI   PO4 1316   1.138  16.093  10.186  0.3286 -0.0497 -0.1077
   83loPI   GL1 1317   1.043  16.253   9.787 -0.1418 -0.7151 -0.2215
   83loPI   GL2 1318   1.043  16.590   9.676  0.2312 -0.0664 -0.0227
   83loPI   C1A 1319   1.122  16.117   9.447  0.1690 -0.1906  0.0786
   83loPI   C2A 1320   0.963  16.297   9.115 -0.0751 -0.0557  0.2468
   83loPI   C3A 1321   0.857  16.345   8.769  0.0662  0.0096  0.0323
   83loPI   C4A 1322   0.776  16.334   8.336  0.4123  0.0167  0.3960
   83loPI   C5A 1323   0.658  16.420   8.001  0.0549  0.1477 -0.1292
   83loPI   C6A 1324   0.704  16.524   7.705 -0.0597  0.0801  0.3594
   83loPI   C1B 1325   1.372  16.577   9.246  0.2385  0.1540 -0.3384
   83loPI   C2B 1326   1.568  16.228   8.908  0.0731  0.1133  0.0005
   83loPI   C3B 1327   1.565  15.938   8.529  0.2809 -0.1534 -0.3491
   83loPI   C4B 1328   1.479  15.853   8.086  0.1457 -0.1362 -0.3259
   84loPI    C1 1329   2.277  18.226   9.870  0.0987 -0.1483 -0.0570
   84loPI    C2 1330   2.335  18.061  10.230  0.0022  0.0772  0.0640
   84loPI    C3 1331   2.032  18.316  10.173  0.1159  0.1707 -0.1344
   84loPI   PO4 1332   2.227  18.017   9.679  0.0102  0.0808 -0.0138
   84loPI   GL1 1333   1.997  17.947   9.380 -0.1704  0.1736 -0.2311
   84loPI   GL2 1334   1.826  17.733   9.482  0.0509  0.0399 -0.1441
   84loPI   C1A 1335   2.149  17.986   8.891 -0.0673 -0.1445 -0.0370
   84loPI   C2A 1336   2.162  17.754   8.601  0.1367  0.0562  0.0825
   84loPI   C3A 1337   2.415  17.615   8.234 -0.0338  0.1165  0.0615
   84loPI   C4A 1338   2.439  17.256   7.792  0.2855  0.1933  0.1055
   84loPI   C5A 1339   2.088  17.446   7.553  0.0569  0.1647 -0.3389
   84loPI   C6A 1340   1.646  17.436   7.350  0.0448 -0.0251 -0.4754
   84loPI   C1B 1341   1.798  17.635   9.055 -0.1385  0.2479  0.0920
   84loPI   C2B 1342   1.684  17.580   8.607 -0.1799  0.0802 -0.2293
   84loPI   C3B 1343   1.851  17.674   8.263  0.1083  0.2542 -0.0812
   84loPI   C4B 1344   2.120  17.819   7.917  0.1080  0.3683 -0.1509
   85loPI    C1 1345  19.118   7.457   9.931 -0.1121 -0.2575 -0.1190
   85loPI    C2 1346  19.247   7.122  10.108 -0.5192 -0.3389  0.0358
   85loPI    C3 1347  19.215   7.460  10.319  0.1675 -0.1175 -0.1878
   85loPI   PO4 1348  19.206   7.363   9.517  0.2587 -0.1718  0.1684
   85loPI   GL1 1349  19.055   7.595   9.268 -0.0687  0.0905  0.1854
   85loPI   GL2 1350  19.310   7.782   9.228  0.1237  0.0530 -0.2707
   85loPI   C1A 1351  18.896   7.858   8.907 -0.0527  0.1447 -0.1480
   85loPI   C2A 1352  18.876   7.944   8.450  0.0116 -0.0658 -0.0763
   85loPI   C3A 1353  18.959   7.803   8.056 -0.0006  0.1629 -0.2531
   85loPI   C4A 1354  19.006   7.414   8.006  0.2769  0.0900 -0.2809
   85loPI   C5A 1355  19.005   7.073   7.718 -0.1871 -0.2515  0.1825
   85loPI   C6A 1356  19.088   7.104   7.272 -0.1234  0.0454 -0.1424
   85loPI   C1B 1357  19.305   7.672   8.812 -0.0149  0.1505 -0.0706
   85loPI   C2B 1358  19.378   7.826   8.417  0.0281 -0.0295  0.0363
   85loPI   C3B 1359  19.444   7.632   8.054 -0.0691  0.0924  0.0511
   85loPI   C4B 1360  19.695   7.554   7.653  0.0378 -0.0379  0.0172
   86loPI    C1 1361  16.764  14.204  10.220 -0.0138  0.2146  0.3421
   86loPI    C2 1362  16.898  13.911  10.457 -0.2017  0.0923  0.2993
   86loPI    C3 1363  16.703  14.223  10.615 -0.3666 -0.0114  0.3032
   86loPI   PO4 1364  16.986  14.221  10.068 -0.2190  0.1670 -0.2561
   86loPI   GL1 1365  17.104  14.026   9.723  0.2263 -0.0864  0.1278
   86loPI   GL2 1366  17.073  14.405   9.637  0.0236 -0.0009 -0.3701
   86loPI   C1A 1367  17.130  13.886   9.277  0.1147  0.1913  0.0385
   86loPI   C2A 1368  17.109  14.081   8.871 -0.0492 -0.0330  0.1054
   86loPI   C3A 1369  17.220  14.147   8.420 -0.1330  0.5389 -0.1394
   86loPI   C4A 1370  17.294  14.502   8.106 -0.1542  0.1119 -0.0791
   86loPI   C5A 1371  17.374  14.624   7.738 -0.1336 -0.0942 -0.0771
   86loPI   C6A 1372  17.449  14.733   7.323  0.0106 -0.1260 -0.4253
   86loPI   C1B 1373  17.103  14.500   9.252  0.1288  0.2166  0.2295
   86loPI   C2B 1374  17.080  14.626   8.800  0.1031  0.4067 -0.2069
   86loPI   C3B 1375  17.188  14.803   8.508  0.1372  0.0654  0.1023
   86loPI   C4B 1376  17.005  14.902   8.113 -0.3093 -0.0958  0.1110
   87loPI    C1 1377   4.575   2.965   9.761  0.0236  0.0420  0.0851
   87loPI    C2 1378   4.782   3.293   9.857  0.1383  0.0111 -0.0538
   87loPI    C3 1379   4.673   3.034  10.142 -0.2244  0.3244  0.1015
   87loPI   PO4 1380   4.341   3.105   9.545 -0.1262  0.2330 -0.1783
   87loPI   GL1 1381   4.482   3.140   9.104  0.0882  0.4701  0.0923
   87loPI   GL2 1382   4.072   3.199   9.060  0.0220  0.1351 -0.0893
   87loPI   C1A 1383   4.425   3.109   8.694  0.0645  0.1708 -0.3290
   87loPI   C2A 1384   4.453   3.325   8.288 -0.1177 -0.1669  0.1130
   87loPI   C3A 1385   4.252   3.458   7.937 -0.1039  0.1204  0.2850
   87loPI   C4A 1386   3.911   3.688   7.721 -0.0288 -0.0376  0.2135
   87loPI   C5A 1387   3.503   3.827   7.534  0.0002 -0.0464  0.1087
   87loPI   C6A 1388   3.309   4.013   7.325  0.1072 -0.0857 -0.1156
   87loPI   C1B 1389   4.010   2.857   8.872  0.0262  0.0586 -0.0120
   87loPI   C2B 1390   3.848   2.629   8.692 -0.0319 -0.0356  0.3137
   87loPI   C3B 1391   3.920   2.393   8.384 -0.0326  0.0197 -0.0120
   87loPI   C4B 1392   4.255   2.261   8.150 -0.0099 -0.1475  0.2453
   88loPI    C1 1393   9.795  14.957   9.763 -0.1398 -0.1624 -0.0245
   88loPI    C2 1394  10.012  14.981  10.099 -0.1475 -0.0374 -0.0284
   88loPI    C3 1395   9.688  14.747  10.087 -0.0475 -0.1782 -0.0041
   88loPI   PO4 1396   9.893  14.766   9.586 -0.2759 -0.2256  0.3660
   88loPI   GL1 1397   9.808  14.819   9.122 -0.1279  0.2321 -0.1974
   88loPI   GL2 1398   9.682  15.005   8.937  0.3521  0.1237 -0.1897
   88loPI   C1A 1399   9.535  14.524   8.965  0.1587  0.3500  0.2704
   88loPI   C2A 1400   9.461  14.343   8.511  0.3264  0.0979  0.1894
   88loPI   C3A 1401   9.376  14.018   8.267  0.1071 -0.0755 -0.3263
   88loPI   C4A 1402   9.245  13.739   7.934 -0.1802 -0.1128 -0.2565
   88loPI   C5A 1403   8.957  13.643   7.653 -0.0515 -0.0055 -0.1228
   88loPI   C6A 1404   8.681  13.693   7.380  0.2216 -0.2829  0.1073
   88loPI   C1B 1405   9.576  15.201   8.489 -0.0281  0.2762 -0.1099
   88loPI   C2B 1406   9.761  15.324   8.152  0.1141  0.0856  0.1581
   88loPI   C3B 1407  10.108  15.496   7.895 -0.1132  0.1263 -0.1743
   88loPI   C4B 1408  10.058  15.660   7.415 -0.0438 -0.2316  0.2986
   89loPI    C1 1409  16.514  11.109   9.809 -0.2024 -0.0330  0.0609
   89loPI    C2 1410  16.582  11.314  10.146 -0.0189  0.0355 -0.0167
   89loPI    C3 1411  16.755  10.958  10.090 -0.0432  0.0276 -0.0414
   89loPI   PO4 1412  16.422  11.385   9.645  0.1268  0.0082  0.1597
   89loPI   GL1 1413  16.389  11.553   9.300  0.4879 -0.0661 -0.0682
   89loPI   GL2 1414  16.248  11.221   9.246  0.5012  0.1673 -0.1337
   89loPI   C1A 1415  16.520  11.461   8.934 -0.2418  0.0343 -0.1200
   89loPI   C2A 1416  16.442  11.562   8.511  0.3479  0.1652  0.0340
   89loPI   C3A 1417  16.528  11.334   8.025  0.1733 -0.0013  0.1060
   89loPI   C4A 1418  16.682  11.060   7.713  0.0147 -0.1804 -0.0060
   89loPI   C5A 1419  17.048  10.770   7.602 -0.0172  0.1761 -0.0793
   89loPI   C6A 1420  17.258  10.502   7.415 -0.0611 -0.0623 -0.1316
   89loPI   C1B 1421  16.037  11.424   8.840  0.1717 -0.2523  0.1028
   89loPI   C2B 1422  15.854  11.405   8.486  0.0576  0.1471 -0.0468
   89loPI   C3B 1423  15.528  11.266   8.198  0.3951 -0.1002 -0.0368
   89loPI   C4B 1424  15.256  11.359   7.883 -0.1529  0.0879  0.2020
   90loPI    C1 1425   9.177   7.976   9.599  0.0973 -0.0020  0.1008
   90loPI    C2 1426   9.108   7.912   9.988 -0.4078 -0.2044 -0.0144
   90loPI    C3 1427   9.202   8.279   9.859 -0.1365 -0.1561  0.3068
   90loPI   PO4 1428   9.338   7.810   9.497 -0.2260  0.1498 -0.1459
   90loPI   GL1 1429   9.582   7.875   8.974  0.1316  0.0488  0.2377
   90loPI   GL2 1430   9.309   7.649   9.049 -0.0600  0.1726  0.2401
   90loPI   C1A 1431   9.647   7.990   8.578  0.1576 -0.3710  0.0614
   90loPI   C2A 1432   9.768   8.149   8.161 -0.0061  0.2749 -0.0422
   90loPI   C3A 1433   9.823   8.410   7.936  0.0791  0.1631 -0.2884
   90loPI   C4A 1434   9.853   8.628   7.522 -0.0489  0.3091  0.1042
   90loPI   C5A 1435  10.251   8.805   7.447 -0.1545  0.3926 -0.0586
   90loPI   C6A 1436  10.533   8.964   7.022  0.3831  0.1201 -0.0311
   90loPI   C1B 1437   9.217   7.734   8.656  0.0994 -0.3091  0.0104
   90loPI   C2B 1438   9.185   7.836   8.321 -0.3361 -0.1768  0.4250
   90loPI   C3B 1439   8.958   8.066   8.063  0.1211 -0.0595 -0.3367
   90loPI   C4B 1440   8.468   8.057   7.757 -0.4259  0.1216  0.0830
   91loPI    C1 1441   7.018  13.016  10.529 -0.0065 -0.3038 -0.0074
   91loPI    C2 1442   6.684  12.874  10.697 -0.1239  0.1804  0.1854
   91loPI    C3 1443   6.716  13.264  10.615  0.2795  0.0907 -0.1136
   91loPI   PO4 1444   7.097  12.839  10.337 -0.1413 -0.1929 -0.1347
   91loPI   GL1 1445   7.057  12.860   9.884 -0.0099  0.0165 -0.0849
   91loPI   GL2 1446   6.836  12.625   9.634 -0.0005 -0.1244  0.1269
   91loPI   C1A 1447   7.128  12.923   9.374 -0.1695 -0.2522 -0.2113
   91loPI   C2A 1448   7.197  13.022   9.030 -0.1106  0.2816 -0.1349
   91loPI   C3A 1449   7.146  12.981   8.596  0.0142 -0.0376  0.2608
   91loPI   C4A 1450   7.031  13.156   8.219 -0.0323  0.0181  0.0644
   91loPI   C5A 1451   6.925  13.169   7.702  0.1691 -0.0186 -0.3541
   91loPI   C6A 1452   6.883  13.032   7.284 -0.1821  0.1019 -0.0340
   91loPI   C1B 1453   6.834  12.657   9.093  0.0802  0.1311  0.1676
   91loPI   C2B 1454   6.731  12.632   8.625 -0.2497 -0.0792 -0.0402
   91loPI   C3B 1455   6.565  12.546   8.239 -0.0192 -0.0298 -0.0024
   91loPI   C4B 1456   6.321  12.518   7.853 -0.0750 -0.0649 -0.1154
   92loPI    C1 1457   9.156  13.736   9.566 -0.1028 -0.3654 -0.0597
   92loPI    C2 1458   8.776  13.637   9.640 -0.1798  0.1279  0.2497
   92loPI    C3 1459   9.040  13.655   9.940  0.0112  0.1056  0.0846
   92loPI   PO4 1460   9.224  13.605   9.407  0.0503 -0.2824 -0.2112
   92loPI   GL1 1461   9.436  13.567   9.140 -0.2751  0.0172  0.0411
   92loPI   GL2 1462   9.522  13.168   9.330 -0.0690  0.2136 -0.1673
   92loPI   C1A 1463   9.468  13.580   8.660  0.1240  0.1675 -0.2944
   92loPI   C2A 1464   9.523  13.570   8.275  0.0043  0.1346 -0.4058
   92loPI   C3A 1465   9.809  13.481   8.041 -0.0427  0.1842  0.1457
   92loPI   C4A 1466  10.113  13.265   7.724  0.2484  0.0556  0.0991
   92loPI   C5A 1467  10.147  12.738   7.621  0.1913  0.0941  0.3014
   92loPI   C6A 1468   9.812  12.564   7.807  0.1083 -0.1215  0.0502
   92loPI   C1B 1469   9.542  13.026   8.890 -0.1387  0.5539 -0.0407
   92loPI   C2B 1470   9.519  12.979   8.437 -0.1893  0.2876  0.3866
   92loPI   C3B 1471   9.523  13.100   7.962 -0.0978 -0.1756 -0.0373
   92loPI   C4B 1472   9.637  12.937   7.506 -0.0884  0.0426  0.2445
   93loPI    C1 1473   0.244  14.620  10.141 -0.1789  0.0334  0.0408
   93loPI    C2 1474  -0.131  14.557  10.266 -0.1610 -0.0858  0.0360
   93loPI    C3 1475   0.025  14.327   9.979 -0.0834 -0.0370  0.0387
   93loPI   PO4 1476   0.252  14.867  10.210 -0.0916  0.0488  0.3733
   93loPI   GL1 1477   0.172  15.115   9.960 -0.0455 -0.0092 -0.1055
   93loPI   GL2 1478   0.116  15.388   9.805 -0.0299 -0.0379 -0.1358
   93loPI   C1A 1479   0.523  15.146   9.581  0.2393 -0.1805  0.1234
   93loPI   C2A 1480   0.680  15.185   9.168 -0.1421 -0.0100 -0.0862
   93loPI   C3A 1481   0.770  15.402   8.718 -0.0912 -0.3038  0.0723
   93loPI   C4A 1482   0.731  15.541   8.400  0.0318  0.2564  0.0719
   93loPI   C5A 1483   0.668  15.659   7.962  0.1054  0.0265 -0.0753
   93loPI   C6A 1484   0.755  15.816   7.551 -0.1361 -0.0316 -0.0229
   93loPI   C1B 1485   0.133  15.460   9.296 -0.1285 -0.0169 -0.2694
   93loPI   C2B 1486   0.348  15.501   8.935 -0.0203  0.1033 -0.0996
   93loPI   C3B 1487   0.301  15.568   8.553  0.0991  0.0257 -0.2057
   93loPI   C4B 1488   0.204  15.546   8.177 -0.1941  0.2632 -0.0306
   94loPI    C1 1489  12.261  13.686   9.826 -0.0841 -0.3012 -0.0200
   94loPI    C2 1490  12.537  13.459   9.646  0.0979  0.0108 -0.1419
   94loPI    C3 1491  12.575  13.550  10.034  0.0690 -0.0965 -0.1136
   94loPI   PO4 1492  12.305  13.913   9.704  0.1309  0.1043  0.2342
   94loPI   GL1 1493  12.395  14.208   9.463 -0.1280  0.5099 -0.0327
   94loPI   GL2 1494  12.193  14.045   9.228 -0.0603 -0.2369 -0.2859
   94loPI   C1A 1495  12.424  14.533   9.244 -0.3696 -0.1812 -0.2706
   94loPI   C2A 1496  12.214  14.889   9.136 -0.0862  0.2143 -0.2996
   94loPI   C3A 1497  12.016  14.957   8.819 -0.1411  0.3527  0.1184
   94loPI   C4A 1498  11.815  14.907   8.533 -0.2404  0.0628 -0.0608
   94loPI   C5A 1499  11.889  15.069   8.230 -0.0354 -0.1003  0.0197
   94loPI   C6A 1500  11.862  15.095   7.778  0.1201 -0.1683 -0.1455
   94loPI   C1B 1501  12.350  14.207   8.835  0.2567 -0.2641 -0.2269
   94loPI   C2B 1502  12.394  14.214   8.342  0.0093  0.0233  0.2765
   94loPI   C3B 1503  12.565  14.030   7.975  0.1445 -0.0412 -0.0035
   94loPI   C4B 1504  12.567  13.605   7.958 -0.1411  0.0813  0.1565
   95loPI    C1 1505   9.392  17.100  10.024  0.1728 -0.1347 -0.0677
   95loPI    C2 1506   9.126  16.801  10.036 -0.2338  0.2146 -0.1433
   95loPI    C3 1507   9.271  16.954  10.376  0.0164 -0.0976 -0.1051
   95loPI   PO4 1508   9.541  16.984   9.788 -0.0721  0.0546  0.2115
   95loPI   GL1 1509   9.816  16.988   9.333 -0.0531  0.0748  0.1101
   95loPI   GL2 1510   9.501  17.079   9.124  0.0843 -0.0516 -0.0658
   95loPI   C1A 1511   9.988  16.912   8.969  0.1165 -0.1399  0.2409
   95loPI   C2A 1512  10.123  16.706   8.609  0.1950 -0.2004 -0.0248
   95loPI   C3A 1513  10.202  16.648   8.171  0.2371  0.1884  0.0202
   95loPI   C4A 1514  10.095  16.802   7.806 -0.2105  0.0748  0.1759
   95loPI   C5A 1515  10.067  16.869   7.443 -0.1810 -0.1749 -0.1112
   95loPI   C6A 1516   9.998  16.646   7.141  0.0828 -0.1003 -0.1396
   95loPI   C1B 1517   9.425  16.780   8.980 -0.1180 -0.1438 -0.0615
   95loPI   C2B 1518   9.151  16.616   8.637  0.3558 -0.0621 -0.2158
   95loPI   C3B 1519   8.968  16.652   8.227 -0.2999  0.1144  0.1883
   95loPI   C4B 1520   8.928  16.463   7.810 -0.3040  0.2784 -0.0960
   96loPI    C1 1521  17.034   6.112   9.529 -0.0983  0.0322  0.1541
   96loPI    C2 1522  17.276   5.855   9.717  0.0851 -0.0212 -0.1490
   96loPI    C3 1523  17.366   6.245   9.709  0.0398 -0.0089 -0.0668
   96loPI   PO4 1524  16.794   5.951   9.583 -0.2398 -0.0893  0.0554
   96loPI   GL1 1525  16.592   5.779   9.279  0.0093  0.1169  0.2127
   96loPI   GL2 1526  16.780   5.598   9.240  0.2678  0.1173  0.1570
   96loPI   C1A 1527  16.666   5.884   8.841  0.4076 -0.1438  0.0467
   96loPI   C2A 1528  16.588   6.083   8.434 -0.0709  0.1924  0.0368
   96loPI   C3A 1529  16.648   6.383   8.108 -0.2633 -0.1433 -0.1516
   96loPI   C4A 1530  16.665   6.680   7.761  0.0958  0.3522  0.0280
   96loPI   C5A 1531  16.674   6.877   7.271  0.2119  0.2798 -0.0409
   96loPI   C6A 1532  16.565   7.151   6.863  0.0259  0.0752 -0.3485
   96loPI   C1B 1533  16.989   5.406   8.950  0.0560 -0.1528  0.1668
   96loPI   C2B 1534  16.787   5.378   8.519 -0.0486  0.0407 -0.3801
   96loPI   C3B 1535  16.672   5.658   8.161 -0.1602 -0.1281  0.1510
   96loPI   C4B 1536  16.691   5.759   7.704 -0.1446  0.2937 -0.0048
   97loPI    C1 1537  18.504  11.614   9.948  0.0469 -0.2030 -0.3122
   97loPI    C2 1538  18.347  11.963   9.831  0.1393 -0.0534 -0.0011
   97loPI    C3 1539  18.146  11.729  10.086  0.1809 -0.1181 -0.0273
   97loPI   PO4 1540  18.566  11.489   9.693 -0.0892 -0.1823  0.2030
   97loPI   GL1 1541  18.471  11.392   9.287 -0.0187 -0.1431 -0.1013
   97loPI   GL2 1542  18.792  11.492   9.232  0.1928 -0.0543 -0.2923
   97loPI   C1A 1543  18.440  11.470   8.802  0.4524 -0.1465  0.1018
   97loPI   C2A 1544  18.631  11.437   8.381  0.5548 -0.1865  0.0280
   97loPI   C3A 1545  18.279  11.290   8.128 -0.1953  0.1646  0.2661
   97loPI   C4A 1546  17.990  11.023   7.842 -0.2279 -0.1341  0.0914
   97loPI   C5A 1547  17.810  10.590   7.727  0.0441  0.0582 -0.0152
   97loPI   C6A 1548  17.741  10.430   7.279  0.0415 -0.1658  0.1414
   97loPI   C1B 1549  18.829  11.249   8.933  0.1203  0.3279  0.0738
   97loPI   C2B 1550  18.630  10.971   8.585 -0.2135 -0.0912 -0.4235
   97loPI   C3B 1551  18.714  10.905   8.171 -0.1657 -0.0109 -0.0345
   97loPI   C4B 1552  18.573  11.032   7.791 -0.1091 -0.2145 -0.2995
   98loPI    C1 1553  16.011   8.553  10.153  0.1434 -0.4836 -0.4018
   98loPI    C2 1554  16.263   8.835  10.282 -0.2817 -0.0949 -0.3940
   98loPI    C3 1555  16.343   8.449  10.351  0.2908  0.0176 -0.3721
   98loPI   PO4 1556  15.928   8.739   9.950  0.0305  0.2042  0.0470
   98loPI   GL1 1557  15.656   8.787   9.595  0.0664 -0.2392 -0.0886
   98loPI   GL2 1558  15.450   8.949   9.861 -0.3993 -0.0533  0.2028
   98loPI   C1A 1559  15.530   8.550   9.280  0.0732  0.0176  0.0273
   98loPI   C2A 1560  15.663   8.406   8.969 -0.1948  0.2717 -0.1973
   98loPI   C3A 1561  15.667   8.335   8.481 -0.1407 -0.1173 -0.1426
   98loPI   C4A 1562  15.473   8.403   8.058  0.2499 -0.4702 -0.1298
   98loPI   C5A 1563  15.568   8.566   7.642  0.1847  0.1061 -0.0993
   98loPI   C6A 1564  15.788   8.861   7.373  0.2225  0.1721 -0.0220
   98loPI   C1B 1565  15.198   8.937   9.352  0.2444 -0.0613 -0.2703
   98loPI   C2B 1566  14.951   8.573   9.153  0.0483  0.0879  0.0436
   98loPI   C3B 1567  14.969   8.601   8.779 -0.1210 -0.0348  0.3323
   98loPI   C4B 1568  15.133   8.363   8.503 -0.0962 -0.0238 -0.3935
   99loPI    C1 1569  15.207   3.861   9.706  0.2504  0.0156  0.0111
   99loPI    C2 1570  15.241   3.497   9.543  0.2054  0.0679 -0.1170
   99loPI    C3 1571  15.157   3.535   9.932  0.1057 -0.0585 -0.1254
   99loPI   PO4 1572  15.026   4.040   9.556  0.3375 -0.3025 -0.0362
   99loPI   GL1 1573  14.814   4.189   9.212 -0.1571 -0.2733  0.1739
   99loPI   GL2 1574  14.727   4.504   9.279 -0.0868  0.0094 -0.5914
   99loPI   C1A 1575  14.523   4.192   8.954  0.2640 -0.1334  0.0886
   99loPI   C2A 1576  14.414   4.206   8.559  0.2259  0.1876  0.1150
   99loPI   C3A 1577  14.328   4.468   8.278  0.2155  0.0924 -0.0872
   99loPI   C4A 1578  14.146   4.802   8.009  0.3819 -0.2227 -0.0851
   99loPI   C5A 1579  14.057   4.979   7.530  0.1234 -0.0215  0.1747
   99loPI   C6A 1580  13.846   4.798   7.182 -0.0784 -0.0767  0.1653
   99loPI   C1B 1581  14.639   4.780   8.872  0.1483 -0.1430 -0.2311
   99loPI   C2B 1582  14.362   5.014   8.621  0.2107 -0.0964  0.2731
   99loPI   C3B 1583  14.558   5.260   8.302 -0.1630 -0.3928  0.4981
   99loPI   C4B 1584  14.463   5.215   7.873 -0.0674  0.0641 -0.3332
  100loPI    C1 1585  16.735   7.932   9.841 -0.0156  0.2811 -0.0468
  100loPI    C2 1586  16.378   8.101   9.902  0.0276  0.3098  0.1314
  100loPI    C3 1587  16.592   7.967  10.212  0.1848  0.3194  0.0283
  100loPI   PO4 1588  16.730   7.812   9.632 -0.0092  0.3455  0.0052
  100loPI   GL1 1589  16.881   7.861   9.250  0.1065 -0.0848  0.2373
  100loPI   GL2 1590  17.147   7.961   9.411 -0.2312 -0.1023 -0.0140
  100loPI   C1A 1591  16.959   7.861   8.816 -0.1638 -0.0680  0.0508
  100loPI   C2A 1592  16.924   7.941   8.416 -0.0649 -0.2108 -0.1279
  100loPI   C3A 1593  16.972   8.200   7.985  0.1591 -0.0019  0.0185
  100loPI   C4A 1594  17.067   8.268   7.531 -0.4033 -0.0055 -0.3194
  100loPI   C5A 1595  17.300   8.504   7.244  0.1046  0.0371 -0.0894
  100loPI   C6A 1596  17.608   8.793   7.053  0.0524  0.3819 -0.1594
  100loPI   C1B 1597  16.995   8.274   9.058 -0.3458 -0.0289 -0.0774
  100loPI   C2B 1598  17.118   8.459   8.651  0.0179 -0.0073  0.0209
  100loPI   C3B 1599  17.175   8.494   8.326 -0.1671 -0.1906 -0.0855
  100loPI   C4B 1600  17.062   8.732   7.973  0.0345  0.0191  0.1018
  101loPI    C1 1601  12.384   6.669   9.627  0.1103  0.0766  0.2442
  101loPI    C2 1602  12.180   6.556   9.952 -0.1604  0.0938  0.0830
  101loPI    C3 1603  12.361   6.281   9.725 -0.4313  0.0233 -0.0526
  101loPI   PO4 1604  12.306   6.856   9.535  0.0457 -0.1481  0.2059
  101loPI   GL1 1605  12.236   7.081   9.170 -0.2835  0.2474 -0.0605
  101loPI   GL2 1606  12.404   6.824   8.942  0.1557  0.1118  0.2238
  101loPI   C1A 1607  12.024   7.035   8.739 -0.2148 -0.0274  0.0614
  101loPI   C2A 1608  11.871   7.222   8.388 -0.3730 -0.1131 -0.0651
  101loPI   C3A 1609  11.776   7.469   7.984 -0.0414 -0.0209  0.0762
  101loPI   C4A 1610  11.556   7.618   7.624  0.3673  0.1921  0.1341
  101loPI   C5A 1611  11.364   7.665   7.204  0.1092  0.1807 -0.0821
  101loPI   C6A 1612  11.275   7.532   6.829 -0.3164 -0.2420 -0.2956
  101loPI   C1B 1613  12.463   6.859   8.476 -0.1437 -0.0318 -0.5530
  101loPI   C2B 1614  12.528   7.067   8.081  0.0261 -0.0223  0.0938
  101loPI   C3B 1615  12.718   7.044   7.701  0.1489  0.1303  0.1644
  101loPI   C4B 1616  12.716   6.689   7.504  0.0453  0.0405  0.0442
  102loPI    C1 1617   3.845   4.227   9.918  0.2005  0.0193 -0.1322
  102loPI    C2 1618   4.043   3.917   9.763  0.1934  0.0942 -0.2931
  102loPI    C3 1619   4.210   4.137  10.052  0.0381 -0.3006  0.1089
  102loPI   PO4 1620   3.564   4.066   9.795 -0.0272 -0.0065  0.0274
  102loPI   GL1 1621   3.321   4.162   9.383  0.1151  0.0325  0.0199
  102loPI   GL2 1622   3.332   3.839   9.210  0.1422 -0.0790  0.2503
  102loPI   C1A 1623   3.027   4.300   9.130  0.2272  0.2554 -0.0067
  102loPI   C2A 1624   3.106   4.496   8.699  0.1274  0.1972  0.0321
  102loPI   C3A 1625   3.430   4.694   8.411  0.3382 -0.5567  0.3516
  102loPI   C4A 1626   3.340   4.543   7.972 -0.1958 -0.0939 -0.0494
  102loPI   C5A 1627   3.424   4.468   7.607 -0.1070  0.1609 -0.0434
  102loPI   C6A 1628   3.604   4.616   7.265  0.0380  0.0857  0.0336
  102loPI   C1B 1629   3.160   3.937   8.746 -0.0338  0.3223 -0.0546
  102loPI   C2B 1630   2.881   4.086   8.393  0.3304 -0.1873  0.0927
  102loPI   C3B 1631   2.779   3.836   8.030  0.1163  0.0179 -0.4726
  102loPI   C4B 1632   2.586   3.828   7.648  0.2337  0.2911  0.2138
  103loPI    C1 1633   6.869   3.909   9.432  0.0357  0.3038 -0.2467
  103loPI    C2 1634   6.641   3.899   9.760  0.0240  0.3514 -0.2533
  103loPI    C3 1635   7.039   3.922   9.795  0.0560 -0.1341 -0.2350
  103loPI   PO4 1636   6.696   3.894   9.271  0.0250  0.0599  0.0795
  103loPI   GL1 1637   6.653   3.811   8.825  0.0272 -0.0502  0.1227
  103loPI   GL2 1638   6.532   3.553   8.825  0.0834 -0.1836  0.1632
  103loPI   C1A 1639   6.488   3.756   8.379  0.1085 -0.2870  0.0608
  103loPI   C2A 1640   6.545   3.759   7.940  0.0851  0.3130  0.1504
  103loPI   C3A 1641   6.536   3.868   7.509  0.0759 -0.3069  0.1244
  103loPI   C4A 1642   6.739   3.805   7.288  0.3866 -0.0203 -0.0421
  103loPI   C5A 1643   6.942   3.888   6.965  0.0532  0.1361 -0.0880
  103loPI   C6A 1644   7.021   3.773   6.627  0.0093 -0.0886 -0.1585
  103loPI   C1B 1645   6.742   3.329   8.553 -0.1349  0.0957  0.0459
  103loPI   C2B 1646   6.620   3.221   8.176 -0.4052 -0.0821  0.4145
  103loPI   C3B 1647   6.569   3.135   7.663  0.4445  0.1871  0.2290
  103loPI   C4B 1648   6.526   3.332   7.165  0.0088 -0.2268 -0.1571
  104loPI    C1 1649  13.149   1.460  10.031 -0.0148  0.4834  0.1797
  104loPI    C2 1650  13.238   1.215  10.335  0.1027  0.2021 -0.0761
  104loPI    C3 1651  12.859   1.255  10.215  0.0958  0.0589 -0.1037
  104loPI   PO4 1652  13.217   1.417   9.821 -0.0615  0.1707  0.0505
  104loPI   GL1 1653  13.314   1.272   9.290  0.0580  0.1390 -0.1877
  104loPI   GL2 1654  13.434   1.521   9.249 -0.1833  0.1845  0.3668
  104loPI   C1A 1655  13.154   1.141   8.903 -0.2530  0.1602 -0.2085
  104loPI   C2A 1656  13.362   0.853   8.553 -0.3185  0.1152  0.2204
  104loPI   C3A 1657  13.370   0.682   8.157 -0.0950  0.1865 -0.1244
  104loPI   C4A 1658  13.283   0.741   7.748 -0.0306  0.1449 -0.0262
  104loPI   C5A 1659  13.060   0.934   7.482  0.2308 -0.0069  0.1544
  104loPI   C6A 1660  12.932   1.405   7.330 -0.4627 -0.3216 -0.2083
  104loPI   C1B 1661  13.462   1.506   8.854 -0.3049  0.1374 -0.0460
  104loPI   C2B 1662  13.464   1.322   8.479  0.1128  0.1514  0.0956
  104loPI   C3B 1663  13.338   1.206   8.120  0.0741  0.1323 -0.2339
  104loPI   C4B 1664  13.321   1.344   7.729  0.1263 -0.0196 -0.0386
  105loPI    C1 1665  18.820   5.419   9.911  0.0812 -0.0164 -0.0049
  105loPI    C2 1666  18.892   5.552  10.281 -0.2608  0.2560 -0.0311
  105loPI    C3 1667  19.122   5.674   9.977  0.0155  0.0384  0.0859
  105loPI   PO4 1668  18.544   5.467   9.912  0.1186 -0.1218  0.0785
  105loPI   GL1 1669  18.469   5.583   9.512 -0.5568 -0.0330  0.0093
  105loPI   GL2 1670  18.503   5.909   9.418  0.2711 -0.3250  0.2945
  105loPI   C1A 1671  18.629   5.394   9.118 -0.1229 -0.1441  0.0577
  105loPI   C2A 1672  18.772   5.366   8.735 -0.1379  0.1142  0.2720
  105loPI   C3A 1673  18.973   5.658   8.334 -0.3238  0.1285 -0.0072
  105loPI   C4A 1674  19.366   5.791   8.354  0.0897 -0.1500  0.0662
  105loPI   C5A 1675  19.748   6.080   8.539  0.0796 -0.0225  0.1434
  105loPI   C6A 1676  20.166   6.380   8.441 -0.0309  0.1504  0.0831
  105loPI   C1B 1677  18.821   5.902   9.112  0.0524 -0.0349  0.0242
  105loPI   C2B 1678  19.079   5.917   8.774 -0.0714  0.3196  0.3972
  105loPI   C3B 1679  19.214   6.218   8.569  0.1497 -0.2104  0.0395
  105loPI   C4B 1680  19.310   6.286   8.167  0.0806  0.2096 -0.0864
  106loPI    C1 1681   7.072   8.737   9.219  0.0327  0.1464  0.0255
  106loPI    C2 1682   6.847   8.566   9.502 -0.1197 -0.0029 -0.1827
  106loPI    C3 1683   7.246   8.550   9.526 -0.1231  0.3468  0.2396
  106loPI   PO4 1684   6.908   8.660   9.008 -0.2239 -0.0209  0.1179
  106loPI   GL1 1685   6.807   8.861   8.641  0.1602 -0.1733 -0.1367
  106loPI   GL2 1686   6.488   8.829   8.905  0.1526  0.1646 -0.2394
  106loPI   C1A 1687   6.793   8.655   8.199  0.1339 -0.3198 -0.2428
  106loPI   C2A 1688   6.850   8.530   7.888  0.3116 -0.2750  0.3608
  106loPI   C3A 1689   7.055   8.305   7.593  0.0153  0.0038  0.0918
  106loPI   C4A 1690   7.254   8.175   7.265  0.1586 -0.1574 -0.2570
  106loPI   C5A 1691   7.177   8.435   6.875 -0.2010  0.0826  0.3878
  106loPI   C6A 1692   7.036   8.537   6.497  0.0156  0.1876  0.1587
  106loPI   C1B 1693   6.281   8.733   8.494 -0.3072 -0.0773 -0.1433
  106loPI   C2B 1694   6.079   8.555   8.081 -0.1843 -0.0661  0.0498
  106loPI   C3B 1695   6.007   8.538   7.690 -0.1334  0.2044  0.0335
  106loPI   C4B 1696   5.968   8.658   7.339  0.1154 -0.2642  0.0539
  107loPI    C1 1697  12.324  11.241   9.960  0.1893  0.1077 -0.1369
  107loPI    C2 1698  12.670  11.146   9.783  0.2065 -0.1264  0.0185
  107loPI    C3 1699  12.560  10.961  10.121  0.0655  0.1527  0.1284
  107loPI   PO4 1700  12.212  11.296   9.756  0.3612  0.1979  0.1280
  107loPI   GL1 1701  12.292  11.107   9.421 -0.0978  0.0648 -0.1118
  107loPI   GL2 1702  12.092  10.882   9.327 -0.3691  0.1604  0.1618
  107loPI   C1A 1703  12.504  11.179   9.178 -0.4735 -0.0538  0.2814
  107loPI   C2A 1704  12.648  11.051   8.785 -0.1373  0.0535 -0.1650
  107loPI   C3A 1705  12.946  11.160   8.437 -0.3263  0.2649  0.0736
  107loPI   C4A 1706  12.856  11.249   8.002  0.3904 -0.5564 -0.0519
  107loPI   C5A 1707  12.752  11.554   7.787  0.1184 -0.0413  0.1654
  107loPI   C6A 1708  12.754  11.993   7.954  0.4156  0.1017  0.1050
  107loPI   C1B 1709  12.278  10.775   8.833  0.0585 -0.3583 -0.2073
  107loPI   C2B 1710  12.397  10.697   8.419 -0.2417  0.2760 -0.3777
  107loPI   C3B 1711  12.791  10.739   8.145  0.1529 -0.0784  0.0682
  107loPI   C4B 1712  13.128  10.815   8.117  0.0621 -0.0222  0.1704
  108loPI    C1 1713   8.844   9.908   9.368  0.1165 -0.0409  0.0704
  108loPI    C2 1714   8.827   9.775   9.745  0.0343 -0.0149  0.0761
  108loPI    C3 1715   8.499   9.922   9.570  0.0736 -0.0217 -0.0039
  108loPI   PO4 1716   8.977   9.709   9.283 -0.1363 -0.1322 -0.0708
  108loPI   GL1 1717   9.174   9.576   8.949 -0.0145  0.1015  0.0743
  108loPI   GL2 1718   8.907   9.304   8.885  0.1815  0.0795  0.3860
  108loPI   C1A 1719   9.236   9.644   8.505 -0.0271 -0.1662  0.1880
  108loPI   C2A 1720   9.370   9.784   8.053 -0.0779 -0.0056 -0.0393
  108loPI   C3A 1721   9.124   9.819   7.657 -0.0241  0.1755  0.0742
  108loPI   C4A 1722   8.692   9.845   7.476 -0.1690  0.2924  0.1993
  108loPI   C5A 1723   8.356   9.473   7.346  0.2051 -0.0497 -0.1780
  108loPI   C6A 1724   8.063   9.098   7.162  0.0418 -0.0734  0.3390
  108loPI   C1B 1725   8.760   9.187   8.466  0.0628 -0.1131 -0.2905
  108loPI   C2B 1726   8.730   9.036   8.082 -0.1320 -0.1046  0.3976
  108loPI   C3B 1727   9.016   8.948   7.774 -0.0090 -0.0515 -0.0480
  108loPI   C4B 1728   9.043   8.923   7.357  0.1538  0.2552  0.2286
  109loPI    C1 1729  13.534   9.391  10.014  0.1045  0.1075  0.1820
  109loPI    C2 1730  13.400   9.669  10.268 -0.3012 -0.1876  0.3011
  109loPI    C3 1731  13.379   9.282  10.366 -0.1421 -0.2864 -0.0413
  109loPI   PO4 1732  13.542   9.580   9.771  0.0149 -0.0583  0.0173
  109loPI   GL1 1733  13.919   9.643   9.493  0.0940 -0.2207  0.2534
  109loPI   GL2 1734  13.724   9.363   9.382 -0.0213 -0.4400  0.1817
  109loPI   C1A 1735  13.960   9.897   9.201  0.1391 -0.1162 -0.0920
  109loPI   C2A 1736  14.140   9.906   8.803  0.0999 -0.2943  0.1653
  109loPI   C3A 1737  14.342  10.166   8.555  0.0052 -0.1192 -0.0546
  109loPI   C4A 1738  14.124  10.444   8.330  0.0147  0.1249  0.1487
  109loPI   C5A 1739  13.898  10.423   8.044 -0.3121 -0.0603  0.0754
  109loPI   C6A 1740  13.861  10.622   7.622  0.1023 -0.3279 -0.0914
  109loPI   C1B 1741  13.829   9.199   9.046 -0.2276  0.5522 -0.2831
  109loPI   C2B 1742  13.824   9.035   8.594 -0.1835 -0.1000  0.1930
  109loPI   C3B 1743  13.805   9.168   8.163  0.1106  0.0235  0.2852
  109loPI   C4B 1744  14.046   9.333   7.885 -0.1899  0.0973  0.2137
  110loPI    C1 1745  12.625  17.031  10.141  0.0324  0.0711 -0.2788
  110loPI    C2 1746  12.616  17.150  10.523 -0.0970 -0.0896 -0.2308
  110loPI    C3 1747  12.962  17.147  10.322 -0.0598  0.1762 -0.1732
  110loPI   PO4 1748  12.462  17.121  10.045  0.1966 -0.0594  0.2932
  110loPI   GL1 1749  12.478  17.097   9.515 -0.0243  0.0197  0.1529
  110loPI   GL2 1750  12.622  16.927   9.599  0.1336  0.0245  0.0674
  110loPI   C1A 1751  12.590  17.344   9.172 -0.2537 -0.1769  0.1211
  110loPI   C2A 1752  12.706  17.195   8.878  0.0888 -0.1528 -0.0492
  110loPI   C3A 1753  12.809  16.899   8.554 -0.1932  0.0314 -0.2392
  110loPI   C4A 1754  12.857  16.750   8.144  0.0006  0.0963  0.0154
  110loPI   C5A 1755  12.675  16.961   7.685  0.1617 -0.1493 -0.3144
  110loPI   C6A 1756  12.395  16.966   7.447  0.4040  0.0003  0.0453
  110loPI   C1B 1757  12.589  16.783   9.178 -0.1042 -0.3155  0.0023
  110loPI   C2B 1758  12.398  16.517   8.781 -0.1650 -0.0456 -0.0042
  110loPI   C3B 1759  12.488  16.401   8.250  0.0009 -0.0063 -0.2133
  110loPI   C4B 1760  12.648  16.202   7.804  0.0755 -0.1560 -0.2133
  111loPI    C1 1761  18.058   4.881  10.015  0.1549 -0.0800 -0.0844
  111loPI    C2 1762  17.834   5.128  10.237  0.3584 -0.1228  0.1741
  111loPI    C3 1763  18.213   5.225  10.150  0.3663 -0.2364  0.0792
  111loPI   PO4 1764  17.987   4.834   9.829 -0.0803 -0.2788 -0.3020
  111loPI   GL1 1765  17.848   4.729   9.511  0.0325  0.1226  0.2410
  111loPI   GL2 1766  17.539   4.470   9.460  0.2322 -0.0640 -0.0204
  111loPI   C1A 1767  18.007   4.554   9.175 -0.2900 -0.0104 -0.0029
  111loPI   C2A 1768  18.040   4.304   8.752  0.0388 -0.1383 -0.0759
  111loPI   C3A 1769  18.080   3.944   8.510 -0.0757  0.3914 -0.1107
  111loPI   C4A 1770  17.994   3.840   8.143 -0.0712 -0.0538 -0.1306
  111loPI   C5A 1771  17.677   3.593   7.935  0.1320  0.1392 -0.4184
  111loPI   C6A 1772  17.260   3.584   7.928  0.1049  0.0965 -0.2490
  111loPI   C1B 1773  17.554   4.563   8.958 -0.0088  0.0867 -0.0237
  111loPI   C2B 1774  17.524   4.703   8.560 -0.0797  0.1360  0.2511
  111loPI   C3B 1775  17.547   4.670   8.097  0.0571 -0.1581  0.0053
  111loPI   C4B 1776  17.842   4.887   7.791  0.2800  0.1074 -0.1773
  112loPI    C1 1777  12.438   0.207   9.961  0.1055 -0.2191 -0.0723
  112loPI    C2 1778  12.809   0.090  10.056  0.1167  0.0424  0.2232
  112loPI    C3 1779  12.723   0.479  10.032 -0.0966 -0.0172 -0.0268
  112loPI   PO4 1780  12.410  -0.022   9.739  0.0282 -0.0843  0.0320
  112loPI   GL1 1781  12.511  -0.223   9.362 -0.2774 -0.1347 -0.0068
  112loPI   GL2 1782  12.592  -0.520   9.290  0.0504  0.2466  0.0801
  112loPI   C1A 1783  12.455  -0.164   8.921 -0.3613 -0.1180 -0.2194
  112loPI   C2A 1784  12.576  -0.172   8.546  0.0679 -0.0804  0.2137
  112loPI   C3A 1785  12.687   0.026   8.251 -0.1101  0.1514 -0.1168
  112loPI   C4A 1786  12.815   0.224   7.867 -0.1066 -0.1123 -0.0086
  112loPI   C5A 1787  12.379   0.223   7.494  0.3065 -0.0940 -0.1177
  112loPI   C6A 1788  11.922   0.195   7.455 -0.2194  0.1397 -0.0626
  112loPI   C1B 1789  12.500  -0.800   8.899 -0.0968 -0.1590  0.2096
  112loPI   C2B 1790  12.245  -0.587   8.608 -0.0167 -0.0646 -0.1772
  112loPI   C3B 1791  11.989  -0.323   8.223 -0.1654 -0.0079 -0.1280
  112loPI   C4B 1792  11.877   0.012   7.918  0.0383  0.0988 -0.1992
  113loPI    C1 1793   7.725  15.631   9.891  0.0870 -0.0283 -0.1513
  113loPI    C2 1794   7.687  15.352  10.175  0.0267  0.0065 -0.1250
  113loPI    C3 1795   7.550  15.722  10.238  0.1741  0.0630 -0.1307
  113loPI   PO4 1796   7.667  15.518   9.638 -0.1538  0.0776 -0.3112
  113loPI   GL1 1797   7.329  15.469   9.328 -0.2418 -0.1868 -0.0756
  113loPI   GL2 1798   7.708  15.391   9.215 -0.1970  0.4144  0.1301
  113loPI   C1A 1799   7.368  15.222   8.934  0.2021  0.3127 -0.1229
  113loPI   C2A 1800   7.254  14.967   8.657 -0.2781 -0.0930  0.0765
  113loPI   C3A 1801   7.191  14.929   8.171  0.4089  0.2743 -0.0385
  113loPI   C4A 1802   7.301  15.237   7.775  0.0740  0.1856  0.0342
  113loPI   C5A 1803   7.580  15.324   7.508 -0.3702 -0.3450  0.0135
  113loPI   C6A 1804   8.009  15.407   7.504  0.2595 -0.0219  0.2377
  113loPI   C1B 1805   7.465  15.801   9.008  0.1070 -0.1861 -0.2246
  113loPI   C2B 1806   7.229  16.033   8.718  0.3135  0.0470 -0.0934
  113loPI   C3B 1807   7.180  15.892   8.283 -0.1087 -0.0251 -0.2762
  113loPI   C4B 1808   6.969  15.596   8.081  0.1022  0.3701  0.0855
  114loPI    C1 1809   5.405  14.396  10.071 -0.4790 -0.1512 -0.1036
  114loPI    C2 1810   5.287  14.419  10.452  0.3892 -0.0670  0.1826
  114loPI    C3 1811   5.394  14.066  10.297 -0.0853 -0.1230 -0.0367
  114loPI   PO4 1812   5.139  14.499   9.902  0.0862 -0.1556  0.2011
  114loPI   GL1 1813   5.121  14.518   9.500  0.1924  0.0806 -0.2717
  114loPI   GL2 1814   5.042  14.232   9.383 -0.1438 -0.0301  0.0373
  114loPI   C1A 1815   5.279  14.680   9.083 -0.2581  0.0677 -0.4145
  114loPI   C2A 1816   5.286  14.667   8.695  0.1703  0.3215  0.1154
  114loPI   C3A 1817   5.345  14.740   8.332 -0.1058 -0.0591 -0.4055
  114loPI   C4A 1818   5.036  14.760   8.111 -0.1957 -0.0564  0.0807
  114loPI   C5A 1819   4.657  14.862   7.835 -0.1133 -0.2126 -0.2406
  114loPI   C6A 1820   4.547  15.101   7.520  0.3638  0.0766  0.0660
  114loPI   C1B 1821   5.017  14.282   8.936 -0.2158 -0.2753 -0.4435
  114loPI   C2B 1822   4.963  14.111   8.513 -0.2077 -0.3107  0.0225
  114loPI   C3B 1823   4.954  14.200   8.193 -0.0855  0.0253 -0.0360
  114loPI   C4B 1824   4.751  14.360   7.812 -0.1805  0.3745 -0.1713
  115loPI    C1 1825   6.416  17.728   9.612 -0.0005  0.3936 -0.1815
  115loPI    C2 1826   6.031  17.821   9.554 -0.1821 -0.1972  0.0047
  115loPI    C3 1827   6.168  17.761   9.925  0.0360 -0.2160 -0.0776
  115loPI   PO4 1828   6.438  18.010   9.363  0.1862 -0.1697  0.1761
  115loPI   GL1 1829   6.406  17.964   8.955  0.3359  0.1868  0.1860
  115loPI   GL2 1830   6.506  18.336   8.866 -0.2445  0.2517  0.1563
  115loPI   C1A 1831   6.426  17.709   8.648 -0.0985 -0.2553  0.0123
  115loPI   C2A 1832   6.581  17.389   8.423  0.1250  0.0411  0.1150
  115loPI   C3A 1833   6.549  17.215   7.991 -0.1611  0.0951 -0.1458
  115loPI   C4A 1834   6.652  16.966   7.638  0.0031  0.3823  0.1121
  115loPI   C5A 1835   6.697  16.706   7.276 -0.1999  0.3701  0.2088
  115loPI   C6A 1836   6.731  16.524   6.900  0.0770  0.2015  0.0369
  115loPI   C1B 1837   6.484  18.356   8.433 -0.2812  0.2378 -0.1165
  115loPI   C2B 1838   6.583  18.052   8.179 -0.1192 -0.3403 -0.0300
  115loPI   C3B 1839   6.498  17.733   7.938  0.1923 -0.2133  0.0238
  115loPI   C4B 1840   6.428  17.512   7.528  0.1651 -0.4365 -0.2519
  116loPI    C1 1841  17.642   9.352   9.543  0.1134  0.1757  0.1206
  116loPI    C2 1842  17.901   9.498   9.810  0.1406  0.0940  0.1390
  116loPI    C3 1843  17.778   9.726   9.506  0.1495  0.1697  0.1921
  116loPI   PO4 1844  17.769   9.015   9.597  0.0829 -0.0403  0.2604
  116loPI   GL1 1845  17.692   8.739   9.351 -0.2523 -0.0734 -0.0221
  116loPI   GL2 1846  17.458   8.935   9.186 -0.1967 -0.0353 -0.1508
  116loPI   C1A 1847  17.899   9.101   8.998  0.0620 -0.2936 -0.1250
  116loPI   C2A 1848  17.802   9.272   8.664 -0.0981 -0.2030  0.0040
  116loPI   C3A 1849  17.732   9.340   8.324 -0.0981  0.1191  0.1806
  116loPI   C4A 1850  17.858   9.370   7.850  0.2061  0.0467 -0.4180
  116loPI   C5A 1851  18.076   9.507   7.420 -0.0789  0.0772  0.0530
  116loPI   C6A 1852  17.798   9.657   7.150 -0.3066  0.2854  0.0830
  116loPI   C1B 1853  17.577   8.778   8.766  0.2153  0.1754 -0.1852
  116loPI   C2B 1854  17.606   8.784   8.320  0.2644  0.1712  0.0277
  116loPI   C3B 1855  17.850   8.798   7.966  0.0889  0.0817  0.2415
  116loPI   C4B 1856  17.826   8.613   7.487 -0.1124  0.3780  0.0026
  117loPI    C1 1857  11.303  17.434   9.542  0.1738 -0.3209 -0.0254
  117loPI    C2 1858  11.691  17.532   9.528  0.0550  0.1736 -0.0558
  117loPI    C3 1859  11.492  17.552   9.874 -0.0020  0.1563 -0.0874
  117loPI   PO4 1860  11.230  17.673   9.316 -0.1033 -0.3547 -0.0353
  117loPI   GL1 1861  11.103  17.693   8.909  0.2532  0.0993 -0.2907
  117loPI   GL2 1862  11.259  17.609   8.577 -0.0154 -0.3800  0.1198
  117loPI   C1A 1863  10.773  17.863   8.673 -0.1404  0.1421  0.2038
  117loPI   C2A 1864  10.736  17.923   8.161  0.2012 -0.4643 -0.0620
  117loPI   C3A 1865  10.785  17.882   7.828 -0.0461  0.1226  0.0535
  117loPI   C4A 1866  10.918  17.797   7.503 -0.0530 -0.2565  0.2092
  117loPI   C5A 1867  11.190  17.471   7.586 -0.3889 -0.0049  0.1793
  117loPI   C6A 1868  11.431  17.439   8.032  0.1862 -0.1855 -0.2684
  117loPI   C1B 1869  10.960  17.417   8.362  0.0564  0.3021  0.0238
  117loPI   C2B 1870  10.720  17.030   8.417  0.3069 -0.0590  0.0783
  117loPI   C3B 1871  10.516  16.944   8.790  0.1659  0.2021 -0.3268
  117loPI   C4B 1872  10.580  16.782   9.050  0.0962  0.3134  0.2416
  118loPI    C1 1873   7.314   1.623   9.999  0.0765 -0.2700  0.0853
  118loPI    C2 1874   7.504   1.271  10.018  0.3666 -0.1122  0.1655
  118loPI    C3 1875   7.547   1.538  10.313  0.2053  0.0202  0.0711
  118loPI   PO4 1876   7.355   1.708   9.761  0.0643  0.0018  0.5776
  118loPI   GL1 1877   7.016   1.601   9.466  0.1585  0.2346 -0.0968
  118loPI   GL2 1878   7.246   1.604   9.252  0.0339 -0.0908 -0.1311
  118loPI   C1A 1879   6.818   1.750   9.048  0.1713 -0.0345 -0.0375
  118loPI   C2A 1880   6.614   1.952   8.775 -0.0512  0.2349 -0.0330
  118loPI   C3A 1881   6.352   1.947   8.459  0.1056 -0.2957  0.0244
  118loPI   C4A 1882   6.481   2.045   8.031  0.1125  0.0895 -0.0921
  118loPI   C5A 1883   6.543   1.964   7.569 -0.0296  0.4812  0.1853
  118loPI   C6A 1884   7.037   2.086   7.441 -0.2213 -0.1198 -0.0444
  118loPI   C1B 1885   7.212   1.539   8.795 -0.1139 -0.0540  0.1344
  118loPI   C2B 1886   7.051   1.700   8.414  0.0145  0.2660  0.1885
  118loPI   C3B 1887   7.047   1.743   7.952  0.0932 -0.0093  0.3984
  118loPI   C4B 1888   7.029   1.587   7.548  0.0372  0.1492 -0.5594
  119loPI    C1 1889   4.774  18.048   9.463  0.2327  0.1552 -0.4364
  119loPI    C2 1890   4.924  17.695   9.574 -0.3342  0.0181 -0.0637
  119loPI    C3 1891   5.170  17.999   9.491  0.1529 -0.3650 -0.0731
  119loPI   PO4 1892   4.573  17.943   9.249 -0.1343  0.1480 -0.2026
  119loPI   GL1 1893   4.262  18.045   8.891  0.0707  0.1973  0.2663
  119loPI   GL2 1894   4.553  18.323   8.904  0.2125  0.1071  0.1610
  119loPI   C1A 1895   4.107  18.095   8.451  0.0065  0.3556 -0.0846
  119loPI   C2A 1896   3.931  18.134   8.007  0.3943 -0.0001 -0.1989
  119loPI   C3A 1897   3.705  17.928   7.654  0.0399 -0.0130 -0.1405
  119loPI   C4A 1898   3.785  17.983   7.159 -0.1614  0.1756  0.3167
  119loPI   C5A 1899   3.716  18.290   6.873 -0.1432  0.1704  0.3672
  119loPI   C6A 1900   3.756  18.773   6.800  0.1039  0.1231 -0.1710
  119loPI   C1B 1901   4.407  18.464   8.513 -0.2607 -0.3215 -0.4997
  119loPI   C2B 1902   4.499  18.399   8.103 -0.1128  0.0665 -0.4046
  119loPI   C3B 1903   4.719  18.131   7.775  0.0023  0.1700 -0.0433
  119loPI   C4B 1904   4.740  17.865   7.443  0.2234 -0.0935  0.1851
  120loPI    C1 1905   7.618   0.737   9.827  0.0364  0.1905  0.1206
  120loPI    C2 1906   7.566   0.499  10.144 -0.0930  0.0137 -0.0305
  120loPI    C3 1907   7.759   0.847  10.184 -0.1448  0.0125  0.2497
  120loPI   PO4 1908   7.378   0.863   9.675 -0.0110 -0.0896 -0.2258
  120loPI   GL1 1909   7.101   1.097   9.323  0.1374  0.3217  0.1683
  120loPI   GL2 1910   7.287   1.128   9.091 -0.1214 -0.0699  0.0081
  120loPI   C1A 1911   6.725   1.272   9.177 -0.1321 -0.1871  0.3559
  120loPI   C2A 1912   6.676   1.481   8.662  0.0166  0.1475  0.2030
  120loPI   C3A 1913   6.614   1.506   8.321  0.3104 -0.2300 -0.1209
  120loPI   C4A 1914   6.478   1.462   7.895  0.0237  0.0128 -0.2468
  120loPI   C5A 1915   6.246   1.502   7.579  0.0166  0.1461 -0.2783
  120loPI   C6A 1916   5.995   1.658   7.262 -0.0089 -0.0748  0.1986
  120loPI   C1B 1917   7.018   0.984   8.789  0.0820  0.1877 -0.1916
  120loPI   C2B 1918   6.970   1.197   8.407  0.0717  0.2095 -0.2368
  120loPI   C3B 1919   6.960   1.267   7.984  0.1314 -0.2330 -0.1752
  120loPI   C4B 1920   7.206   1.134   7.685 -0.0181 -0.3476 -0.3334
  121loPI    C1 1921  17.045  16.468  10.365  0.0608 -0.0684 -0.0534
  121loPI    C2 1922  16.738  16.723  10.344 -0.1677 -0.3444 -0.1228
  121loPI    C3 1923  16.828  16.546  10.692  0.0891 -0.0551 -0.0377
  121loPI   PO4 1924  17.170  16.489  10.103 -0.2653  0.2274 -0.0313
  121loPI   GL1 1925  17.191  16.233   9.743 -0.0322 -0.0266  0.1858
  121loPI   GL2 1926  17.444  16.012   9.842 -0.0624  0.0048 -0.2212
  121loPI   C1A 1927  17.070  16.298   9.359 -0.2550 -0.1114 -0.0100
  121loPI   C2A 1928  17.115  16.305   8.937  0.3306 -0.1092 -0.0471
  121loPI   C3A 1929  17.220  16.247   8.531  0.0322 -0.0091  0.1288
  121loPI   C4A 1930  17.403  16.480   8.140  0.2443  0.2686 -0.0098
  121loPI   C5A 1931  17.608  16.807   7.928  0.0996  0.1740 -0.2182
  121loPI   C6A 1932  17.697  17.221   8.165 -0.2907 -0.0873 -0.0670
  121loPI   C1B 1933  17.460  15.973   9.369  0.2653  0.2254 -0.0986
  121loPI   C2B 1934  17.505  16.080   9.016  0.1846 -0.4836  0.0619
  121loPI   C3B 1935  17.697  16.327   8.808  0.3605  0.1538  0.0466
  121loPI   C4B 1936  17.756  16.554   8.468  0.0757  0.0179  0.3118
  122loPI    C1 1937   2.805  17.271   9.837 -0.0704 -0.0383  0.3461
  122loPI    C2 1938   3.059  17.573   9.773 -0.2264  0.0340  0.0480
  122loPI    C3 1939   3.088  17.354  10.106  0.2847 -0.0186 -0.0236
  122loPI   PO4 1940   2.605  17.417   9.496 -0.1543 -0.1664 -0.2062
  122loPI   GL1 1941   2.843  17.556   9.110  0.0354 -0.2198 -0.1054
  122loPI   GL2 1942   2.479  17.546   9.016  0.3471 -0.0008  0.0327
  122loPI   C1A 1943   2.946  17.525   8.618 -0.2119  0.2177  0.5063
  122loPI   C2A 1944   2.956  17.497   8.101 -0.0106  0.1718  0.1340
  122loPI   C3A 1945   2.692  17.664   7.773  0.2735 -0.0226  0.0789
  122loPI   C4A 1946   2.912  17.833   7.450  0.1323  0.2085  0.0968
  122loPI   C5A 1947   3.207  17.676   7.276 -0.4127  0.2929  0.0685
  122loPI   C6A 1948   3.458  17.498   6.927  0.0421  0.2836  0.3273
  122loPI   C1B 1949   2.513  17.261   8.654 -0.1857  0.0054  0.1554
  122loPI   C2B 1950   2.580  17.136   8.342  0.1436  0.2040  0.2695
  122loPI   C3B 1951   2.693  16.799   8.156  0.1467  0.3956  0.0258
  122loPI   C4B 1952   2.452  16.749   7.803 -0.0183 -0.3049  0.1232
  123loPI    C1 1953   1.673  18.648  10.023  0.1172  0.2578 -0.2183
  123loPI    C2 1954   1.436  18.796  10.309  0.0153  0.1838 -0.2639
  123loPI    C3 1955   1.823  18.732  10.383 -0.1090 -0.2937  0.0158
  123loPI   PO4 1956   1.585  18.801   9.808  0.0608 -0.1826 -0.1201
  123loPI   GL1 1957   1.330  18.764   9.460  0.1059 -0.1098 -0.0444
  123loPI   GL2 1958   1.034  18.660   9.503  0.1523 -0.2613 -0.0990
  123loPI   C1A 1959   1.462  18.627   9.206 -0.0321  0.3827  0.2309
  123loPI   C2A 1960   1.432  18.518   8.853  0.3172  0.2899  0.2421
  123loPI   C3A 1961   1.181  18.371   8.379 -0.1828  0.1750  0.2571
  123loPI   C4A 1962   1.113  18.130   8.020 -0.1721  0.2228 -0.0834
  123loPI   C5A 1963   1.131  17.844   7.785  0.2677 -0.2942  0.1682
  123loPI   C6A 1964   1.192  17.558   7.517 -0.1437 -0.0918  0.3881
  123loPI   C1B 1965   1.022  18.357   9.198 -0.0760  0.4673  0.0193
  123loPI   C2B 1966   0.958  18.339   8.818  0.1947 -0.0288  0.2443
  123loPI   C3B 1967   0.733  18.372   8.473 -0.1322 -0.0502 -0.0389
  123loPI   C4B 1968   0.497  18.203   8.080 -0.0649  0.0504 -0.1238
  124loPI    C1 1969   0.740  18.799  10.336  0.0281  0.0650  0.1731
  124loPI    C2 1970   0.754  18.576  10.004 -0.0081  0.1058  0.1443
  124loPI    C3 1971   0.941  18.453  10.335  0.1423  0.1305  0.0696
  124loPI   PO4 1972   0.622  19.070  10.168 -0.0848  0.0017  0.2331
  124loPI   GL1 1973   0.572  18.943   9.667 -0.0700  0.2630  0.2358
  124loPI   GL2 1974   0.252  19.060   9.509 -0.0884  0.0501 -0.0502
  124loPI   C1A 1975   0.537  18.797   9.207  0.0958  0.2098 -0.0420
  124loPI   C2A 1976   0.525  18.722   8.766  0.0624  0.3306 -0.0789
  124loPI   C3A 1977   0.508  18.878   8.380  0.1783 -0.0437 -0.0575
  124loPI   C4A 1978   0.514  19.178   7.992  0.3658 -0.2410 -0.1546
  124loPI   C5A 1979   0.630  19.730   7.841  0.2847  0.3000  0.0975
  124loPI   C6A 1980   0.873  19.782   7.427  0.1872 -0.1661  0.0292
  124loPI   C1B 1981   0.172  19.132   9.018  0.1378  0.2092 -0.1786
  124loPI   C2B 1982   0.208  19.250   8.590 -0.0384 -0.1704  0.2074
  124loPI   C3B 1983   0.494  19.543   8.407  0.1791  0.2578  0.3856
  124loPI   C4B 1984   0.797  19.763   8.280 -0.0856 -0.0053 -0.1443
  125loPI    C1 1985   7.740  10.290   9.806  0.0765 -0.1055  0.0520
  125loPI    C2 1986   7.448  10.354  10.073  0.0069 -0.1619 -0.0101
  125loPI    C3 1987   7.603   9.988  10.030  0.1220 -0.1219  0.0576
  125loPI   PO4 1988   7.738  10.508   9.612  0.1918  0.0818  0.0723
  125loPI   GL1 1989   8.001  10.456   9.164 -0.1089  0.0019  0.2908
  125loPI   GL2 1990   7.926  10.776   9.264  0.0965 -0.0268 -0.0562
  125loPI   C1A 1991   8.107  10.607   8.788 -0.2956 -0.1758  0.0057
  125loPI   C2A 1992   8.245  10.554   8.439  0.3071  0.1443  0.0577
  125loPI   C3A 1993   8.547  10.421   8.174 -0.4148 -0.3343  0.1802
  125loPI   C4A 1994   8.557  10.125   7.846 -0.1159 -0.0670 -0.0082
  125loPI   C5A 1995   8.305  10.293   7.569  0.2787  0.1993 -0.1371
  125loPI   C6A 1996   8.083  10.335   7.112 -0.0348 -0.0789  0.1165
  125loPI   C1B 1997   7.763  10.993   8.944 -0.2746 -0.3326  0.1060
  125loPI   C2B 1998   7.687  11.262   8.646  0.1216 -0.3492  0.3191
  125loPI   C3B 1999   7.481  11.538   8.451 -0.2459 -0.0523  0.1228
  125loPI   C4B 2000   7.403  11.566   8.089 -0.1965 -0.0312 -0.0552
  126loPI    C1 2001  16.191   0.155   9.714  0.1984 -0.0704  0.0985
  126loPI    C2 2002  16.122   0.179  10.107 -0.1801 -0.3046  0.0515
  126loPI    C3 2003  16.136   0.512   9.886  0.1597 -0.1617  0.2785
  126loPI   PO4 2004  16.205  -0.165   9.706 -0.2573 -0.3476  0.0172
  126loPI   GL1 2005  16.414  -0.231   9.459  0.1190  0.0955 -0.0260
  126loPI   GL2 2006  16.770  -0.404   9.501 -0.1848  0.0700  0.0422
  126loPI   C1A 2007  16.281  -0.162   9.010 -0.0416  0.2330  0.0335
  126loPI   C2A 2008  16.373  -0.160   8.515  0.2464  0.1404  0.1839
  126loPI   C3A 2009  16.004  -0.153   8.305  0.1533 -0.0209  0.0642
  126loPI   C4A 2010  15.963  -0.126   7.797  0.0234  0.1262  0.1307
  126loPI   C5A 2011  16.259  -0.143   7.401 -0.1177 -0.0036  0.1190
  126loPI   C6A 2012  16.445  -0.329   7.040  0.2504 -0.1526  0.1869
  126loPI   C1B 2013  16.790  -0.262   9.018  0.1415  0.0100 -0.3141
  126loPI   C2B 2014  17.090  -0.228   8.767 -0.2192 -0.0975 -0.0966
  126loPI   C3B 2015  17.537  -0.385   8.682  0.1110  0.1238 -0.0792
  126loPI   C4B 2016  17.629  -0.624   8.359 -0.3060 -0.1943 -0.1742
  127loPI    C1 2017   3.039  12.738  10.059  0.3152 -0.0128 -0.0930
  127loPI    C2 2018   3.009  13.070  10.281 -0.3238  0.0049 -0.1868
  127loPI    C3 2019   3.144  12.731  10.445 -0.4495  0.1067  0.1344
  127loPI   PO4 2020   2.986  12.841   9.767  0.0040  0.1092  0.4565
  127loPI   GL1 2021   2.482  12.831   9.559  0.0087  0.0230 -0.1688
  127loPI   GL2 2022   2.168  12.833   9.655 -0.1140 -0.2224  0.0414
  127loPI   C1A 2023   2.446  13.108   9.194  0.0811 -0.0247  0.0767
  127loPI   C2A 2024   2.360  13.105   8.766  0.0953  0.1241 -0.0300
  127loPI   C3A 2025   2.419  12.893   8.426  0.0423  0.2779 -0.0786
  127loPI   C4A 2026   2.485  12.608   8.121  0.0466  0.1317  0.0032
  127loPI   C5A 2027   2.177  12.329   7.803  0.1067 -0.0097  0.1328
  127loPI   C6A 2028   1.860  12.138   7.794 -0.1028 -0.0958  0.2066
  127loPI   C1B 2029   2.202  12.694   9.191  0.3174 -0.1084 -0.1916
  127loPI   C2B 2030   2.375  12.598   8.852  0.1632  0.0173  0.2029
  127loPI   C3B 2031   2.770  12.526   8.515  0.1394 -0.4079 -0.1729
  127loPI   C4B 2032   3.044  12.575   8.165  0.0991  0.3790 -0.2368
  128loPI    C1 2033   3.456   8.566   9.898 -0.2201 -0.3099 -0.0415
  128loPI    C2 2034   3.306   8.650  10.259 -0.2146 -0.1107 -0.0844
  128loPI    C3 2035   3.649   8.446  10.227 -0.2230 -0.1421  0.0223
  128loPI   PO4 2036   3.346   8.763   9.760  0.1533  0.0767  0.1593
  128loPI   GL1 2037   3.404   9.056   9.406 -0.0066 -0.1938  0.1729
  128loPI   GL2 2038   3.149   9.186   9.169  0.2633  0.1531 -0.1398
  128loPI   C1A 2039   3.598   8.983   8.961 -0.1324  0.2639  0.0348
  128loPI   C2A 2040   3.611   8.772   8.519 -0.2449  0.1276 -0.1416
  128loPI   C3A 2041   3.898   8.679   8.243  0.1769 -0.0322  0.0969
  128loPI   C4A 2042   4.157   8.340   8.011 -0.1135 -0.0689 -0.0243
  128loPI   C5A 2043   4.088   7.882   7.867  0.1081  0.0478  0.3327
  128loPI   C6A 2044   4.175   7.457   7.888 -0.1505 -0.1538  0.3390
  128loPI   C1B 2045   3.199   9.219   8.756  0.0325  0.1208  0.2625
  128loPI   C2B 2046   3.378   9.185   8.389 -0.1369 -0.0442 -0.1100
  128loPI   C3B 2047   3.535   9.305   7.979  0.1532  0.4931 -0.1108
  128loPI   C4B 2048   3.411   9.490   7.562  0.2832  0.0426 -0.2409
  129loPI    C1 2049  13.295   3.320   9.725  0.1503  0.0971  0.0971
  129loPI    C2 2050  13.320   2.969   9.916  0.1628  0.0634  0.0338
  129loPI    C3 2051  13.303   3.310  10.125  0.1685  0.0263  0.0951
  129loPI   PO4 2052  13.359   3.250   9.488 -0.1998 -0.0907 -0.1249
  129loPI   GL1 2053  13.320   3.391   9.113 -0.1172  0.1170  0.1455
  129loPI   GL2 2054  12.980   3.201   9.120 -0.1739 -0.0022  0.0756
  129loPI   C1A 2055  13.417   3.223   8.777 -0.1169  0.0592 -0.0117
  129loPI   C2A 2056  13.046   3.117   8.525  0.1441  0.2080  0.1765
  129loPI   C3A 2057  13.097   2.778   8.204  0.1946 -0.0347  0.0794
  129loPI   C4A 2058  12.909   2.458   7.942  0.1198  0.2864 -0.3445
  129loPI   C5A 2059  12.819   2.348   7.513 -0.4367  0.2067  0.2087
  129loPI   C6A 2060  13.020   2.419   7.044  0.0250 -0.2627 -0.0169
  129loPI   C1B 2061  12.708   3.423   8.779 -0.3214 -0.1164  0.0733
  129loPI   C2B 2062  12.622   3.641   8.442 -0.1681  0.0129  0.0924
  129loPI   C3B 2063  12.710   3.691   7.979 -0.1024  0.4222  0.2032
  129loPI   C4B 2064  12.860   3.517   7.605 -0.1917 -0.0689 -0.4594
  130loPI    C1 2065  15.883   7.974   9.856  0.2092  0.0257 -0.0505
  130loPI    C2 2066  15.932   8.077  10.240  0.1525  0.1709 -0.0817
  130loPI    C3 2067  16.118   7.754  10.094  0.0329  0.0112  0.1130
  130loPI   PO4 2068  15.948   8.234   9.757 -0.1045 -0.5269 -0.0953
  130loPI   GL1 2069  16.107   8.336   9.388 -0.1098  0.2315 -0.0692
  130loPI   GL2 2070  16.415   8.232   9.303  0.3748  0.1377 -0.0269
  130loPI   C1A 2071  16.178   8.598   9.012 -0.4792 -0.2597  0.1726
  130loPI   C2A 2072  16.120   8.469   8.676 -0.1646  0.0953 -0.1601
  130loPI   C3A 2073  16.099   8.495   8.179  0.0089 -0.2418 -0.1362
  130loPI   C4A 2074  16.050   8.540   7.715  0.0593 -0.5610  0.1112
  130loPI   C5A 2075  16.062   8.432   7.299 -0.0069 -0.2332  0.1619
  130loPI   C6A 2076  16.086   8.751   6.978 -0.2021  0.2726 -0.2820
  130loPI   C1B 2077  16.533   8.119   8.903 -0.0619 -0.0216 -0.6937
  130loPI   C2B 2078  16.581   8.249   8.604 -0.2267 -0.2261 -0.1933
  130loPI   C3B 2079  16.598   8.396   8.251 -0.4753 -0.1117 -0.0093
  130loPI   C4B 2080  16.553   8.677   7.872 -0.5198  0.0942 -0.0233
  131loPI    C1 2081  14.552   8.977  10.128  0.0609 -0.2280  0.2914
  131loPI    C2 2082  14.252   9.119  10.351 -0.0615 -0.0422  0.0137
  131loPI    C3 2083  14.553   8.920  10.524 -0.2576 -0.0827  0.3156
  131loPI   PO4 2084  14.465   9.103   9.877 -0.1725 -0.0269  0.2041
  131loPI   GL1 2085  14.527   8.919   9.560  0.1093  0.1338 -0.0765
  131loPI   GL2 2086  14.203   9.093   9.487 -0.1195 -0.0843 -0.0878
  131loPI   C1A 2087  14.461   8.798   9.145  0.3972  0.0478  0.0764
  131loPI   C2A 2088  14.354   8.933   8.750  0.0652 -0.0084 -0.0729
  131loPI   C3A 2089  14.310   9.095   8.365 -0.0392  0.0490  0.2389
  131loPI   C4A 2090  14.495   9.015   8.061 -0.4636  0.0469  0.2602
  131loPI   C5A 2091  14.667   8.905   7.702  0.1037 -0.2942 -0.0551
  131loPI   C6A 2092  15.054   8.823   7.618  0.0562  0.1646  0.2004
  131loPI   C1B 2093  14.255   9.447   9.096  0.0966 -0.0399 -0.1273
  131loPI   C2B 2094  14.519   9.445   8.752 -0.2489 -0.0789 -0.2069
  131loPI   C3B 2095  14.815   9.476   8.302  0.0697 -0.3682  0.2740
  131loPI   C4B 2096  14.927   9.393   7.797  0.3317  0.1497 -0.1830
  132loPI    C1 2097   9.081  18.558   9.821 -0.3071  0.2085  0.1349
  132loPI    C2 2098   9.134  18.535  10.217 -0.1254  0.2827  0.1157
  132loPI    C3 2099   8.984  18.868  10.054  0.2630  0.4435  0.0758
  132loPI   PO4 2100   9.332  18.365   9.753 -0.2354 -0.3959  0.1656
  132loPI   GL1 2101   9.237  18.194   9.360  0.4505  0.0169  0.1480
  132loPI   GL2 2102   9.436  17.922   9.265 -0.0601  0.2267 -0.1098
  132loPI   C1A 2103   9.044  17.986   8.983  0.1359  0.0621 -0.2465
  132loPI   C2A 2104   8.972  17.705   8.670  0.0417 -0.2102 -0.4500
  132loPI   C3A 2105   8.747  17.618   8.415  0.0064 -0.2715  0.1501
  132loPI   C4A 2106   8.893  17.712   8.026 -0.1842  0.0146  0.3190
  132loPI   C5A 2107   8.870  17.769   7.583  0.1023 -0.3565  0.0224
  132loPI   C6A 2108   8.721  17.456   7.344 -0.0130 -0.0086  0.0749
  132loPI   C1B 2109   9.553  17.719   8.924 -0.1998  0.0968  0.1696
  132loPI   C2B 2110   9.717  17.744   8.548 -0.1313 -0.0308 -0.0264
  132loPI   C3B 2111  10.028  17.551   8.202  0.2440  0.1881  0.2691
  132loPI   C4B 2112  10.285  17.653   7.786 -0.1034 -0.0960  0.0582
  133loPI    C1 2113  14.492   5.728   9.994 -0.0940 -0.0064 -0.0763
  133loPI    C2 2114  14.175   5.964  10.052 -0.2199 -0.1240 -0.2726
  133loPI    C3 2115  14.365   5.803  10.365 -0.1383  0.2272 -0.1376
  133loPI   PO4 2116  14.415   5.865   9.598  0.5109  0.2072 -0.0833
  133loPI   GL1 2117  14.321   5.928   9.138 -0.4539  0.0217 -0.0072
  133loPI   GL2 2118  14.147   5.750   8.980 -0.0280 -0.0712  0.2015
  133loPI   C1A 2119  14.579   5.809   8.806  0.1064 -0.0830 -0.1221
  133loPI   C2A 2120  14.785   5.685   8.334  0.0696 -0.3250  0.0212
  133loPI   C3A 2121  14.907   5.646   7.932 -0.1639  0.0376  0.3073
  133loPI   C4A 2122  14.846   5.459   7.576 -0.2199  0.1256  0.0189
  133loPI   C5A 2123  15.019   4.979   7.493 -0.1454  0.0711  0.2246
  133loPI   C6A 2124  15.210   4.598   7.497 -0.1151 -0.3253 -0.1486
  133loPI   C1B 2125  14.238   5.719   8.474  0.2519 -0.1488  0.2030
  133loPI   C2B 2126  14.349   5.651   8.040 -0.2330  0.3208  0.0141
  133loPI   C3B 2127  14.490   5.854   7.771  0.0394 -0.2340  0.1251
  133loPI   C4B 2128  14.368   5.976   7.343  0.1317 -0.2975  0.1460
  134loPI    C1 2129  16.338   4.925   9.945  0.0665 -0.0359  0.0319
  134loPI    C2 2130  16.040   4.661   9.905  0.1174 -0.1144  0.1651
  134loPI    C3 2131  16.368   4.563  10.112  0.1590  0.0354  0.1712
  134loPI   PO4 2132  16.288   5.031   9.648 -0.0192 -0.2637  0.0682
  134loPI   GL1 2133  16.201   5.128   9.157 -0.1913  0.2291  0.2165
  134loPI   GL2 2134  16.333   5.428   9.014  0.4933  0.1568  0.2350
  134loPI   C1A 2135  16.304   4.823   8.762 -0.0178  0.4551 -0.1716
  134loPI   C2A 2136  16.527   4.690   8.447 -0.2559 -0.1705 -0.2505
  134loPI   C3A 2137  16.626   4.816   8.030  0.1163 -0.0615 -0.1170
  134loPI   C4A 2138  16.882   4.385   7.692  0.1766 -0.1573 -0.2018
  134loPI   C5A 2139  17.066   4.029   7.731 -0.0056 -0.0467 -0.0168
  134loPI   C6A 2140  16.969   3.718   7.525  0.0140 -0.2409  0.1636
  134loPI   C1B 2141  16.276   5.315   8.530 -0.0080 -0.0395  0.2167
  134loPI   C2B 2142  16.390   5.250   8.197 -0.2687  0.3158 -0.1617
  134loPI   C3B 2143  16.528   5.265   7.782 -0.1658  0.1654  0.2171
  134loPI   C4B 2144  16.752   4.965   7.580 -0.1678 -0.1348 -0.0982
  135loPI    C1 2145   4.908   6.842   9.802  0.0332 -0.0701 -0.2113
  135loPI    C2 2146   4.877   7.241   9.809  0.0561 -0.0707 -0.0162
  135loPI    C3 2147   5.110   7.053  10.075 -0.1206 -0.2285  0.0292
  135loPI   PO4 2148   4.880   6.784   9.556 -0.2315  0.0429 -0.2456
  135loPI   GL1 2149   4.978   6.669   9.208 -0.1703  0.1799 -0.4903
  135loPI   GL2 2150   4.791   6.356   9.323 -0.0345  0.1711  0.1094
  135loPI   C1A 2151   4.915   6.883   8.865 -0.2012 -0.0827  0.1587
  135loPI   C2A 2152   4.760   6.856   8.420 -0.1544  0.0042 -0.0143
  135loPI   C3A 2153   4.543   7.048   8.029  0.0637  0.1163 -0.1985
  135loPI   C4A 2154   4.377   7.072   7.589  0.0977 -0.0233  0.2148
  135loPI   C5A 2155   4.608   6.828   7.307 -0.2396  0.0886  0.2081
  135loPI   C6A 2156   4.544   6.401   7.404 -0.1162  0.0838  0.1247
  135loPI   C1B 2157   5.117   6.334   8.906 -0.0240 -0.4131 -0.0644
  135loPI   C2B 2158   5.240   6.585   8.520 -0.1744 -0.1695  0.0145
  135loPI   C3B 2159   5.097   6.577   8.116 -0.1443  0.2622  0.0232
  135loPI   C4B 2160   4.751   6.585   7.873 -0.0686  0.1732  0.0071
  136loPI    C1 2161  11.040  17.477   9.987  0.0397  0.2543 -0.0312
  136loPI    C2 2162  11.230  17.149  10.114  0.0438  0.2338 -0.0902
  136loPI    C3 2163  11.116  17.428  10.377  0.1757  0.2573 -0.0572
  136loPI   PO4 2164  10.853  17.345   9.842 -0.2841  0.2573 -0.1116
  136loPI   GL1 2165  10.787  17.295   9.362 -0.0506  0.4316  0.1168
  136loPI   GL2 2166  11.107  17.204   9.088  0.1462  0.2458  0.1373
  136loPI   C1A 2167  10.713  17.423   8.886  0.1745  0.1507  0.0767
  136loPI   C2A 2168  10.502  17.439   8.500 -0.1228 -0.3419  0.0567
  136loPI   C3A 2169  10.348  17.203   8.107 -0.0402  0.2691 -0.2901
  136loPI   C4A 2170   9.953  17.259   7.755 -0.0263 -0.4397  0.1515
  136loPI   C5A 2171   9.627  17.224   7.921  0.0035  0.0852  0.0411
  136loPI   C6A 2172   9.352  16.915   7.973 -0.1425  0.0213  0.1673
  136loPI   C1B 2173  11.179  17.094   8.683 -0.1535 -0.0536  0.0377
  136loPI   C2B 2174  11.259  16.939   8.321 -0.1728  0.0357  0.1173
  136loPI   C3B 2175  11.091  17.147   7.905 -0.0649  0.5046 -0.2226
  136loPI   C4B 2176  10.724  17.405   7.878  0.0583 -0.0970 -0.0440
  137loPI    C1 2177   6.875   0.734   9.854  0.0082  0.0831 -0.0771
  137loPI    C2 2178   7.086   0.465  10.062  0.1979  0.1569 -0.1723
  137loPI    C3 2179   7.118   0.855  10.148 -0.0143  0.1569 -0.0887
  137loPI   PO4 2180   6.875   0.721   9.558 -0.5456  0.0029 -0.0467
  137loPI   GL1 2181   6.727   0.797   9.156 -0.2558  0.3640 -0.3628
  137loPI   GL2 2182   6.660   0.430   9.100 -0.0339  0.0936  0.0097
  137loPI   C1A 2183   6.509   0.908   8.787  0.4386 -0.2044  0.0295
  137loPI   C2A 2184   6.415   1.084   8.409  0.1261  0.2588  0.0398
  137loPI   C3A 2185   6.072   1.153   8.016  0.2203 -0.0383  0.2364
  137loPI   C4A 2186   5.722   1.451   7.651 -0.1195  0.1684 -0.3221
  137loPI   C5A 2187   5.551   1.768   7.502 -0.2232 -0.2020  0.0311
  137loPI   C6A 2188   5.463   2.050   7.130 -0.1751 -0.5726  0.0939
  137loPI   C1B 2189   6.724   0.488   8.685 -0.1155 -0.1304 -0.3535
  137loPI   C2B 2190   6.797   0.719   8.333 -0.2304 -0.0643 -0.1753
  137loPI   C3B 2191   6.586   0.959   7.994 -0.2136  0.1081 -0.0114
  137loPI   C4B 2192   6.737   1.082   7.604  0.3854  0.0696 -0.1053
  138loPI    C1 2193   6.577  16.485   9.808  0.0034 -0.1727  0.1148
  138loPI    C2 2194   6.909  16.275   9.732 -0.0442 -0.2610  0.1494
  138loPI    C3 2195   6.831  16.398  10.105  0.1401  0.0883  0.0773
  138loPI   PO4 2196   6.630  16.730   9.587 -0.0990  0.1599  0.2372
  138loPI   GL1 2197   6.670  16.622   9.186  0.0986  0.1212 -0.1284
  138loPI   GL2 2198   6.704  16.267   9.212  0.1423 -0.0568  0.0459
  138loPI   C1A 2199   6.645  16.685   8.787  0.6001  0.3690  0.0572
  138loPI   C2A 2200   6.517  16.800   8.319 -0.1439  0.1068 -0.1505
  138loPI   C3A 2201   6.462  16.625   7.945 -0.3492 -0.0907 -0.2124
  138loPI   C4A 2202   6.434  16.313   7.571 -0.1386 -0.0135  0.2323
  138loPI   C5A 2203   6.527  16.174   7.241  0.0559 -0.2240  0.0289
  138loPI   C6A 2204   6.308  15.717   7.215 -0.2805 -0.1771  0.1281
  138loPI   C1B 2205   6.605  16.008   8.836  0.1852 -0.1408 -0.1651
  138loPI   C2B 2206   6.612  16.296   8.376  0.2291  0.0363 -0.1727
  138loPI   C3B 2207   6.620  16.068   8.079  0.0250 -0.0379 -0.0897
  138loPI   C4B 2208   6.657  15.794   7.645  0.1068 -0.0269 -0.1918
  139loPI    C1 2209   6.327   0.674   9.779  0.1885 -0.0158  0.1088
  139loPI    C2 2210   6.054   0.388   9.840  0.2297 -0.1858 -0.4487
  139loPI    C3 2211   6.384   0.401  10.066  0.0512 -0.3476 -0.1722
  139loPI   PO4 2212   6.313   0.683   9.445  0.0922 -0.1377  0.0769
  139loPI   GL1 2213   6.037   0.805   9.076  0.2397  0.2816 -0.2233
  139loPI   GL2 2214   5.826   0.549   9.229 -0.1213  0.1545 -0.3356
  139loPI   C1A 2215   5.920   0.903   8.722 -0.2448  0.0937  0.3366
  139loPI   C2A 2216   5.708   1.179   8.471 -0.0200 -0.3577  0.0755
  139loPI   C3A 2217   5.623   1.460   8.157 -0.0063  0.0413  0.2146
  139loPI   C4A 2218   5.496   1.843   8.015 -0.2277  0.1463 -0.1118
  139loPI   C5A 2219   5.317   2.135   7.718 -0.3887 -0.2428  0.2747
  139loPI   C6A 2220   5.125   2.344   7.421  0.3686 -0.0757 -0.1632
  139loPI   C1B 2221   5.764   0.457   8.778 -0.1123  0.1866 -0.0773
  139loPI   C2B 2222   5.758   0.589   8.324 -0.0029 -0.0292 -0.0830
  139loPI   C3B 2223   5.806   0.685   7.971 -0.0642  0.1610  0.2235
  139loPI   C4B 2224   5.595   0.985   7.628  0.0706 -0.0854  0.4670
  140loPI    C1 2225  10.359  10.916   9.978  0.1905  0.1237 -0.1129
  140loPI    C2 2226  10.113  10.621  10.090  0.1811  0.0574 -0.3045
  140loPI    C3 2227  10.462  10.673  10.278 -0.0191  0.2127  0.0335
  140loPI   PO4 2228  10.367  10.916   9.726  0.1394  0.1502 -0.1377
  140loPI   GL1 2229  10.098  10.912   9.449 -0.0075 -0.0560 -0.0680
  140loPI   GL2 2230   9.969  10.625   9.305 -0.1618 -0.1702  0.4596
  140loPI   C1A 2231  10.390  10.892   9.056 -0.3421 -0.2726 -0.0597
  140loPI   C2A 2232  10.359  10.651   8.670 -0.0589 -0.0505  0.3070
  140loPI   C3A 2233  10.531  10.532   8.112  0.2279  0.0280  0.2254
  140loPI   C4A 2234  10.811  10.428   7.702  0.1064 -0.0833  0.1429
  140loPI   C5A 2235  10.939  10.557   7.382 -0.0430  0.0428 -0.0402
  140loPI   C6A 2236  11.362  10.566   7.169  0.0326  0.0085 -0.0533
  140loPI   C1B 2237   9.917  10.794   8.914 -0.1304  0.1679 -0.0287
  140loPI   C2B 2238   9.609  10.833   8.677  0.1771  0.1540  0.1175
  140loPI   C3B 2239   9.307  10.858   8.436  0.2676 -0.0942  0.0735
  140loPI   C4B 2240   9.126  10.845   8.157  0.0672 -0.1485  0.1658
  141loPI    C1 2241   2.254   1.134  10.117  0.0611  0.0582  0.0163
  141loPI    C2 2242   1.921   1.129  10.339  0.1441 -0.1545  0.1390
  141loPI    C3 2243   1.954   0.886  10.024  0.1219 -0.0217  0.0330
  141loPI   PO4 2244   2.293   1.361  10.008 -0.1344 -0.1842  0.0100
  141loPI   GL1 2245   2.623   1.462   9.649 -0.0963  0.0378  0.4749
  141loPI   GL2 2246   2.730   1.730   9.676  0.1756 -0.4380  0.2998
  141loPI   C1A 2247   2.455   1.428   9.242 -0.1068  0.0321  0.1929
  141loPI   C2A 2248   2.614   1.571   8.867  0.3109  0.0257  0.1378
  141loPI   C3A 2249   2.811   1.477   8.538 -0.0941 -0.4921  0.2920
  141loPI   C4A 2250   2.737   1.320   8.099  0.2304 -0.2030  0.1559
  141loPI   C5A 2251   2.310   1.217   7.969 -0.1621  0.0969 -0.0358
  141loPI   C6A 2252   2.340   0.981   7.616  0.2146  0.0616  0.3498
  141loPI   C1B 2253   2.899   2.060   9.342  0.0397  0.2897 -0.0195
  141loPI   C2B 2254   2.941   1.984   8.913  0.0256  0.2356 -0.1821
  141loPI   C3B 2255   3.124   2.214   8.531 -0.2387  0.1475  0.2436
  141loPI   C4B 2256   3.223   2.236   8.127  0.1286  0.1525  0.0067
  142loPI    C1 2257   1.641   1.250   9.941  0.0188 -0.1260 -0.0595
  142loPI    C2 2258   1.243   1.225   9.906  0.0145 -0.2343  0.0597
  142loPI    C3 2259   1.406   1.359  10.246  0.0726  0.1314 -0.1076
  142loPI   PO4 2260   1.695   1.358   9.754  0.0458  0.0154  0.3744
  142loPI   GL1 2261   1.616   1.340   9.411 -0.1008  0.2623 -0.0347
  142loPI   GL2 2262   1.442   1.667   9.460 -0.0130  0.0602  0.2046
  142loPI   C1A 2263   1.944   1.494   9.055  0.2262  0.2743  0.0521
  142loPI   C2A 2264   1.905   1.665   8.682 -0.0445  0.2873  0.1844
  142loPI   C3A 2265   2.068   1.997   8.450 -0.1854  0.0932 -0.1413
  142loPI   C4A 2266   2.061   2.128   8.036  0.1110 -0.1297 -0.2514
  142loPI   C5A 2267   2.255   2.497   7.831  0.0402 -0.1072 -0.0837
  142loPI   C6A 2268   2.597   2.774   7.777 -0.3396 -0.0525 -0.0097
  142loPI   C1B 2269   1.469   1.803   8.964  0.2992 -0.1036  0.3171
  142loPI   C2B 2270   1.478   2.001   8.545 -0.0500 -0.0048 -0.1385
  142loPI   C3B 2271   1.586   2.152   8.030  0.2166  0.2426 -0.2306
  142loPI   C4B 2272   1.784   1.880   7.725 -0.0548  0.2793  0.3039
  143loPI    C1 2273   0.411  15.788  10.370 -0.2688  0.1151 -0.0874
  143loPI    C2 2274   0.144  15.812  10.668 -0.0925 -0.1017  0.0920
  143loPI    C3 2275   0.484  16.022  10.687 -0.2043  0.1011 -0.0918
  143loPI   PO4 2276   0.282  15.761  10.158  0.2970  0.0121 -0.1833
  143loPI   GL1 2277   0.249  15.903   9.757 -0.1610  0.1114  0.3416
  143loPI   GL2 2278  -0.061  15.914   9.847  0.0211  0.1745 -0.2240
  143loPI   C1A 2279   0.163  16.349   9.543 -0.3183  0.0013  0.3111
  143loPI   C2A 2280  -0.031  16.584   9.228 -0.0371  0.0912  0.0881
  143loPI   C3A 2281   0.064  16.724   8.783 -0.0081  0.0654 -0.1806
  143loPI   C4A 2282  -0.175  16.764   8.369 -0.1278 -0.2086 -0.2200
  143loPI   C5A 2283  -0.134  16.602   8.035  0.0879  0.2618 -0.2213
  143loPI   C6A 2284  -0.358  16.398   7.705  0.0820 -0.0693  0.0392
  143loPI   C1B 2285  -0.259  15.777   9.449  0.0882  0.3149  0.1384
  143loPI   C2B 2286  -0.513  15.732   9.035  0.0765 -0.2322 -0.1166
  143loPI   C3B 2287  -0.506  15.525   8.687  0.2246  0.1032  0.0090
  143loPI   C4B 2288  -0.351  15.466   8.292 -0.2035  0.0733  0.0430
  144loPI    C1 2289  16.394   7.151   9.515 -0.1313  0.0174 -0.0324
  144loPI    C2 2290  16.739   6.968   9.428 -0.0709  0.2049 -0.1949
  144loPI    C3 2291  16.569   6.915   9.786 -0.0120 -0.1006 -0.2099
  144loPI   PO4 2292  16.468   7.502   9.303 -0.2724  0.0278 -0.0845
  144loPI   GL1 2293  16.280   7.624   9.001  0.0365  0.1468 -0.1398
  144loPI   GL2 2294  16.113   7.393   8.968  0.0555  0.0058  0.2101
  144loPI   C1A 2295  16.539   7.657   8.618 -0.0132  0.4022  0.2223
  144loPI   C2A 2296  16.652   7.690   8.124 -0.1425  0.2850 -0.2102
  144loPI   C3A 2297  16.744   7.703   7.645  0.1056 -0.2512 -0.0184
  144loPI   C4A 2298  16.858   7.763   7.161 -0.0714  0.1333 -0.2737
  144loPI   C5A 2299  16.723   7.794   6.777  0.0969  0.0865 -0.0850
  144loPI   C6A 2300  16.664   7.494   6.506 -0.2041  0.0930  0.2729
  144loPI   C1B 2301  16.020   7.164   8.604  0.1311 -0.2609 -0.0521
  144loPI   C2B 2302  15.952   7.035   8.190  0.2138 -0.1273 -0.1008
  144loPI   C3B 2303  15.845   7.142   7.775 -0.3224 -0.1286  0.0522
  144loPI   C4B 2304  15.749   7.165   7.370 -0.1430 -0.0317 -0.3333
  145loPI    C1 2305   8.234  15.620  10.087  0.0962 -0.1257 -0.2556
  145loPI    C2 2306   8.117  15.991  10.177  0.3497 -0.0788 -0.1100
  145loPI    C3 2307   8.084  15.699  10.449  0.0436 -0.1908 -0.2628
  145loPI   PO4 2308   8.358  15.695   9.865  0.2506 -0.1352  0.1880
  145loPI   GL1 2309   8.129  15.753   9.451  0.0744 -0.0301  0.1373
  145loPI   GL2 2310   8.022  15.999   9.636 -0.2513 -0.0031 -0.0559
  145loPI   C1A 2311   8.019  15.677   9.007 -0.1780 -0.3715  0.0493
  145loPI   C2A 2312   7.824  15.866   8.656 -0.0486 -0.3222 -0.0567
  145loPI   C3A 2313   7.771  15.934   8.151 -0.0482  0.0457  0.1652
  145loPI   C4A 2314   7.701  15.794   7.793 -0.1794 -0.1643  0.1742
  145loPI   C5A 2315   7.543  15.805   7.321 -0.2313  0.3470  0.1412
  145loPI   C6A 2316   7.305  15.815   6.874  0.0818 -0.0536 -0.0088
  145loPI   C1B 2317   7.921  16.138   9.299  0.2741  0.1721  0.0065
  145loPI   C2B 2318   7.595  16.333   8.935  0.0227 -0.0381 -0.3963
  145loPI   C3B 2319   7.534  16.341   8.497  0.0225  0.2196 -0.0377
  145loPI   C4B 2320   7.419  16.229   7.940  0.1420 -0.1165 -0.0517
  146loPI    C1 2321   3.825  18.307   9.966 -0.2074 -0.0502  0.0355
  146loPI    C2 2322   3.881  17.983  10.194  0.1984  0.0661  0.1079
  146loPI    C3 2323   3.740  18.320  10.357 -0.0387 -0.0139  0.0716
  146loPI   PO4 2324   3.793  18.309   9.716 -0.1433 -0.2200  0.1360
  146loPI   GL1 2325   3.731  18.482   9.244  0.3255 -0.0955 -0.2530
  146loPI   GL2 2326   3.473  18.656   9.063  0.1211  0.2129 -0.2818
  146loPI   C1A 2327   3.763  18.133   8.883 -0.3703  0.0287 -0.0189
  146loPI   C2A 2328   3.561  17.972   8.535  0.2824  0.0780  0.4532
  146loPI   C3A 2329   3.457  17.923   8.153  0.1555  0.1611  0.1917
  146loPI   C4A 2330   3.277  17.740   7.789 -0.1327 -0.0851  0.0025
  146loPI   C5A 2331   3.059  17.384   7.625 -0.2259 -0.0455 -0.1401
  146loPI   C6A 2332   2.889  16.992   7.711 -0.2257 -0.0292  0.2045
  146loPI   C1B 2333   3.405  18.495   8.689  0.4253 -0.1379  0.2018
  146loPI   C2B 2334   3.405  18.471   8.226 -0.3118 -0.0675 -0.1340
  146loPI   C3B 2335   3.660  18.439   7.744  0.0060 -0.1077 -0.0319
  146loPI   C4B 2336   3.833  18.476   7.336  0.1131 -0.0033 -0.0298
  147loPI    C1 2337  10.833   6.424   9.317 -0.1923  0.1502 -0.1565
  147loPI    C2 2338  11.003   6.427   8.955  0.0312 -0.0302 -0.0557
  147loPI    C3 2339  11.203   6.281   9.269 -0.0679  0.3436  0.1883
  147loPI   PO4 2340  10.821   6.686   9.362 -0.0571  0.0355 -0.3408
  147loPI   GL1 2341  11.024   6.890   9.161 -0.3907  0.3015 -0.0061
  147loPI   GL2 2342  11.067   7.208   9.151 -0.0747 -0.1608  0.0764
  147loPI   C1A 2343  10.901   6.925   8.765  0.2320 -0.0697  0.0188
  147loPI   C2A 2344  10.784   7.283   8.475  0.1304  0.2472 -0.0570
  147loPI   C3A 2345  10.913   7.282   8.074  0.2598  0.0751  0.4813
  147loPI   C4A 2346  10.998   7.168   7.546  0.1373 -0.3211 -0.0808
  147loPI   C5A 2347  11.364   7.138   7.259  0.0525 -0.0478 -0.0257
  147loPI   C6A 2348  11.478   7.074   6.870 -0.0514 -0.1809  0.1311
  147loPI   C1B 2349  11.182   7.394   8.778 -0.1212  0.1121 -0.0010
  147loPI   C2B 2350  11.357   7.280   8.404 -0.0500  0.0399  0.1870
  147loPI   C3B 2351  11.481   7.048   8.089 -0.0868  0.2107  0.2334
  147loPI   C4B 2352  11.671   7.135   7.678  0.2336  0.3656  0.1233
  148loPI    C1 2353  14.771  18.350   9.935  0.0589  0.0004 -0.1895
  148loPI    C2 2354  15.040  18.328  10.230 -0.0735 -0.0470 -0.0715
  148loPI    C3 2355  14.908  18.685  10.106 -0.0399 -0.0282 -0.0530
  148loPI   PO4 2356  14.897  18.068   9.829 -0.0459  0.3176 -0.1336
  148loPI   GL1 2357  15.016  17.761   9.604  0.3517 -0.1193 -0.0947
  148loPI   GL2 2358  15.031  18.007   9.340 -0.1161  0.2623 -0.0501
  148loPI   C1A 2359  14.712  17.582   9.383 -0.1396  0.0221 -0.3979
  148loPI   C2A 2360  14.551  17.410   9.105 -0.0863 -0.2069  0.0980
  148loPI   C3A 2361  14.553  17.461   8.631 -0.0671  0.1624 -0.0191
  148loPI   C4A 2362  14.475  17.741   8.326  0.4680 -0.2966 -0.1070
  148loPI   C5A 2363  14.557  17.747   8.009  0.1717  0.1159  0.4958
  148loPI   C6A 2364  14.511  17.648   7.636 -0.0554 -0.1859  0.0585
  148loPI   C1B 2365  15.253  18.113   9.022  0.3052  0.1522  0.1454
  148loPI   C2B 2366  15.290  18.132   8.595 -0.1302  0.0748 -0.2938
  148loPI   C3B 2367  15.508  17.801   8.471 -0.1222  0.0277 -0.0165
  148loPI   C4B 2368  15.512  17.477   8.304 -0.0786  0.0938  0.0051
  149loPI    C1 2369  15.547   6.515   9.349 -0.2514  0.0326  0.0154
  149loPI    C2 2370  15.883   6.472   9.135 -0.1945  0.1314  0.0842
  149loPI    C3 2371  15.745   6.166   9.353  0.0165  0.1822  0.2939
  149loPI   PO4 2372  15.417   6.679   9.242  0.1115  0.0557 -0.0756
  149loPI   GL1 2373  15.110   6.553   8.999  0.0923  0.0493  0.1249
  149loPI   GL2 2374  15.120   6.725   8.712 -0.0801 -0.2049  0.1058
  149loPI   C1A 2375  15.103   6.249   8.642  0.3640 -0.2034  0.1050
  149loPI   C2A 2376  14.926   6.180   8.171  0.1213 -0.1663 -0.0056
  149loPI   C3A 2377  14.903   6.142   7.780 -0.0764 -0.1169  0.0499
  149loPI   C4A 2378  14.619   6.374   7.512  0.2748  0.1146 -0.1129
  149loPI   C5A 2379  14.405   6.443   7.101  0.2287 -0.2346  0.1523
  149loPI   C6A 2380  14.199   6.669   6.927  0.2289 -0.1047  0.2301
  149loPI   C1B 2381  15.112   6.969   8.320  0.2957 -0.1846  0.1992
  149loPI   C2B 2382  15.029   7.203   7.996 -0.0692 -0.0704  0.0337
  149loPI   C3B 2383  14.888   7.577   7.874  0.0219  0.0657  0.0592
  149loPI   C4B 2384  15.028   7.814   7.571 -0.3038  0.1344  0.0080
  150loPI    C1 2385  13.730   5.167   9.832  0.0208 -0.2360 -0.0514
  150loPI    C2 2386  14.034   4.911   9.786  0.0636 -0.2317  0.1950
  150loPI    C3 2387  13.865   4.959  10.146 -0.0225 -0.0017  0.1254
  150loPI   PO4 2388  13.609   5.149   9.560 -0.1206  0.3871 -0.3615
  150loPI   GL1 2389  13.942   5.298   9.280  0.0837 -0.0723 -0.1228
  150loPI   GL2 2390  13.654   5.393   9.084 -0.2418 -0.1693 -0.1953
  150loPI   C1A 2391  13.966   5.254   8.790  0.0487  0.0041  0.0570
  150loPI   C2A 2392  13.989   5.239   8.319 -0.0604  0.0759 -0.2324
  150loPI   C3A 2393  13.951   5.329   7.891  0.0616  0.0567 -0.1342
  150loPI   C4A 2394  14.193   5.443   7.462 -0.0501 -0.0488  0.2689
  150loPI   C5A 2395  14.032   5.584   7.124  0.0395  0.0129  0.1870
  150loPI   C6A 2396  13.849   5.482   6.715 -0.1105 -0.0039  0.1996
  150loPI   C1B 2397  13.725   5.649   8.701  0.0073  0.1558 -0.2321
  150loPI   C2B 2398  13.606   5.611   8.271  0.1864  0.1098  0.1722
  150loPI   C3B 2399  13.450   5.398   7.876 -0.1641  0.0767  0.0785
  150loPI   C4B 2400  13.145   5.331   7.578  0.0618  0.1204 -0.2093
  151loPI    C1 2401  13.719  13.775  10.074 -0.1149 -0.3379 -0.2224
  151loPI    C2 2402  13.412  13.905   9.852  0.0477  0.1595 -0.1673
  151loPI    C3 2403  13.487  14.072  10.208  0.1207 -0.2598  0.0205
  151loPI   PO4 2404  13.926  13.778   9.875 -0.2323  0.0101  0.0845
  151loPI   GL1 2405  14.025  13.507   9.662 -0.0360  0.1422 -0.0550
  151loPI   GL2 2406  13.794  13.419   9.362  0.0367  0.2114  0.2115
  151loPI   C1A 2407  14.413  13.480   9.438 -0.5132  0.2502  0.2431
  151loPI   C2A 2408  14.280  13.391   8.951  0.0383 -0.1794 -0.0932
  151loPI   C3A 2409  14.075  13.454   8.525 -0.0825  0.2557 -0.2987
  151loPI   C4A 2410  13.640  13.490   8.195 -0.0896  0.0361  0.3425
  151loPI   C5A 2411  13.536  13.850   8.028 -0.1460 -0.2767 -0.0613
  151loPI   C6A 2412  13.486  14.241   8.082  0.1155  0.3713  0.1159
  151loPI   C1B 2413  13.736  13.477   8.979 -0.1392 -0.0407  0.1673
  151loPI   C2B 2414  13.558  13.750   8.577 -0.1002 -0.2438 -0.1550
  151loPI   C3B 2415  13.137  13.835   8.412 -0.1825  0.0564 -0.0775
  151loPI   C4B 2416  12.809  13.707   8.351 -0.0500 -0.2553  0.0970
  152loPI    C1 2417   7.965  13.504   9.861 -0.2991  0.0542 -0.1075
  152loPI    C2 2418   7.884  13.870   9.721  0.0776  0.2088  0.0653
  152loPI    C3 2419   7.926  13.811  10.114 -0.0028 -0.0261  0.0403
  152loPI   PO4 2420   7.757  13.369   9.739 -0.1108 -0.2201  0.0127
  152loPI   GL1 2421   7.535  13.340   9.397  0.0304 -0.1079  0.0033
  152loPI   GL2 2422   7.580  13.644   9.322 -0.1537 -0.1914  0.1252
  152loPI   C1A 2423   7.889  13.299   9.048 -0.1182  0.3184 -0.1836
  152loPI   C2A 2424   7.837  13.432   8.590  0.0331 -0.1904  0.2275
  152loPI   C3A 2425   7.873  13.679   8.263 -0.0318 -0.1085  0.1170
  152loPI   C4A 2426   7.690  13.549   7.958  0.2182  0.3392 -0.2048
  152loPI   C5A 2427   7.607  13.584   7.621 -0.2291  0.1901 -0.1900
  152loPI   C6A 2428   7.133  13.526   7.446 -0.1517 -0.2418 -0.1779
  152loPI   C1B 2429   7.628  13.796   8.932 -0.0238 -0.1261  0.3677
  152loPI   C2B 2430   7.408  13.946   8.440  0.0131 -0.2407 -0.1197
  152loPI   C3B 2431   7.055  13.987   8.258  0.0348 -0.2197  0.2489
  152loPI   C4B 2432   6.788  14.238   8.069  0.1117 -0.3147 -0.0424
  153loPI    C1 2433  12.016  17.331   9.972 -0.2456 -0.1175  0.2603
  153loPI    C2 2434  11.948  17.725   9.990  0.0052 -0.0573 -0.0146
  153loPI    C3 2435  11.799  17.482  10.272 -0.2152  0.2228  0.1153
  153loPI   PO4 2436  12.098  17.340   9.679 -0.1258  0.1774 -0.0779
  153loPI   GL1 2437  11.949  17.313   9.195 -0.0138  0.0008  0.0402
  153loPI   GL2 2438  11.946  17.581   9.110  0.1317  0.1211  0.0289
  153loPI   C1A 2439  12.195  17.217   8.878  0.1573  0.0898 -0.2142
  153loPI   C2A 2440  12.161  17.462   8.476 -0.1302  0.1461  0.0995
  153loPI   C3A 2441  12.370  17.703   8.306  0.0092  0.3681 -0.3656
  153loPI   C4A 2442  12.655  17.994   8.352  0.1701 -0.3246  0.2372
  153loPI   C5A 2443  12.670  18.443   8.379  0.0614  0.2296 -0.0161
  153loPI   C6A 2444  12.628  18.821   8.098  0.1212  0.2724 -0.2563
  153loPI   C1B 2445  12.191  17.804   8.804  0.0283 -0.1764 -0.1159
  153loPI   C2B 2446  12.718  17.638   8.708  0.0534  0.2838 -0.1315
  153loPI   C3B 2447  13.066  17.692   8.395 -0.0400  0.0805 -0.2631
  153loPI   C4B 2448  13.204  17.713   7.865 -0.0371 -0.0656 -0.0869
  154loPI    C1 2449  16.578  12.217   9.872 -0.0501 -0.3330  0.1327
  154loPI    C2 2450  16.854  12.433  10.064 -0.1416 -0.0465 -0.0533
  154loPI    C3 2451  16.543  12.281  10.265  0.0562 -0.2216  0.1242
  154loPI   PO4 2452  16.684  12.248   9.641 -0.2181  0.0790 -0.0048
  154loPI   GL1 2453  16.718  12.503   9.337  0.1442  0.0429 -0.1295
  154loPI   GL2 2454  16.896  12.756   9.361  0.0481 -0.3398  0.0211
  154loPI   C1A 2455  16.867  12.621   8.881  0.0267  0.1726  0.1882
  154loPI   C2A 2456  16.928  12.717   8.413 -0.1156  0.0328 -0.6111
  154loPI   C3A 2457  17.145  12.867   8.014 -0.2436 -0.3055  0.1052
  154loPI   C4A 2458  17.057  13.019   7.600 -0.1373  0.0187 -0.0322
  154loPI   C5A 2459  17.032  13.330   7.199 -0.3814 -0.3232  0.1284
  154loPI   C6A 2460  16.941  13.626   6.896 -0.1258  0.4207  0.2051
  154loPI   C1B 2461  16.882  13.116   9.141  0.2196  0.1340  0.1532
  154loPI   C2B 2462  16.755  13.133   8.739 -0.0733  0.1775  0.0911
  154loPI   C3B 2463  16.969  13.331   8.302  0.0538 -0.3435 -0.0043
  154loPI   C4B 2464  17.283  13.348   8.029 -0.0915  0.1788  0.1540
  155loPI    C1 2465   2.733   7.235   9.989 -0.0386 -0.0692 -0.0255
  155loPI    C2 2466   2.975   7.059  10.255 -0.0056  0.0413  0.0182
  155loPI    C3 2467   3.077   7.411  10.095 -0.0526  0.0021 -0.0985
  155loPI   PO4 2468   2.578   7.050   9.962 -0.0538 -0.1038  0.1317
  155loPI   GL1 2469   2.622   6.873   9.482 -0.1734 -0.2758  0.0876
  155loPI   GL2 2470   2.577   6.590   9.462 -0.1411 -0.0717 -0.1031
  155loPI   C1A 2471   2.981   6.862   9.148  0.1266 -0.0875  0.1150
  155loPI   C2A 2472   3.200   6.540   9.031  0.0327  0.2546 -0.0038
  155loPI   C3A 2473   3.430   6.627   8.724  0.0398 -0.2200 -0.0504
  155loPI   C4A 2474   3.727   6.767   8.460 -0.2264  0.1961 -0.0577
  155loPI   C5A 2475   3.966   6.943   8.155 -0.0200 -0.0457 -0.0327
  155loPI   C6A 2476   3.903   6.977   7.774 -0.4210  0.1221  0.1027
  155loPI   C1B 2477   2.712   6.387   9.061 -0.1743  0.0905 -0.2211
  155loPI   C2B 2478   2.672   6.499   8.661  0.1591 -0.0357 -0.2126
  155loPI   C3B 2479   2.984   6.512   8.407  0.0551 -0.6347  0.0940
  155loPI   C4B 2480   3.329   6.628   8.205  0.1202 -0.0135 -0.3765
  156loPI    C1 2481  14.615   5.375   9.635  0.0938  0.2299  0.0841
  156loPI    C2 2482  14.428   5.447   9.288  0.1567  0.0598  0.0138
  156loPI    C3 2483  14.420   5.080   9.448  0.4854  0.0329 -0.0243
  156loPI   PO4 2484  14.928   5.422   9.554 -0.1327 -0.2535  0.0419
  156loPI   GL1 2485  14.934   5.416   9.211 -0.1173  0.2837  0.0010
  156loPI   GL2 2486  14.838   5.789   9.215  0.1278  0.2860  0.0250
  156loPI   C1A 2487  14.866   5.403   8.718 -0.3043 -0.2646  0.3730
  156loPI   C2A 2488  15.125   5.345   8.274  0.2437  0.0449  0.0947
  156loPI   C3A 2489  15.341   5.233   7.859  0.1691 -0.1449  0.2365
  156loPI   C4A 2490  15.378   5.487   7.645  0.0449  0.0544 -0.0878
  156loPI   C5A 2491  15.211   5.837   7.533 -0.1958 -0.1754 -0.0223
  156loPI   C6A 2492  14.888   6.003   7.284 -0.1587  0.0845 -0.0728
  156loPI   C1B 2493  15.069   5.848   8.872  0.0573  0.1669 -0.1272
  156loPI   C2B 2494  15.236   5.694   8.592 -0.0129 -0.2069  0.1213
  156loPI   C3B 2495  15.330   5.865   8.136 -0.2617  0.1885 -0.1693
  156loPI   C4B 2496  15.722   5.720   7.993  0.0264  0.1017  0.2739
  157loPI    C1 2497  12.076   5.413   9.771 -0.1756  0.3962 -0.0603
  157loPI    C2 2498  11.854   5.550  10.074  0.0864  0.0002  0.3243
  157loPI    C3 2499  11.950   5.162  10.056  0.1878  0.0413 -0.2008
  157loPI   PO4 2500  11.915   5.483   9.473 -0.0353  0.1698  0.0500
  157loPI   GL1 2501  11.930   5.234   9.005  0.1093 -0.0608 -0.1336
  157loPI   GL2 2502  12.164   5.244   8.839 -0.0549 -0.1677 -0.0347
  157loPI   C1A 2503  11.741   5.069   8.634 -0.2095 -0.4569  0.0816
  157loPI   C2A 2504  11.728   4.962   8.208  0.2991 -0.1955 -0.0960
  157loPI   C3A 2505  11.721   4.771   7.701 -0.3584 -0.0832  0.0750
  157loPI   C4A 2506  11.750   4.436   7.336  0.0229 -0.0015 -0.2933
  157loPI   C5A 2507  11.486   4.018   7.419  0.2338  0.2077 -0.4674
  157loPI   C6A 2508  11.162   3.917   7.693 -0.0093 -0.0164  0.0508
  157loPI   C1B 2509  12.047   5.464   8.473  0.1428  0.1422 -0.1101
  157loPI   C2B 2510  11.797   5.390   7.968 -0.0105 -0.1873  0.0042
  157loPI   C3B 2511  11.813   5.532   7.487 -0.2112 -0.0449  0.1318
  157loPI   C4B 2512  11.819   5.325   7.164  0.1788  0.0985  0.0004
  158loPI    C1 2513  10.584  14.625  10.274 -0.1420 -0.1626 -0.0713
  158loPI    C2 2514  10.741  14.412  10.574  0.0637 -0.1418 -0.1620
  158loPI    C3 2515  10.851  14.793  10.521  0.0862 -0.1681 -0.3091
  158loPI   PO4 2516  10.553  14.423  10.033 -0.2393  0.2944 -0.0076
  158loPI   GL1 2517  10.417  14.291   9.576 -0.1695 -0.1378 -0.1583
  158loPI   GL2 2518  10.159  14.050   9.356 -0.1020 -0.0157 -0.0871
  158loPI   C1A 2519  10.717  14.205   9.245  0.1174  0.3580  0.1695
  158loPI   C2A 2520  10.800  14.072   8.886  0.2650 -0.0704 -0.0181
  158loPI   C3A 2521  11.031  13.926   8.471  0.1791 -0.0946 -0.7070
  158loPI   C4A 2522  10.707  13.853   8.177 -0.0227 -0.1386 -0.2577
  158loPI   C5A 2523  10.288  13.928   7.890 -0.1158  0.0514  0.1500
  158loPI   C6A 2524  10.040  13.697   7.563 -0.0463 -0.1579  0.0408
  158loPI   C1B 2525  10.247  13.925   8.834  0.1296 -0.2031 -0.0355
  158loPI   C2B 2526  10.235  13.771   8.361 -0.2527 -0.0835 -0.2183
  158loPI   C3B 2527  10.353  13.499   8.114 -0.0919  0.2150 -0.0714
  158loPI   C4B 2528  10.579  13.246   7.787  0.3148 -0.0079 -0.2113
  159loPI    C1 2529  18.833  12.372   9.583 -0.1819 -0.0031 -0.4085
  159loPI    C2 2530  19.018  12.726   9.555 -0.0285 -0.0801 -0.3819
  159loPI    C3 2531  19.146  12.453   9.818 -0.1950 -0.1267 -0.3477
  159loPI   PO4 2532  18.545  12.415   9.579 -0.0925 -0.1836  0.1440
  159loPI   GL1 2533  18.456  12.431   9.204 -0.1999 -0.0043 -0.2702
  159loPI   GL2 2534  18.485  12.656   9.126  0.0111 -0.0264 -0.1505
  159loPI   C1A 2535  18.364  12.332   8.745  0.0834  0.0738 -0.1818
  159loPI   C2A 2536  18.566  12.341   8.321  0.1040 -0.2059 -0.0113
  159loPI   C3A 2537  18.771  12.214   7.972 -0.0028  0.3619  0.2492
  159loPI   C4A 2538  18.607  11.918   7.672  0.1597 -0.1213  0.0788
  159loPI   C5A 2539  18.518  11.465   7.526 -0.0900  0.0517  0.0994
  159loPI   C6A 2540  18.585  11.172   7.300 -0.0018 -0.1162  0.0085
  159loPI   C1B 2541  18.368  12.818   8.790  0.2589  0.1606  0.2433
  159loPI   C2B 2542  18.490  12.888   8.348  0.0010  0.0076  0.2245
  159loPI   C3B 2543  18.434  12.906   7.915 -0.0456  0.0796  0.2377
  159loPI   C4B 2544  18.568  12.900   7.458 -0.2049  0.1888  0.0054
  160loPI    C1 2545  11.623   2.177   9.990  0.1908 -0.1081 -0.2117
  160loPI    C2 2546  11.600   1.832  10.192  0.0691  0.0440  0.0382
  160loPI    C3 2547  11.506   2.177  10.372  0.3611  0.2296 -0.1563
  160loPI   PO4 2548  11.574   2.047   9.760  0.0323 -0.0087  0.2714
  160loPI   GL1 2549  11.570   1.960   9.420 -0.0756 -0.0564  0.1570
  160loPI   GL2 2550  11.512   1.539   9.351  0.1823 -0.3285 -0.0789
  160loPI   C1A 2551  11.817   1.906   9.063  0.1226  0.1612 -0.0326
  160loPI   C2A 2552  12.139   1.602   8.805 -0.3628  0.2811 -0.1060
  160loPI   C3A 2553  12.070   1.337   8.450 -0.0916 -0.1272 -0.1225
  160loPI   C4A 2554  11.840   1.137   8.120 -0.0208 -0.4774  0.2248
  160loPI   C5A 2555  12.003   0.885   7.798  0.1629  0.1108  0.0073
  160loPI   C6A 2556  11.755   0.733   7.363  0.2136 -0.0122 -0.0666
  160loPI   C1B 2557  11.326   1.674   9.057 -0.0551 -0.3703  0.1291
  160loPI   C2B 2558  11.337   2.038   8.978 -0.2222  0.1118 -0.0310
  160loPI   C3B 2559  11.227   2.279   8.615 -0.0505  0.0223 -0.2215
  160loPI   C4B 2560  10.773   2.262   8.327  0.1165  0.1497 -0.0505
  161loPI    C1 2561  16.901  13.234   9.921 -0.0887 -0.0232 -0.0280
  161loPI    C2 2562  16.743  12.886   9.804  0.0445 -0.1337  0.1173
  161loPI    C3 2563  16.831  12.947  10.190 -0.1101  0.1149  0.1153
  161loPI   PO4 2564  16.832  13.396   9.723 -0.1343  0.2781  0.0641
  161loPI   GL1 2565  16.575  13.727   9.459 -0.1367  0.3476  0.2091
  161loPI   GL2 2566  16.324  13.591   9.602 -0.0379 -0.0344 -0.0098
  161loPI   C1A 2567  16.639  13.586   9.046  0.0284  0.1905 -0.0761
  161loPI   C2A 2568  16.793  13.744   8.689  0.4146  0.0598  0.0798
  161loPI   C3A 2569  16.828  13.888   8.207 -0.3383  0.1228  0.0796
  161loPI   C4A 2570  17.038  13.957   7.794 -0.0085  0.1470 -0.1607
  161loPI   C5A 2571  16.934  13.976   7.313  0.0260  0.0089  0.1730
  161loPI   C6A 2572  16.670  14.164   6.928 -0.3076  0.1948 -0.3101
  161loPI   C1B 2573  16.167  13.469   9.209 -0.1985 -0.2763 -0.2620
  161loPI   C2B 2574  16.218  13.383   8.783 -0.0925  0.0453  0.1042
  161loPI   C3B 2575  16.437  13.498   8.489  0.1481  0.2084  0.0415
  161loPI   C4B 2576  16.533  13.463   8.076  0.2190  0.0385  0.1240
  162loPI    C1 2577   0.830   7.992   9.376  0.1452 -0.0599  0.1006
  162loPI    C2 2578   0.616   8.119   9.689  0.1920 -0.2994  0.2317
  162loPI    C3 2579   0.889   8.359   9.523  0.0001 -0.0847  0.2228
  162loPI   PO4 2580   0.923   7.800   9.341  0.1689 -0.2267 -0.0672
  162loPI   GL1 2581   1.315   7.876   9.167  0.1086 -0.2840 -0.1550
  162loPI   GL2 2582   1.228   8.206   9.055  0.1036  0.2058 -0.1652
  162loPI   C1A 2583   1.088   7.779   8.777 -0.4392 -0.1068  0.3786
  162loPI   C2A 2584   1.106   7.797   8.332 -0.1792 -0.1703 -0.1765
  162loPI   C3A 2585   1.198   7.676   7.912 -0.1752 -0.1383 -0.3071
  162loPI   C4A 2586   1.321   7.575   7.568  0.0265  0.0540  0.0818
  162loPI   C5A 2587   1.352   7.504   7.094  0.0367 -0.1141 -0.0047
  162loPI   C6A 2588   1.562   7.330   6.849  0.0815 -0.2560  0.0111
  162loPI   C1B 2589   1.326   8.264   8.668 -0.1739  0.1368  0.1135
  162loPI   C2B 2590   1.444   8.226   8.292  0.0681 -0.0785  0.0565
  162loPI   C3B 2591   1.190   8.215   8.019 -0.2324  0.0325  0.2646
  162loPI   C4B 2592   1.168   8.174   7.515  0.0966 -0.0867  0.0092
  163loPI    C1 2593   7.364  11.342   9.881 -0.0345  0.0847 -0.1057
  163loPI    C2 2594   7.021  11.537   9.815 -0.0547  0.0588 -0.0778
  163loPI    C3 2595   7.138  11.460  10.189 -0.1063 -0.0878 -0.0909
  163loPI   PO4 2596   7.505  11.440   9.730 -0.1778 -0.0201  0.3813
  163loPI   GL1 2597   7.756  11.288   9.413 -0.3868 -0.2997  0.1962
  163loPI   GL2 2598   8.040  11.230   9.419 -0.2526 -0.0119 -0.1146
  163loPI   C1A 2599   7.587  11.493   9.096  0.2038  0.0648 -0.1117
  163loPI   C2A 2600   7.087  11.613   8.899  0.1626  0.3296  0.1378
  163loPI   C3A 2601   7.025  11.648   8.428  0.0077 -0.0068 -0.0844
  163loPI   C4A 2602   6.838  11.736   8.052 -0.1414  0.0284 -0.1174
  163loPI   C5A 2603   6.972  11.688   7.701  0.1567 -0.5163 -0.0772
  163loPI   C6A 2604   7.000  11.764   7.240 -0.0960  0.2051 -0.0749
  163loPI   C1B 2605   8.054  11.439   9.071 -0.2351  0.1934 -0.0441
  163loPI   C2B 2606   7.851  11.735   8.758  0.0609  0.1239  0.0448
  163loPI   C3B 2607   7.914  11.698   8.358 -0.0836 -0.0193 -0.0508
  163loPI   C4B 2608   7.839  11.741   7.916 -0.1617 -0.3161  0.0184
  164loPI    C1 2609   5.490   5.749   9.372 -0.1878  0.0156 -0.0033
  164loPI    C2 2610   5.217   5.559   9.594 -0.0058 -0.2462  0.0017
  164loPI    C3 2611   5.403   5.883   9.739 -0.1738 -0.1802  0.0726
  164loPI   PO4 2612   5.602   5.531   9.225 -0.4677  0.3280  0.2532
  164loPI   GL1 2613   5.398   5.262   9.008  0.1269  0.1051 -0.1704
  164loPI   GL2 2614   5.650   5.303   8.744 -0.1993  0.1962 -0.2442
  164loPI   C1A 2615   5.117   5.427   8.637 -0.1655 -0.1802  0.0498
  164loPI   C2A 2616   4.981   5.612   8.211  0.1880  0.4357  0.1902
  164loPI   C3A 2617   4.846   5.790   7.846  0.1432  0.0230  0.1764
  164loPI   C4A 2618   4.647   5.792   7.427 -0.2355 -0.0195 -0.1263
  164loPI   C5A 2619   4.608   5.443   7.167  0.1261  0.1733  0.1840
  164loPI   C6A 2620   4.315   5.165   6.908  0.0362  0.4406 -0.0139
  164loPI   C1B 2621   5.729   5.166   8.379 -0.0111  0.1141 -0.1518
  164loPI   C2B 2622   5.785   5.358   7.992 -0.0511  0.1406  0.1284
  164loPI   C3B 2623   5.824   5.399   7.602  0.1160 -0.0451  0.0529
  164loPI   C4B 2624   5.945   5.340   7.200 -0.2004 -0.1714 -0.3518
  165loPI    C1 2625  10.200   3.957   9.600  0.0903 -0.0022 -0.1912
  165loPI    C2 2626  10.310   4.038   9.976  0.0214 -0.2168 -0.1233
  165loPI    C3 2627   9.932   4.099   9.861  0.1378  0.2564 -0.2796
  165loPI   PO4 2628  10.528   4.033   9.430  0.2774  0.1419  0.0662
  165loPI   GL1 2629  10.694   4.226   9.053  0.2053  0.1094 -0.1045
  165loPI   GL2 2630  10.670   4.578   8.905  0.1850 -0.2713 -0.2258
  165loPI   C1A 2631  10.597   3.864   8.786  0.1216  0.0062  0.0366
  165loPI   C2A 2632  10.503   3.666   8.486  0.0354 -0.0410 -0.0561
  165loPI   C3A 2633  10.723   3.356   8.232 -0.0388 -0.1650  0.0136
  165loPI   C4A 2634  11.101   3.232   8.217 -0.3365 -0.0397 -0.0045
  165loPI   C5A 2635  11.358   3.441   7.836 -0.0023  0.1457 -0.1797
  165loPI   C6A 2636  11.244   3.502   7.354  0.2474 -0.1289 -0.2583
  165loPI   C1B 2637  10.740   4.644   8.449  0.0220 -0.1587 -0.2958
  165loPI   C2B 2638  10.731   4.580   8.054  0.4070  0.0414 -0.3786
  165loPI   C3B 2639  10.831   4.629   7.695 -0.2848  0.3573  0.0501
  165loPI   C4B 2640  11.038   4.958   7.469  0.1362 -0.2356 -0.0733
  166loPI    C1 2641   6.408   2.105   9.766 -0.0699  0.2142  0.0508
  166loPI    C2 2642   6.513   2.346   9.464 -0.1273 -0.4335 -0.5100
  166loPI    C3 2643   6.741   2.031   9.558 -0.0128 -0.1436  0.2615
  166loPI   PO4 2644   6.077   2.226   9.739  0.1261 -0.2783 -0.1500
  166loPI   GL1 2645   5.974   2.366   9.382  0.1083  0.1822 -0.3597
  166loPI   GL2 2646   6.048   2.645   9.297  0.1952 -0.0265  0.3340
  166loPI   C1A 2647   5.653   2.264   9.022 -0.0326 -0.2617 -0.4447
  166loPI   C2A 2648   5.488   2.354   8.621 -0.1255 -0.2901  0.2634
  166loPI   C3A 2649   5.411   2.340   8.188 -0.0455 -0.0374 -0.0582
  166loPI   C4A 2650   5.047   2.499   7.895 -0.0343 -0.2161 -0.0625
  166loPI   C5A 2651   4.794   2.706   7.627  0.1935  0.0492  0.0512
  166loPI   C6A 2652   4.547   3.172   7.547 -0.1134 -0.2721 -0.0966
  166loPI   C1B 2653   5.939   2.620   8.860 -0.1778 -0.1278  0.2002
  166loPI   C2B 2654   5.810   2.677   8.368  0.1192 -0.2148 -0.0660
  166loPI   C3B 2655   5.738   2.582   7.900 -0.0336 -0.0471  0.2840
  166loPI   C4B 2656   5.562   2.529   7.540 -0.2506 -0.2606 -0.1565
  167loPI    C1 2657   9.058   3.011   9.706 -0.0424 -0.0396 -0.0266
  167loPI    C2 2658   9.064   2.618   9.782  0.1751 -0.0589 -0.1347
  167loPI    C3 2659   9.393   2.838   9.841 -0.0323  0.1668  0.2214
  167loPI   PO4 2660   8.945   3.067   9.455 -0.0951  0.2074 -0.0846
  167loPI   GL1 2661   9.019   3.311   9.133  0.0992 -0.1124 -0.1190
  167loPI   GL2 2662   8.950   2.936   8.916 -0.2415  0.2782  0.1411
  167loPI   C1A 2663   9.247   3.436   8.842 -0.2084  0.0619  0.0751
  167loPI   C2A 2664   9.238   3.431   8.467 -0.1692  0.2492  0.2199
  167loPI   C3A 2665   9.226   3.508   8.036  0.1015 -0.0295 -0.1493
  167loPI   C4A 2666   9.379   3.397   7.619 -0.1886  0.0634 -0.3394
  167loPI   C5A 2667   9.673   3.339   7.275  0.1313  0.1841 -0.0834
  167loPI   C6A 2668   9.533   3.045   6.847 -0.2792  0.2381  0.2558
  167loPI   C1B 2669   8.820   3.281   8.663  0.0909  0.0871 -0.2884
  167loPI   C2B 2670   8.661   3.325   8.342 -0.0074 -0.1273 -0.0105
  167loPI   C3B 2671   8.618   3.396   8.009  0.1820  0.1118  0.2578
  167loPI   C4B 2672   8.564   3.573   7.558  0.0095 -0.1413 -0.2155
  168loPI    C1 2673  13.918  12.109  10.296 -0.0464  0.1734  0.1928
  168loPI    C2 2674  14.051  12.291  10.627 -0.0590  0.2954  0.1314
  168loPI    C3 2675  13.830  12.493  10.362  0.1127  0.2532 -0.0468
  168loPI   PO4 2676  14.207  11.892  10.234 -0.3312 -0.0417 -0.0208
  168loPI   GL1 2677  14.469  11.655   9.846 -0.1874 -0.0601 -0.1030
  168loPI   GL2 2678  14.142  11.378   9.949 -0.1063 -0.1616  0.2707
  168loPI   C1A 2679  14.656  11.696   9.441 -0.0823  0.3109  0.3202
  168loPI   C2A 2680  14.692  11.619   8.987  0.3578 -0.0352 -0.2758
  168loPI   C3A 2681  14.854  11.492   8.642 -0.1257  0.2718  0.3502
  168loPI   C4A 2682  14.930  11.241   8.250  0.1145 -0.2328  0.0095
  168loPI   C5A 2683  14.821  10.974   7.936  0.2180  0.2161 -0.0765
  168loPI   C6A 2684  14.612  10.867   7.509 -0.1946 -0.1368 -0.3708
  168loPI   C1B 2685  14.218  11.512   9.468 -0.0068 -0.0933 -0.2689
  168loPI   C2B 2686  14.165  11.576   8.967 -0.4142 -0.1297 -0.2021
  168loPI   C3B 2687  14.176  11.571   8.515  0.0715  0.1122  0.2437
  168loPI   C4B 2688  13.953  11.387   8.152  0.1555  0.3112  0.0985
  169loPI    C1 2689  10.628  12.867  10.404 -0.0063 -0.1118  0.0843
  169loPI    C2 2690  10.318  12.770  10.638 -0.0868 -0.0255  0.0143
  169loPI    C3 2691  10.625  12.978  10.788 -0.2183  0.1803  0.0021
  169loPI   PO4 2692  10.517  12.972  10.174  0.0111  0.1103  0.1452
  169loPI   GL1 2693  10.451  13.087   9.822 -0.0716  0.3871  0.0526
  169loPI   GL2 2694  10.455  13.446   9.692  0.1158 -0.3426 -0.1458
  169loPI   C1A 2695  10.736  13.076   9.506  0.0221 -0.1581 -0.3052
  169loPI   C2A 2696  10.737  13.006   9.028 -0.1065  0.0360 -0.2662
  169loPI   C3A 2697  10.997  12.980   8.680  0.3277  0.1954  0.1681
  169loPI   C4A 2698  11.215  12.609   8.522 -0.3450  0.1275  0.0824
  169loPI   C5A 2699  11.579  12.531   8.322  0.0216  0.4032 -0.1673
  169loPI   C6A 2700  11.488  12.470   7.991  0.2631  0.2621 -0.1219
  169loPI   C1B 2701  10.511  13.618   9.268  0.1857 -0.2447 -0.3816
  169loPI   C2B 2702  10.478  13.472   8.802  0.1820 -0.2853 -0.2811
  169loPI   C3B 2703  10.560  13.243   8.557  0.1122 -0.1033 -0.1819
  169loPI   C4B 2704  10.828  13.120   8.191  0.3795  0.0541  0.1493
  170loPI    C1 2705   6.250  10.697   9.816  0.0079  0.0106 -0.1261
  170loPI    C2 2706   6.479  10.688  10.144 -0.1287  0.0474 -0.0292
  170loPI    C3 2707   6.642  10.624   9.785  0.0596  0.2129  0.0251
  170loPI   PO4 2708   6.067  10.944   9.810 -0.0943 -0.0181 -0.1328
  170loPI   GL1 2709   5.792  10.993   9.396  0.0728 -0.1230  0.2409
  170loPI   GL2 2710   5.825  10.715   9.461  0.2944 -0.0547 -0.0701
  170loPI   C1A 2711   5.480  11.066   9.065 -0.1066  0.2850 -0.2280
  170loPI   C2A 2712   5.450  10.997   8.642  0.4057 -0.3565  0.1518
  170loPI   C3A 2713   5.214  10.757   8.349 -0.2039  0.1601 -0.3074
  170loPI   C4A 2714   5.144  10.537   8.045 -0.4985  0.1240  0.2438
  170loPI   C5A 2715   5.064  10.465   7.663  0.0197 -0.0297  0.1020
  170loPI   C6A 2716   5.105  10.437   7.173 -0.2352 -0.1737  0.1253
  170loPI   C1B 2717   5.882  10.591   9.013 -0.3729  0.0586  0.0907
  170loPI   C2B 2718   5.727  10.557   8.617  0.2064 -0.0311 -0.0809
  170loPI   C3B 2719   5.693  10.754   8.201 -0.0794  0.0485 -0.3842
  170loPI   C4B 2720   5.743  10.589   7.813 -0.3368 -0.2495 -0.2168
  171loPI    C1 2721  18.400  10.528  10.040  0.2369 -0.0445 -0.1139
  171loPI    C2 2722  18.683  10.246  10.063 -0.0137 -0.2811  0.1584
  171loPI    C3 2723  18.749  10.609  10.218  0.3577 -0.1406 -0.3036
  171loPI   PO4 2724  18.335  10.466   9.722  0.1100 -0.1187 -0.1323
  171loPI   GL1 2725  18.465  10.476   9.311  0.0630  0.1628 -0.1236
  171loPI   GL2 2726  18.297  10.790   9.210 -0.0977 -0.2821  0.2588
  171loPI   C1A 2727  18.500  10.394   8.824  0.0404  0.0705 -0.1859
  171loPI   C2A 2728  18.489  10.532   8.412 -0.0201  0.2034  0.1543
  171loPI   C3A 2729  18.244  10.542   8.029  0.0786 -0.2027  0.1432
  171loPI   C4A 2730  18.219  10.372   7.570  0.1171 -0.1039 -0.2406
  171loPI   C5A 2731  18.095  10.080   7.282 -0.1330  0.0507  0.3142
  171loPI   C6A 2732  17.841  10.071   6.863  0.2861 -0.1743 -0.0131
  171loPI   C1B 2733  18.177  11.025   8.913 -0.2363 -0.1726  0.0669
  171loPI   C2B 2734  17.996  11.069   8.545 -0.3797  0.3402  0.2273
  171loPI   C3B 2735  17.764  11.192   8.237  0.3103 -0.1956 -0.2780
  171loPI   C4B 2736  17.489  11.106   7.879  0.1926 -0.0449  0.2079
  172loPI    C1 2737  15.065  12.405  10.281  0.0533  0.1666  0.1381
  172loPI    C2 2738  15.420  12.220  10.301  0.0129  0.0887  0.1369
  172loPI    C3 2739  15.392  12.610  10.386  0.1353  0.1433 -0.0661
  172loPI   PO4 2740  14.971  12.318  10.098  0.1516  0.4289 -0.0679
  172loPI   GL1 2741  14.666  12.203   9.842 -0.2711  0.2235 -0.1081
  172loPI   GL2 2742  14.874  11.931   9.787 -0.0640 -0.1818  0.4107
  172loPI   C1A 2743  14.676  12.310   9.432 -0.1223 -0.0476  0.1678
  172loPI   C2A 2744  14.679  12.359   9.036 -0.0974  0.0320  0.0423
  172loPI   C3A 2745  14.657  12.459   8.650  0.2979  0.2363  0.0485
  172loPI   C4A 2746  14.626  12.369   8.198  0.2163 -0.1712  0.0435
  172loPI   C5A 2747  14.391  12.172   7.993 -0.0683 -0.0178 -0.3491
  172loPI   C6A 2748  14.176  12.053   7.637 -0.3853 -0.1644  0.0004
  172loPI   C1B 2749  15.010  11.972   9.325 -0.2256 -0.3633 -0.0083
  172loPI   C2B 2750  15.124  11.977   8.891 -0.0619  0.0966 -0.0189
  172loPI   C3B 2751  14.983  12.109   8.433 -0.2695  0.0431  0.3709
  172loPI   C4B 2752  15.038  12.197   7.957 -0.2020 -0.2815  0.1394
  173loPI    C1 2753  13.185  15.035  10.236  0.0145  0.1958  0.1646
  173loPI    C2 2754  12.815  15.055  10.087  0.0616 -0.4223 -0.0653
  173loPI    C3 2755  12.871  15.054  10.483 -0.1406  0.1298 -0.0254
  173loPI   PO4 2756  13.327  14.929   9.928 -0.0789  0.0046 -0.0490
  173loPI   GL1 2757  13.484  15.046   9.593 -0.0302  0.2252  0.0075
  173loPI   GL2 2758  13.623  14.870   9.444 -0.3150 -0.1691 -0.1882
  173loPI   C1A 2759  13.347  15.187   9.168  0.0942  0.2006 -0.3581
  173loPI   C2A 2760  13.259  14.914   8.811  0.1372 -0.0323 -0.0931
  173loPI   C3A 2761  12.976  14.787   8.528 -0.1629 -0.0252  0.2315
  173loPI   C4A 2762  12.576  14.624   8.103 -0.0877 -0.0669  0.0457
  173loPI   C5A 2763  12.202  14.711   7.847  0.0413 -0.2878 -0.1942
  173loPI   C6A 2764  11.826  14.547   7.643  0.2895  0.4165 -0.3177
  173loPI   C1B 2765  13.640  14.729   9.054  0.1939 -0.2985 -0.0406
  173loPI   C2B 2766  13.749  14.837   8.626 -0.0696  0.2949  0.1507
  173loPI   C3B 2767  13.906  14.996   8.250  0.3167  0.0407 -0.1445
  173loPI   C4B 2768  13.769  15.062   7.859 -0.2759  0.2347 -0.0183
  174loPI    C1 2769  16.878   8.779   9.937  0.0614 -0.0231  0.0499
  174loPI    C2 2770  16.808   8.396  10.027  0.0197 -0.0973 -0.2862
  174loPI    C3 2771  16.771   8.677  10.308  0.5446 -0.3940  0.0967
  174loPI   PO4 2772  16.849   8.839   9.622 -0.1400 -0.2807 -0.1103
  174loPI   GL1 2773  16.467   9.066   9.570  0.3111  0.1065 -0.1768
  174loPI   GL2 2774  16.131   9.088   9.598  0.0925 -0.1047 -0.0426
  174loPI   C1A 2775  16.317   9.089   9.145 -0.0689  0.0212 -0.1571
  174loPI   C2A 2776  16.382   9.137   8.802 -0.0947 -0.2432 -0.1114
  174loPI   C3A 2777  16.358   9.274   8.424 -0.2817 -0.1811 -0.0754
  174loPI   C4A 2778  16.391   9.436   8.009 -0.1821  0.4849 -0.0422
  174loPI   C5A 2779  16.489   9.495   7.623  0.1860 -0.2072 -0.1457
  174loPI   C6A 2780  16.462   9.452   7.231 -0.2375  0.0846  0.0091
  174loPI   C1B 2781  15.821   8.962   9.162  0.3817 -0.0110  0.2954
  174loPI   C2B 2782  15.825   8.905   8.786  0.0897  0.3535  0.1893
  174loPI   C3B 2783  16.032   8.890   8.469 -0.0616  0.3053 -0.1978
  174loPI   C4B 2784  16.205   8.952   8.033 -0.2117  0.1652 -0.1216
  175loPI    C1 2785  15.875  11.911  10.019  0.0074 -0.0838  0.2149
  175loPI    C2 2786  16.115  12.231  10.012  0.1301 -0.1733  0.2912
  175loPI    C3 2787  16.063  12.027  10.352  0.1631 -0.3173  0.2107
  175loPI   PO4 2788  15.662  12.098   9.856 -0.3230 -0.0529  0.1622
  175loPI   GL1 2789  15.241  12.368   9.720 -0.0989  0.0174 -0.0763
  175loPI   GL2 2790  15.095  12.567   9.676  0.1009  0.0196 -0.3128
  175loPI   C1A 2791  15.330  12.397   9.344 -0.1720 -0.1447  0.1271
  175loPI   C2A 2792  15.308  12.406   8.918  0.1846 -0.3204 -0.2875
  175loPI   C3A 2793  15.454  12.332   8.564 -0.1655 -0.1466 -0.0400
  175loPI   C4A 2794  15.538  12.441   8.247 -0.0597  0.2097  0.1028
  175loPI   C5A 2795  15.580  12.675   7.937  0.0970  0.0054  0.1271
  175loPI   C6A 2796  15.488  12.883   7.497  0.1363 -0.0147 -0.5536
  175loPI   C1B 2797  14.891  12.761   9.238 -0.1913 -0.0965 -0.1345
  175loPI   C2B 2798  15.029  12.771   8.794 -0.0145  0.0785  0.0451
  175loPI   C3B 2799  15.041  12.596   8.333 -0.0544  0.3950 -0.1193
  175loPI   C4B 2800  15.053  12.815   7.896 -0.1127 -0.4536  0.3203
  176loPI    C1 2801   2.069  15.153   9.831  0.1822 -0.2705  0.1195
  176loPI    C2 2802   2.152  15.410  10.126 -0.0474 -0.1699  0.0986
  176loPI    C3 2803   1.973  15.062  10.208 -0.1108 -0.1422  0.0789
  176loPI   PO4 2804   1.968  15.164   9.721  0.0025  0.1760  0.0506
  176loPI   GL1 2805   2.052  15.213   9.284  0.1262 -0.1843 -0.1129
  176loPI   GL2 2806   2.181  15.439   9.159 -0.1886  0.1872  0.0826
  176loPI   C1A 2807   2.151  14.887   9.056  0.3140 -0.3037 -0.0505
  176loPI   C2A 2808   2.126  14.829   8.559 -0.1446  0.3179  0.0015
  176loPI   C3A 2809   1.985  15.043   8.254  0.2035 -0.2876  0.0024
  176loPI   C4A 2810   2.257  14.976   7.991  0.0886 -0.0450  0.1758
  176loPI   C5A 2811   2.269  15.085   7.575 -0.0791  0.0802  0.0373
  176loPI   C6A 2812   1.879  15.160   7.486 -0.1287 -0.0218 -0.2204
  176loPI   C1B 2813   2.004  15.295   8.748 -0.0427  0.0006  0.0730
  176loPI   C2B 2814   1.777  15.492   8.503 -0.1719 -0.2530  0.0822
  176loPI   C3B 2815   1.792  15.458   8.084 -0.0953 -0.5775 -0.0929
  176loPI   C4B 2816   1.540  15.478   7.756 -0.1451  0.1005  0.0276
  177loPI    C1 2817   3.249   7.383   9.608  0.0849 -0.1722 -0.1345
  177loPI    C2 2818   3.031   7.047   9.600 -0.2951  0.0407  0.4948
  177loPI    C3 2819   3.334   7.083   9.859 -0.0195  0.0525  0.1770
  177loPI   PO4 2820   3.112   7.522   9.557 -0.0099 -0.0513  0.3239
  177loPI   GL1 2821   3.173   7.681   9.121 -0.0517 -0.1370  0.1021
  177loPI   GL2 2822   2.929   7.737   9.049 -0.0841 -0.0580 -0.2237
  177loPI   C1A 2823   3.196   7.581   8.660  0.0139  0.0940  0.3132
  177loPI   C2A 2824   3.500   7.592   8.379 -0.3513 -0.3239 -0.2415
  177loPI   C3A 2825   3.672   7.520   8.079  0.2105 -0.3042  0.2032
  177loPI   C4A 2826   3.650   7.509   7.629 -0.0328  0.4345 -0.2377
  177loPI   C5A 2827   3.922   7.268   7.395  0.1109  0.0412  0.0572
  177loPI   C6A 2828   3.985   6.872   7.291  0.1090 -0.1835 -0.2616
  177loPI   C1B 2829   2.992   7.983   8.692 -0.2827 -0.1329 -0.1084
  177loPI   C2B 2830   3.195   7.937   8.275  0.6178  0.1728 -0.2890
  177loPI   C3B 2831   3.243   7.645   7.881  0.3444 -0.0789  0.1031
  177loPI   C4B 2832   3.129   7.510   7.532  0.0858 -0.2326 -0.1442
  178loPI    C1 2833  12.209   3.582   9.802  0.0880  0.0066  0.0696
  178loPI    C2 2834  12.146   3.977   9.808 -0.0122 -0.0089  0.0501
  178loPI    C3 2835  11.873   3.729   9.962 -0.1124 -0.0909 -0.2538
  178loPI   PO4 2836  12.341   3.556   9.581  0.2612 -0.4210  0.1023
  178loPI   GL1 2837  12.210   3.459   9.230 -0.0483  0.0391  0.1797
  178loPI   GL2 2838  12.063   3.298   9.129 -0.2605 -0.2139  0.0256
  178loPI   C1A 2839  11.874   3.747   8.960  0.0299 -0.1844 -0.1346
  178loPI   C2A 2840  11.673   3.929   8.557 -0.1280 -0.3725  0.0586
  178loPI   C3A 2841  11.351   4.177   8.334 -0.2943  0.1222 -0.2248
  178loPI   C4A 2842  11.115   4.311   7.956 -0.0967  0.0518  0.0123
  178loPI   C5A 2843  11.302   4.506   7.572  0.2123 -0.1284 -0.0029
  178loPI   C6A 2844  11.448   4.804   7.198  0.2654  0.1786  0.2399
  178loPI   C1B 2845  12.210   3.332   8.766  0.1510 -0.0385  0.1562
  178loPI   C2B 2846  12.260   3.331   8.283  0.0190  0.1430 -0.0738
  178loPI   C3B 2847  12.224   3.578   7.980 -0.0496 -0.2482  0.0426
  178loPI   C4B 2848  12.394   3.728   7.575 -0.1498 -0.0207  0.0333
  179loPI    C1 2849  19.048  12.877  10.357 -0.0323 -0.1127 -0.0189
  179loPI    C2 2850  19.046  12.477  10.348 -0.1394 -0.1234  0.3488
  179loPI    C3 2851  19.236  12.670  10.643 -0.0469  0.0990  0.1468
  179loPI   PO4 2852  19.074  12.926  10.048 -0.1873  0.3256  0.1206
  179loPI   GL1 2853  19.395  12.919   9.814 -0.1570  0.2230  0.1108
  179loPI   GL2 2854  19.133  13.188   9.644  0.0644  0.0906 -0.1197
  179loPI   C1A 2855  19.589  12.847   9.242 -0.0639 -0.1310  0.4477
  179loPI   C2A 2856  19.798  12.890   8.810  0.4741 -0.2079  0.2188
  179loPI   C3A 2857  19.874  12.884   8.513  0.4169  0.0575  0.0994
  179loPI   C4A 2858  19.813  12.694   8.093 -0.0142  0.0556  0.0984
  179loPI   C5A 2859  19.744  12.431   7.625  0.3574 -0.0974  0.0580
  179loPI   C6A 2860  19.633  12.228   7.214 -0.3520  0.2045 -0.0715
  179loPI   C1B 2861  19.275  13.265   9.254 -0.2873  0.1204  0.2156
  179loPI   C2B 2862  19.198  13.589   8.847  0.2487  0.2496 -0.1403
  179loPI   C3B 2863  19.118  13.604   8.444  0.2317  0.2870  0.2852
  179loPI   C4B 2864  19.339  13.592   8.096 -0.1262  0.0073 -0.0845
  180loPI    C1 2865   1.975   4.499   9.913 -0.0481  0.2838  0.0459
  180loPI    C2 2866   1.742   4.510  10.238  0.0096  0.2388  0.0892
  180loPI    C3 2867   2.115   4.653  10.255  0.0955  0.0158  0.1111
  180loPI   PO4 2868   1.786   4.620   9.757  0.3543 -0.3103 -0.2139
  180loPI   GL1 2869   1.742   4.704   9.382 -0.0739  0.0178  0.2957
  180loPI   GL2 2870   2.203   4.630   9.381  0.0650  0.1778 -0.1647
  180loPI   C1A 2871   1.913   4.736   8.983  0.3108  0.3352 -0.0233
  180loPI   C2A 2872   1.659   4.749   8.820 -0.1867  0.1030 -0.2483
  180loPI   C3A 2873   1.521   4.981   8.480  0.2264  0.0026 -0.1242
  180loPI   C4A 2874   1.488   5.186   8.179  0.0868  0.2891 -0.0279
  180loPI   C5A 2875   1.645   5.199   7.784  0.0130 -0.1483  0.1069
  180loPI   C6A 2876   1.628   4.786   7.490 -0.4422  0.0261 -0.2766
  180loPI   C1B 2877   2.344   4.419   9.007 -0.0406  0.1409  0.0052
  180loPI   C2B 2878   2.587   4.451   8.580  0.1823 -0.2883 -0.1132
  180loPI   C3B 2879   2.419   4.722   8.221 -0.2318 -0.2822  0.0370
  180loPI   C4B 2880   2.649   4.934   7.951  0.1907  0.1057 -0.1941
  181loPI    C1 2881   5.559   9.644   9.942  0.0594 -0.2123  0.1762
  181loPI    C2 2882   5.219   9.564  10.137 -0.0063  0.0024  0.1528
  181loPI    C3 2883   5.524   9.738  10.330  0.1148 -0.2458  0.1894
  181loPI   PO4 2884   5.552   9.824   9.731  0.0784 -0.3615  0.0610
  181loPI   GL1 2885   5.786   9.912   9.484 -0.0322  0.2694  0.0804
  181loPI   GL2 2886   5.828   9.665   9.189  0.2801 -0.0785 -0.0242
  181loPI   C1A 2887   5.600  10.076   9.098  0.0778 -0.2562  0.0173
  181loPI   C2A 2888   5.195  10.108   8.905 -0.3031 -0.0228 -0.0858
  181loPI   C3A 2889   5.238  10.186   8.466  0.1073  0.2409 -0.0822
  181loPI   C4A 2890   5.374  10.056   8.134 -0.0838  0.0982  0.0627
  181loPI   C5A 2891   5.294   9.773   7.744  0.0544 -0.1195 -0.2721
  181loPI   C6A 2892   5.288   9.483   7.396 -0.0649  0.2038  0.1543
  181loPI   C1B 2893   5.768   9.693   8.705 -0.1483  0.0556  0.0335
  181loPI   C2B 2894   5.704   9.687   8.317 -0.2549 -0.0358 -0.0219
  181loPI   C3B 2895   5.732   9.606   7.878 -0.1670  0.0540  0.0621
  181loPI   C4B 2896   5.835   9.676   7.445  0.1231  0.0097 -0.0412
  182loPI    C1 2897  13.958   7.597   9.871 -0.0838 -0.0178 -0.0234
  182loPI    C2 2898  14.251   7.619  10.143 -0.1152  0.2745 -0.0098
  182loPI    C3 2899  14.056   7.275  10.086 -0.1376  0.2209  0.3694
  182loPI   PO4 2900  13.794   7.828   9.800 -0.1753 -0.1280 -0.0563
  182loPI   GL1 2901  13.597   7.945   9.456  0.0602 -0.1048 -0.1354
  182loPI   GL2 2902  13.337   8.101   9.376  0.2596  0.2640 -0.0222
  182loPI   C1A 2903  13.832   7.801   9.135 -0.1239 -0.0042  0.3195
  182loPI   C2A 2904  13.825   7.593   8.825  0.1056 -0.0963 -0.0938
  182loPI   C3A 2905  13.972   7.306   8.450 -0.0426 -0.3917  0.0761
  182loPI   C4A 2906  13.798   7.255   8.042  0.0418 -0.2974  0.1761
  182loPI   C5A 2907  13.648   7.578   7.714 -0.2716 -0.1242 -0.0801
  182loPI   C6A 2908  13.671   7.999   7.623  0.0499  0.0199 -0.2157
  182loPI   C1B 2909  13.369   7.844   8.945  0.0962 -0.2134 -0.0527
  182loPI   C2B 2910  13.427   7.767   8.503  0.0480 -0.1085  0.0924
  182loPI   C3B 2911  13.316   7.752   8.077 -0.0712  0.3675 -0.3411
  182loPI   C4B 2912  13.196   7.963   7.671  0.0667 -0.1659  0.0749
  183loPI    C1 2913   8.231   3.010   9.111 -0.1111  0.0211 -0.1537
  183loPI    C2 2914   8.037   2.839   9.416  0.3401  0.1341  0.2084
  183loPI    C3 2915   7.966   3.222   9.324 -0.0606  0.0003 -0.0697
  183loPI   PO4 2916   8.473   2.926   9.123 -0.4865 -0.5534 -0.2776
  183loPI   GL1 2917   8.486   2.875   8.704 -0.1873  0.1042  0.0628
  183loPI   GL2 2918   8.260   2.787   8.601  0.0303  0.5274  0.1694
  183loPI   C1A 2919   8.780   2.808   8.444 -0.0432 -0.1667 -0.1657
  183loPI   C2A 2920   8.894   2.606   8.117  0.0398  0.0424 -0.1779
  183loPI   C3A 2921   8.903   2.653   7.738 -0.0004  0.5068  0.0813
  183loPI   C4A 2922   9.146   2.606   7.445  0.0752  0.0678 -0.1121
  183loPI   C5A 2923   9.570   2.734   7.265 -0.1756  0.0228  0.0495
  183loPI   C6A 2924   9.829   2.546   6.964 -0.1004  0.2255  0.0975
  183loPI   C1B 2925   8.385   2.659   8.234 -0.3306 -0.3963  0.1363
  183loPI   C2B 2926   8.468   2.975   7.884  0.2420 -0.1464  0.0189
  183loPI   C3B 2927   8.360   3.074   7.492 -0.1212 -0.0715  0.2134
  183loPI   C4B 2928   8.657   3.188   7.112  0.2480 -0.3112 -0.5784
  184loPI    C1 2929  14.906  16.770  10.723  0.2766 -0.0287 -0.0917
  184loPI    C2 2930  14.546  16.785  10.897  0.1374 -0.0955 -0.3668
  184loPI    C3 2931  14.876  16.760  11.122 -0.0144  0.1757 -0.1049
  184loPI   PO4 2932  14.820  16.634  10.451 -0.0156 -0.0406  0.1015
  184loPI   GL1 2933  14.543  16.532   9.988  0.0785 -0.1821 -0.0541
  184loPI   GL2 2934  14.732  16.339   9.881  0.1816 -0.0626 -0.2171
  184loPI   C1A 2935  14.371  16.519   9.544  0.0844  0.1423  0.3022
  184loPI   C2A 2936  14.514  16.523   9.123 -0.0468 -0.0503  0.0192
  184loPI   C3A 2937  14.561  16.486   8.638 -0.0975  0.3988 -0.1729
  184loPI   C4A 2938  14.680  16.364   8.143  0.0937 -0.0729  0.0610
  184loPI   C5A 2939  14.725  16.147   7.685 -0.0651  0.0043 -0.0239
  184loPI   C6A 2940  14.627  16.185   7.327 -0.1751 -0.2118  0.0839
  184loPI   C1B 2941  14.899  16.666   9.641  0.2805 -0.3854 -0.0761
  184loPI   C2B 2942  15.173  16.725   9.248  0.2016 -0.2479  0.0284
  184loPI   C3B 2943  15.150  16.525   8.833  0.0168 -0.1407 -0.0512
  184loPI   C4B 2944  15.053  16.540   8.444  0.0043 -0.1692 -0.0428
  185loPI    C1 2945   0.795   0.245   9.825  0.3421  0.3430 -0.0125
  185loPI    C2 2946   0.534   0.330  10.116  0.0938 -0.0168 -0.1241
  185loPI    C3 2947   0.927   0.346  10.189  0.0389  0.2248  0.1336
  185loPI   PO4 2948   0.570   0.197   9.642 -0.1979  0.1772  0.2853
  185loPI   GL1 2949   0.684   0.055   9.254 -0.1486  0.2326  0.0853
  185loPI   GL2 2950   0.995  -0.040   9.402  0.1156 -0.1321  0.4527
  185loPI   C1A 2951   0.631  -0.041   8.797  0.1277 -0.0998 -0.1828
  185loPI   C2A 2952   0.903   0.025   8.353 -0.2433  0.1606  0.3108
  185loPI   C3A 2953   1.002   0.176   7.998  0.1963 -0.1343 -0.0541
  185loPI   C4A 2954   1.347   0.359   7.698 -0.3243  0.2599  0.3363
  185loPI   C5A 2955   1.599   0.528   7.280 -0.0349  0.0303  0.1636
  185loPI   C6A 2956   1.753   0.171   7.050 -0.3452  0.0726  0.0678
  185loPI   C1B 2957   1.029  -0.346   9.033 -0.0488 -0.0263  0.0086
  185loPI   C2B 2958   1.028  -0.452   8.611 -0.3910  0.1087  0.2129
  185loPI   C3B 2959   0.923  -0.503   8.212 -0.2805  0.2725  0.1391
  185loPI   C4B 2960   0.975  -0.445   7.794 -0.0648  0.0844 -0.1988
  186loPI    C1 2961  17.337   7.120   9.766  0.0516  0.2682 -0.0363
  186loPI    C2 2962  16.978   7.210   9.918 -0.0189 -0.2492  0.1228
  186loPI    C3 2963  17.305   7.237  10.147 -0.0197 -0.2440  0.1234
  186loPI   PO4 2964  17.351   7.045   9.516  0.3919  0.1014  0.0359
  186loPI   GL1 2965  17.415   7.175   9.217  0.1864 -0.2149 -0.1458
  186loPI   GL2 2966  17.434   7.468   9.135  0.1250 -0.2767  0.0917
  186loPI   C1A 2967  17.491   7.013   8.749  0.2283 -0.1939 -0.0878
  186loPI   C2A 2968  17.435   6.802   8.466 -0.4019  0.1485 -0.0396
  186loPI   C3A 2969  17.469   6.742   8.101 -0.2307 -0.3915 -0.3208
  186loPI   C4A 2970  17.474   6.398   7.736  0.0570  0.4578 -0.1443
  186loPI   C5A 2971  17.538   6.286   7.341  0.1721  0.1033 -0.0040
  186loPI   C6A 2972  17.526   6.348   6.939 -0.4805  0.3384  0.0225
  186loPI   C1B 2973  17.187   7.400   8.754  0.1318  0.4532  0.1782
  186loPI   C2B 2974  17.120   7.445   8.324  0.0712 -0.2341  0.3034
  186loPI   C3B 2975  16.846   7.251   7.998 -0.0607 -0.1726 -0.1964
  186loPI   C4B 2976  16.434   7.106   7.710 -0.3715 -0.0505 -0.1343
  187loPI    C1 2977  13.986  10.951  10.111  0.0907 -0.0864 -0.0654
  187loPI    C2 2978  14.314  10.735  10.187 -0.0112 -0.2165  0.0060
  187loPI    C3 2979  14.074  10.847  10.487  0.1203  0.1244 -0.0126
  187loPI   PO4 2980  13.899  10.835   9.944 -0.0396 -0.0089  0.2031
  187loPI   GL1 2981  14.234  10.644   9.670  0.3105  0.2595 -0.0188
  187loPI   GL2 2982  14.537  10.724   9.692  0.0921 -0.0902  0.0118
  187loPI   C1A 2983  14.460  10.797   9.209 -0.0851 -0.0463  0.0287
  187loPI   C2A 2984  14.453  11.158   9.095  0.0621 -0.1417 -0.1142
  187loPI   C3A 2985  14.445  11.285   8.723 -0.2451  0.1597 -0.3708
  187loPI   C4A 2986  14.442  11.266   8.287 -0.0322  0.0550  0.1173
  187loPI   C5A 2987  14.201  11.030   7.854  0.2992  0.0776  0.2652
  187loPI   C6A 2988  14.371  10.561   7.834  0.1351 -0.1660 -0.3192
  187loPI   C1B 2989  14.652  11.176   9.566  0.2635 -0.1743  0.2446
  187loPI   C2B 2990  15.048  11.221   9.396 -0.1510  0.1465 -0.0817
  187loPI   C3B 2991  15.137  11.353   9.038 -0.2476  0.1005 -0.2118
  187loPI   C4B 2992  15.300  11.145   8.691  0.2386  0.0184  0.3215
  188loPI    C1 2993   1.893   2.679  10.069 -0.0717  0.0810 -0.1082
  188loPI    C2 2994   2.186   2.407  10.092 -0.1328 -0.0111 -0.3832
  188loPI    C3 2995   2.005   2.535  10.425  0.0960 -0.0875 -0.2271
  188loPI   PO4 2996   1.864   2.763   9.790  0.3285 -0.0809  0.1798
  188loPI   GL1 2997   1.733   2.454   9.410 -0.2355 -0.0057  0.1373
  188loPI   GL2 2998   1.423   2.197   9.351  0.1618  0.1473  0.2526
  188loPI   C1A 2999   1.751   2.717   9.063 -0.1329  0.1931  0.0779
  188loPI   C2A 3000   1.597   2.858   8.635 -0.2406  0.0244  0.3699
  188loPI   C3A 3001   1.531   2.995   8.212  0.3337 -0.1921  0.0360
  188loPI   C4A 3002   1.406   3.184   7.800  0.0043  0.1662 -0.0323
  188loPI   C5A 3003   1.549   3.269   7.378 -0.2357  0.3098 -0.2807
  188loPI   C6A 3004   1.955   3.600   7.267  0.1571  0.3563  0.0902
  188loPI   C1B 3005   1.374   2.333   8.935  0.1893  0.0202 -0.1133
  188loPI   C2B 3006   1.278   2.467   8.437  0.2337 -0.2924 -0.2207
  188loPI   C3B 3007   1.129   2.645   8.056 -0.0795 -0.1916  0.0411
  188loPI   C4B 3008   1.360   2.694   7.679  0.0956 -0.1462  0.1449
  189loPI    C1 3009   7.654  15.051   9.730  0.0471  0.1198  0.0135
  189loPI    C2 3010   7.668  14.685   9.893 -0.1772  0.1003 -0.0077
  189loPI    C3 3011   7.942  14.959   9.992  0.1756 -0.1668 -0.2231
  189loPI   PO4 3012   7.372  15.009   9.586  0.1863 -0.0702 -0.2124
  189loPI   GL1 3013   7.338  14.788   9.227  0.0743 -0.4066  0.0483
  189loPI   GL2 3014   7.437  14.519   9.396 -0.0712 -0.1188  0.0333
  189loPI   C1A 3015   6.954  14.917   9.036 -0.0980  0.0466 -0.0447
  189loPI   C2A 3016   6.827  15.128   8.770 -0.4650 -0.0111 -0.4447
  189loPI   C3A 3017   6.758  15.131   8.352  0.0174  0.0011  0.0731
  189loPI   C4A 3018   6.770  15.207   7.837  0.2520  0.1214 -0.0255
  189loPI   C5A 3019   6.954  14.988   7.513  0.1421  0.1832  0.0021
  189loPI   C6A 3020   7.146  14.693   7.124  0.0132 -0.4538  0.1262
  189loPI   C1B 3021   7.399  14.362   8.935  0.0012 -0.0182  0.0549
  189loPI   C2B 3022   7.353  14.452   8.524  0.5492  0.2201  0.0735
  189loPI   C3B 3023   7.371  14.299   8.074 -0.1039  0.0962  0.0251
  189loPI   C4B 3024   7.328  14.504   7.645 -0.1339  0.4369 -0.0819
  190loPI    C1 3025  18.078   0.001  10.423 -0.1436 -0.2384  0.1854
  190loPI    C2 3026  18.012   0.395  10.419  0.0872 -0.1997 -0.0886
  190loPI    C3 3027  18.192   0.225  10.734 -0.0635 -0.0965  0.0548
  190loPI   PO4 3028  18.189  -0.005  10.136 -0.0670 -0.1809  0.1631
  190loPI   GL1 3029  18.083  -0.140   9.708  0.0842 -0.0687  0.0777
  190loPI   GL2 3030  18.439  -0.104   9.585  0.0201 -0.0094  0.1234
  190loPI   C1A 3031  18.005  -0.419   9.295  0.0149 -0.2059 -0.0638
  190loPI   C2A 3032  17.895  -0.203   8.998 -0.2128 -0.2743  0.1532
  190loPI   C3A 3033  18.061   0.151   8.841 -0.1629 -0.0265 -0.0564
  190loPI   C4A 3034  18.198   0.355   8.451 -0.0036 -0.1789 -0.1756
  190loPI   C5A 3035  18.139   0.732   8.092  0.2447 -0.2566 -0.1984
  190loPI   C6A 3036  18.085   0.757   7.654 -0.0541  0.2954 -0.0103
  190loPI   C1B 3037  18.419  -0.120   9.133  0.0090  0.4017  0.0686
  190loPI   C2B 3038  18.433  -0.191   8.704 -0.3796 -0.1266  0.0105
  190loPI   C3B 3039  18.411  -0.063   8.230  0.0423  0.2408  0.3097
  190loPI   C4B 3040  18.012   0.172   7.967  0.1783 -0.0770 -0.4164
  191loPI    C1 3041  17.939  17.627  10.369  0.0600 -0.1480 -0.0280
  191loPI    C2 3042  18.108  17.616  10.731 -0.1209 -0.1377  0.0573
  191loPI    C3 3043  17.958  17.959  10.591 -0.1111 -0.1567  0.0003
  191loPI   PO4 3044  18.058  17.461  10.222 -0.1140  0.0743 -0.0308
  191loPI   GL1 3045  18.056  17.222   9.853  0.1804 -0.0560 -0.0896
  191loPI   GL2 3046  17.672  17.369   9.941 -0.1710 -0.0836  0.3447
  191loPI   C1A 3047  18.102  17.366   9.481 -0.1503 -0.0764 -0.0148
  191loPI   C2A 3048  18.016  17.123   9.063 -0.0403  0.4201  0.0479
  191loPI   C3A 3049  17.687  16.995   8.649 -0.0239  0.0500  0.0956
  191loPI   C4A 3050  17.316  16.900   8.423  0.1993 -0.0275  0.0379
  191loPI   C5A 3051  17.154  16.945   7.920  0.1318  0.1139  0.2350
  191loPI   C6A 3052  16.866  16.732   7.625  0.2025  0.0695 -0.0109
  191loPI   C1B 3053  17.599  17.548   9.624  0.1454 -0.1394 -0.0360
  191loPI   C2B 3054  17.574  17.743   9.231 -0.2014  0.0440  0.0820
  191loPI   C3B 3055  17.697  17.858   8.845  0.1123  0.0883  0.2656
  191loPI   C4B 3056  17.655  18.284   8.676 -0.0935 -0.1539 -0.0003
  192loPI    C1 3057  16.873  18.540  10.214  0.1035  0.1589  0.2367
  192loPI    C2 3058  16.954  18.317  10.536 -0.0182 -0.0910  0.0966
  192loPI    C3 3059  17.228  18.572  10.397  0.1161 -0.1388  0.2701
  192loPI   PO4 3060  16.865  18.312   9.983 -0.0484 -0.1728  0.0113
  192loPI   GL1 3061  17.067  18.024   9.600  0.4012 -0.3419 -0.2009
  192loPI   GL2 3062  17.144  18.440   9.630 -0.2044  0.2873  0.0507
  192loPI   C1A 3063  17.011  17.745   9.293  0.2379  0.1013 -0.2234
  192loPI   C2A 3064  16.789  17.715   8.941 -0.0803  0.0373 -0.1388
  192loPI   C3A 3065  16.661  17.658   8.553 -0.2263 -0.1609  0.0010
  192loPI   C4A 3066  16.539  17.421   8.271  0.3408  0.0197 -0.0552
  192loPI   C5A 3067  16.783  17.030   8.288 -0.2900  0.0387  0.0137
  192loPI   C6A 3068  16.908  16.551   8.158  0.0453 -0.1665  0.0030
  192loPI   C1B 3069  17.033  18.576   9.160 -0.1043 -0.1123 -0.0955
  192loPI   C2B 3070  17.207  18.474   8.750  0.3104  0.0709 -0.0031
  192loPI   C3B 3071  17.043  18.522   8.403  0.0993 -0.0519  0.1963
  192loPI   C4B 3072  16.657  18.480   8.172  0.1687 -0.1142  0.1657
  193loPI    C1 3073   4.215   1.979  10.094 -0.1318 -0.0663  0.0072
  193loPI    C2 3074   4.557   2.076   9.912 -0.1108 -0.0658  0.0469
  193loPI    C3 3075   4.453   2.259  10.252 -0.1608 -0.0508  0.0235
  193loPI   PO4 3076   4.164   1.799   9.869 -0.0133  0.1427  0.1898
  193loPI   GL1 3077   4.124   1.847   9.520  0.1212  0.0092  0.0905
  193loPI   GL2 3078   3.871   1.820   9.354 -0.3905  0.0474 -0.0448
  193loPI   C1A 3079   4.309   1.626   9.170 -0.1081  0.2628 -0.1094
  193loPI   C2A 3080   4.364   1.601   8.738  0.3212 -0.0083  0.2261
  193loPI   C3A 3081   4.725   1.738   8.420  0.3028  0.0662  0.3050
  193loPI   C4A 3082   4.998   1.658   8.097  0.1761 -0.0403  0.2258
  193loPI   C5A 3083   4.933   1.752   7.715  0.2214  0.1179 -0.0684
  193loPI   C6A 3084   5.027   1.846   7.291  0.3585  0.0411  0.1013
  193loPI   C1B 3085   3.873   1.656   8.921  0.0276  0.4468  0.1138
  193loPI   C2B 3086   3.811   1.609   8.467 -0.0054  0.1074  0.1130
  193loPI   C3B 3087   3.785   1.510   8.109 -0.0050 -0.1728 -0.0623
  193loPI   C4B 3088   3.680   1.695   7.720  0.2630  0.0624  0.1604
  194loPI    C1 3089  13.315  18.545   9.935 -0.0745  0.1653 -0.1516
  194loPI    C2 3090  13.073  18.747  10.182  0.0580  0.1625 -0.0180
  194loPI    C3 3091  13.125  18.353  10.230  0.1093  0.1678 -0.0296
  194loPI   PO4 3092  13.268  18.611   9.769 -0.2048  0.1886  0.2624
  194loPI   GL1 3093  13.559  18.733   9.412 -0.0757 -0.0923 -0.1815
  194loPI   GL2 3094  13.310  19.021   9.403 -0.3694  0.2214 -0.1085
  194loPI   C1A 3095  13.845  18.442   9.132 -0.0664 -0.2324  0.2297
  194loPI   C2A 3096  13.992  18.108   8.933 -0.3443 -0.3323  0.2041
  194loPI   C3A 3097  14.130  17.975   8.545  0.0404 -0.2501 -0.1312
  194loPI   C4A 3098  14.008  17.846   8.071 -0.2428 -0.2701 -0.1390
  194loPI   C5A 3099  14.287  18.126   7.764  0.3323  0.0999 -0.1125
  194loPI   C6A 3100  14.083  18.255   7.403  0.2869  0.0004  0.1738
  194loPI   C1B 3101  12.981  18.901   9.161 -0.0766  0.1377  0.1849
  194loPI   C2B 3102  12.993  18.685   8.746 -0.0465  0.2067  0.1197
  194loPI   C3B 3103  13.109  18.829   8.305 -0.0613 -0.1502 -0.1222
  194loPI   C4B 3104  13.082  18.920   7.855  0.2058 -0.2201  0.1703
  195loPI    C1 3105  10.320  15.248   9.538 -0.0630 -0.0199  0.1211
  195loPI    C2 3106  10.199  15.627   9.502 -0.0081 -0.0028  0.1179
  195loPI    C3 3107  10.130  15.427   9.841 -0.0438  0.0075  0.1167
  195loPI   PO4 3108  10.096  15.175   9.302 -0.2431 -0.1160 -0.0979
  195loPI   GL1 3109   9.955  15.433   9.114  0.1346  0.3055  0.1375
  195loPI   GL2 3110   9.715  15.756   9.211 -0.1368 -0.3064 -0.1124
  195loPI   C1A 3111  10.067  15.272   8.714  0.0841  0.1685  0.2950
  195loPI   C2A 3112  10.192  15.056   8.329 -0.1174 -0.1641 -0.0588
  195loPI   C3A 3113  10.507  14.806   8.171 -0.0025  0.2806  0.0526
  195loPI   C4A 3114  10.503  14.760   7.783 -0.0154  0.0121  0.1961
  195loPI   C5A 3115  10.559  14.987   7.507 -0.2834  0.1185  0.0373
  195loPI   C6A 3116  10.169  15.141   7.213 -0.0039  0.1101 -0.1434
  195loPI   C1B 3117   9.838  15.707   8.746  0.1807  0.2921  0.0760
  195loPI   C2B 3118   9.917  15.810   8.265 -0.0140 -0.3677 -0.0201
  195loPI   C3B 3119   9.868  16.072   7.858  0.3487 -0.0286  0.0409
  195loPI   C4B 3120   9.645  15.948   7.525 -0.0131 -0.0318 -0.2347
  196loPI    C1 3121   4.172  15.933  10.143 -0.0885 -0.1606  0.1916
  196loPI    C2 3122   4.350  16.255  10.301 -0.0538 -0.2010  0.2352
  196loPI    C3 3123   4.428  15.891  10.448  0.0348 -0.2465  0.0770
  196loPI   PO4 3124   4.210  15.991   9.807 -0.3338  0.0885  0.1375
  196loPI   GL1 3125   4.524  15.878   9.444 -0.1654 -0.3066 -0.2745
  196loPI   GL2 3126   4.734  16.115   9.447 -0.1984 -0.2173 -0.2568
  196loPI   C1A 3127   4.823  15.807   9.025  0.0260  0.1917  0.1927
  196loPI   C2A 3128   4.825  15.699   8.618 -0.1583  0.0999 -0.1541
  196loPI   C3A 3129   4.550  15.617   8.252 -0.2618  0.0278 -0.1266
  196loPI   C4A 3130   4.147  15.702   7.980 -0.0373  0.0061 -0.1121
  196loPI   C5A 3131   3.720  15.950   7.869  0.0202 -0.4717 -0.3004
  196loPI   C6A 3132   3.295  16.161   7.794 -0.2251 -0.2026  0.2411
  196loPI   C1B 3133   4.710  16.296   8.937 -0.1219  0.2283 -0.3463
  196loPI   C2B 3134   4.900  16.357   8.593 -0.1064 -0.0762  0.1835
  196loPI   C3B 3135   4.855  16.112   8.209 -0.2974  0.1780 -0.6274
  196loPI   C4B 3136   5.001  16.010   7.784 -0.0798 -0.1539  0.3159
  197loPI    C1 3137  18.972   8.996  10.043 -0.0979 -0.0787 -0.0920
  197loPI    C2 3138  19.307   8.959   9.828 -0.0317  0.2563 -0.0528
  197loPI    C3 3139  19.328   9.003  10.225 -0.1210  0.3054 -0.0532
  197loPI   PO4 3140  18.845   9.255   9.873  0.3027  0.0232  0.1462
  197loPI   GL1 3141  18.688   9.264   9.447 -0.0678 -0.1829  0.0554
  197loPI   GL2 3142  18.725   9.578   9.338  0.0899 -0.2047  0.2203
  197loPI   C1A 3143  18.490   9.197   9.089 -0.0921 -0.1840 -0.0437
  197loPI   C2A 3144  18.313   9.088   8.666  0.2071 -0.1505 -0.0509
  197loPI   C3A 3145  18.233   9.189   8.218 -0.0252 -0.2605 -0.0733
  197loPI   C4A 3146  18.301   9.079   7.768  0.1128  0.0903  0.0902
  197loPI   C5A 3147  18.257   9.073   7.313 -0.1426  0.2653  0.1862
  197loPI   C6A 3148  17.989   9.176   7.035 -0.3340  0.1820 -0.0233
  197loPI   C1B 3149  18.868   9.500   8.937  0.4511 -0.3828 -0.0256
  197loPI   C2B 3150  19.261   9.669   8.643 -0.1447 -0.2640  0.1068
  197loPI   C3B 3151  19.353  10.173   8.510  0.0636 -0.1410  0.4012
  197loPI   C4B 3152  19.580  10.614   8.477 -0.0568  0.0340 -0.3483
  198loPI    C1 3153   7.082   7.908   9.395  0.1113 -0.0734 -0.0476
  198loPI    C2 3154   7.424   7.987   9.588  0.0258 -0.3595  0.2295
  198loPI    C3 3155   7.124   7.805   9.780 -0.3083 -0.0557  0.0069
  198loPI   PO4 3156   7.055   8.182   9.279  0.3109  0.0723  0.0099
  198loPI   GL1 3157   6.864   8.114   8.810  0.1511  0.2769  0.0334
  198loPI   GL2 3158   6.679   8.361   8.688  0.0364  0.0271  0.1278
  198loPI   C1A 3159   6.780   7.803   8.456  0.0396  0.4093  0.0898
  198loPI   C2A 3160   6.758   7.821   7.949  0.1539  0.1563  0.1660
  198loPI   C3A 3161   6.747   7.859   7.542 -0.4978 -0.0697  0.0586
  198loPI   C4A 3162   6.720   8.010   7.212  0.1626 -0.0848 -0.1520
  198loPI   C5A 3163   6.919   7.989   6.789  0.1488 -0.2153  0.3582
  198loPI   C6A 3164   7.299   8.058   6.519  0.0630  0.3545 -0.3241
  198loPI   C1B 3165   6.454   8.224   8.236 -0.1296 -0.1141  0.0672
  198loPI   C2B 3166   6.383   8.238   7.803 -0.2295  0.0150 -0.2434
  198loPI   C3B 3167   6.456   8.422   7.443 -0.1623 -0.3458 -0.2758
  198loPI   C4B 3168   6.751   8.507   7.231  0.0598  0.0384  0.0414
  199loPI    C1 3169   1.577   7.102   9.791  0.0217 -0.2863 -0.1912
  199loPI    C2 3170   1.562   6.935  10.154 -0.0135  0.0215 -0.0479
  199loPI    C3 3171   1.267   7.176  10.032 -0.0842 -0.2104 -0.3486
  199loPI   PO4 3172   1.682   6.926   9.692 -0.1160  0.4790  0.0248
  199loPI   GL1 3173   1.624   6.804   9.292 -0.0932  0.1220 -0.1461
  199loPI   GL2 3174   1.294   6.941   9.315  0.0845 -0.0822 -0.1684
  199loPI   C1A 3175   1.711   6.755   8.858 -0.0599  0.0287  0.3853
  199loPI   C2A 3176   1.703   6.817   8.499 -0.0183  0.0027  0.2051
  199loPI   C3A 3177   1.742   6.896   8.083  0.0750 -0.0323 -0.1768
  199loPI   C4A 3178   1.618   6.650   7.727 -0.2349 -0.0278 -0.2148
  199loPI   C5A 3179   1.666   6.207   7.481  0.1164  0.2563  0.0473
  199loPI   C6A 3180   1.330   6.001   7.417 -0.0989  0.2003  0.0580
  199loPI   C1B 3181   1.220   6.895   8.854  0.1193 -0.1553 -0.4193
  199loPI   C2B 3182   1.191   6.848   8.433 -0.0813 -0.1259  0.0524
  199loPI   C3B 3183   1.128   6.637   8.105 -0.0514  0.0910  0.0185
  199loPI   C4B 3184   1.151   6.834   7.752 -0.1815  0.3778 -0.1412
  200loPI    C1 3185   4.881  14.120  10.143 -0.0781 -0.1339 -0.3023
  200loPI    C2 3186   4.527  14.037  10.309 -0.0782  0.1410 -0.1580
  200loPI    C3 3187   4.855  14.056  10.537 -0.0098  0.1213 -0.2541
  200loPI   PO4 3188   4.818  14.152   9.869  0.2841  0.0288 -0.1125
  200loPI   GL1 3189   4.551  14.286   9.423 -0.3130 -0.1492  0.1637
  200loPI   GL2 3190   4.604  14.526   9.625  0.3408 -0.0502 -0.0235
  200loPI   C1A 3191   4.504  14.344   9.019 -0.2760  0.1085 -0.0372
  200loPI   C2A 3192   4.492  14.419   8.544 -0.2373 -0.1556  0.3043
  200loPI   C3A 3193   4.340  14.360   8.139  0.0628  0.2492  0.2931
  200loPI   C4A 3194   4.263  14.291   7.680  0.2880  0.0705 -0.1699
  200loPI   C5A 3195   4.353  14.056   7.436  0.1516 -0.0001  0.2631
  200loPI   C6A 3196   4.502  14.101   6.987 -0.0064  0.0250  0.1695
  200loPI   C1B 3197   4.782  14.683   9.253 -0.3443  0.3186 -0.0139
  200loPI   C2B 3198   4.749  14.750   8.860  0.0321  0.0690 -0.4571
  200loPI   C3B 3199   4.309  14.863   8.835 -0.1149 -0.2139  0.0773
  200loPI   C4B 3200   3.981  15.052   8.837 -0.1936  0.3187  0.0567
  201loPI    C1 3201  14.010   2.439   9.619 -0.0178 -0.0765  0.2310
  201loPI    C2 3202  14.192   2.225   9.904  0.0920 -0.1277  0.1233
  201loPI    C3 3203  13.877   2.072   9.711  0.0588 -0.1195  0.1705
  201loPI   PO4 3204  14.206   2.584   9.525  0.1404  0.2111  0.1280
  201loPI   GL1 3205  14.242   2.682   9.098  0.1956  0.2062 -0.1392
  201loPI   GL2 3206  14.013   2.859   9.156  0.0519 -0.0484  0.3547
  201loPI   C1A 3207  14.418   2.830   8.672 -0.3131 -0.0577  0.1021
  201loPI   C2A 3208  14.369   3.076   8.284  0.1593 -0.0394  0.0730
  201loPI   C3A 3209  14.379   3.205   7.832 -0.1344  0.0715 -0.0575
  201loPI   C4A 3210  14.362   3.404   7.470  0.0112  0.1350 -0.1452
  201loPI   C5A 3211  14.199   3.801   7.386 -0.2431  0.1423  0.0377
  201loPI   C6A 3212  14.434   4.168   7.445 -0.5558  0.0408 -0.4428
  201loPI   C1B 3213  13.931   2.958   8.682 -0.1357 -0.0700  0.0778
  201loPI   C2B 3214  13.862   3.064   8.191 -0.0996  0.2296  0.1219
  201loPI   C3B 3215  13.918   3.468   8.030 -0.0683 -0.1584 -0.0314
  201loPI   C4B 3216  13.727   3.928   7.780 -0.3233 -0.1221 -0.2304
  202loPI    C1 3217   0.963   5.142  10.260  0.1488  0.1462 -0.1105
  202loPI    C2 3218   1.243   5.409  10.155  0.0895  0.2851  0.0791
  202loPI    C3 3219   1.334   5.112  10.408  0.1213  0.2015 -0.0297
  202loPI   PO4 3220   0.906   4.994  10.060 -0.1898 -0.3528  0.4696
  202loPI   GL1 3221   0.960   4.932   9.618 -0.1822  0.0731 -0.2735
  202loPI   GL2 3222   1.148   4.802   9.635 -0.2132 -0.2883  0.0069
  202loPI   C1A 3223   0.683   5.038   9.220 -0.1813 -0.1422 -0.2782
  202loPI   C2A 3224   0.448   5.117   8.844  0.0012  0.0190  0.0412
  202loPI   C3A 3225   0.443   5.053   8.423  0.3559 -0.1082  0.3551
  202loPI   C4A 3226   0.260   5.082   8.013  0.0978  0.2494  0.4597
  202loPI   C5A 3227   0.196   5.516   7.792  0.0670 -0.1297 -0.1941
  202loPI   C6A 3228  -0.088   5.786   7.863  0.0850 -0.1797 -0.2249
  202loPI   C1B 3229   1.256   4.903   9.233  0.4222 -0.0169 -0.0274
  202loPI   C2B 3230   1.072   4.726   8.861  0.2564 -0.0567  0.0285
  202loPI   C3B 3231   0.880   4.680   8.482 -0.2360 -0.2517 -0.1922
  202loPI   C4B 3232   0.892   4.470   8.035 -0.1717 -0.0749  0.0723
  203loPI    C1 3233  15.008  12.935  10.304  0.0732 -0.4700  0.0830
  203loPI    C2 3234  14.666  13.136  10.245  0.3515  0.0941  0.3187
  203loPI    C3 3235  14.666  12.799  10.461 -0.0989 -0.0827  0.0560
  203loPI   PO4 3236  15.073  12.951   9.993 -0.0540 -0.1999  0.0031
  203loPI   GL1 3237  15.317  13.057   9.667  0.1931 -0.0139 -0.2927
  203loPI   GL2 3238  15.451  13.381   9.546 -0.0531  0.0621  0.2077
  203loPI   C1A 3239  15.461  12.854   9.255  0.0454 -0.1619  0.0482
  203loPI   C2A 3240  15.494  12.929   8.830 -0.1613  0.1735  0.1084
  203loPI   C3A 3241  15.498  12.887   8.453  0.0093 -0.1592  0.2413
  203loPI   C4A 3242  15.489  13.232   8.178  0.1441 -0.4074 -0.0485
  203loPI   C5A 3243  15.801  13.195   7.807  0.3043 -0.0961  0.0457
  203loPI   C6A 3244  16.202  13.159   7.799  0.2118 -0.2113  0.0452
  203loPI   C1B 3245  15.438  13.411   9.086 -0.3337  0.1826  0.1156
  203loPI   C2B 3246  15.336  13.453   8.617 -0.1668 -0.3193  0.1022
  203loPI   C3B 3247  14.996  13.156   8.433 -0.1369  0.3294  0.2167
  203loPI   C4B 3248  14.827  13.217   7.957 -0.1936 -0.2246  0.0307
  204loPI    C1 3249   9.921   8.325   9.606  0.0734  0.1861 -0.0119
  204loPI    C2 3250   9.672   8.088   9.809  0.3086 -0.0391  0.0183
  204loPI    C3 3251  10.067   8.036   9.841  0.3522  0.0328 -0.3653
  204loPI   PO4 3252   9.850   8.291   9.290  0.3491  0.0567  0.3231
  204loPI   GL1 3253   9.666   8.473   8.859  0.0394  0.0997  0.1405
  204loPI   GL2 3254   9.353   8.409   8.808  0.3062 -0.1368 -0.1137
  204loPI   C1A 3255   9.694   8.552   8.460  0.0027 -0.2527 -0.1825
  204loPI   C2A 3256   9.478   8.867   8.052 -0.4677 -0.0856 -0.2635
  204loPI   C3A 3257   9.537   8.944   7.565 -0.0109 -0.2789  0.3073
  204loPI   C4A 3258   9.468   8.912   7.153 -0.1470 -0.1558 -0.3860
  204loPI   C5A 3259   9.174   9.201   6.942  0.2480 -0.1516 -0.2073
  204loPI   C6A 3260   8.778   9.081   6.952 -0.2750  0.6348 -0.3529
  204loPI   C1B 3261   9.238   8.346   8.335  0.0159  0.0935 -0.2177
  204loPI   C2B 3262   9.394   8.294   7.895  0.3210 -0.0310 -0.1780
  204loPI   C3B 3263   9.412   8.298   7.452  0.2198  0.0322 -0.4413
  204loPI   C4B 3264   9.189   8.482   7.128  0.1039 -0.4912 -0.1188
  205loPI    C1 3265  17.692  15.706  10.398 -0.0477 -0.0451  0.1107
  205loPI    C2 3266  17.673  15.329  10.532 -0.1099  0.0006  0.2321
  205loPI    C3 3267  17.349  15.501  10.370 -0.0494 -0.0369  0.0686
  205loPI   PO4 3268  17.948  15.702  10.230  0.1417  0.2536 -0.0870
  205loPI   GL1 3269  18.107  15.700   9.914 -0.1918 -0.1005  0.1404
  205loPI   GL2 3270  18.204  15.388   9.720 -0.0512  0.1369  0.1870
  205loPI   C1A 3271  17.894  15.749   9.528 -0.4707 -0.0670 -0.0634
  205loPI   C2A 3272  17.830  15.707   9.117 -0.1399  0.0740 -0.1167
  205loPI   C3A 3273  17.869  15.849   8.711 -0.0211  0.1859 -0.3682
  205loPI   C4A 3274  18.034  15.868   8.367 -0.3285  0.2575 -0.0347
  205loPI   C5A 3275  18.034  15.646   7.897  0.1418 -0.0905 -0.3352
  205loPI   C6A 3276  17.904  15.563   7.591 -0.3239 -0.1105  0.0638
  205loPI   C1B 3277  18.264  15.343   9.323 -0.0861 -0.2371  0.2558
  205loPI   C2B 3278  18.246  15.471   8.997  0.1559  0.3111 -0.3208
  205loPI   C3B 3279  18.270  15.384   8.713 -0.0431  0.2947  0.0732
  205loPI   C4B 3280  18.262  15.403   8.351  0.0635 -0.1708 -0.1087
  206loPI    C1 3281   4.635   3.531   9.364 -0.1143  0.0422 -0.1027
  206loPI    C2 3282   5.011   3.592   9.485 -0.1622  0.0929  0.0227
  206loPI    C3 3283   4.895   3.228   9.366 -0.0514  0.0961 -0.0972
  206loPI   PO4 3284   4.661   3.713   9.144 -0.0575  0.3403 -0.0822
  206loPI   GL1 3285   4.671   3.532   8.794 -0.0256  0.0713  0.0439
  206loPI   GL2 3286   4.338   3.637   8.793  0.1575  0.0211  0.3110
  206loPI   C1A 3287   4.711   3.689   8.382  0.0162  0.0209 -0.1456
  206loPI   C2A 3288   4.649   3.751   7.924 -0.0568 -0.1249  0.0995
  206loPI   C3A 3289   4.385   3.637   7.537  0.5130 -0.0619  0.2835
  206loPI   C4A 3290   4.007   3.612   7.219 -0.3127  0.0903  0.2850
  206loPI   C5A 3291   3.655   3.522   7.125  0.0027 -0.1555  0.0937
  206loPI   C6A 3292   3.144   3.475   7.122 -0.2230  0.0521  0.0680
  206loPI   C1B 3293   4.024   3.410   8.577  0.0018 -0.4568  0.2206
  206loPI   C2B 3294   3.841   3.438   8.277 -0.1178  0.0010  0.0932
  206loPI   C3B 3295   3.808   3.239   7.900  0.0153 -0.0433 -0.1977
  206loPI   C4B 3296   3.802   2.945   7.658 -0.1170  0.0703  0.0859
  207loPI    C1 3297   5.618   7.245   9.404  0.0836  0.1448  0.1430
  207loPI    C2 3298   5.823   7.301   9.743 -0.0786 -0.2474  0.3120
  207loPI    C3 3299   5.423   7.313   9.746 -0.0850 -0.3879  0.1626
  207loPI   PO4 3300   5.773   7.023   9.270 -0.1672 -0.1178 -0.0826
  207loPI   GL1 3301   5.742   6.730   8.857 -0.1016  0.0823  0.2057
  207loPI   GL2 3302   5.485   6.759   9.006  0.0077  0.1996  0.0140
  207loPI   C1A 3303   5.988   6.806   8.408  0.2066  0.2968  0.0174
  207loPI   C2A 3304   5.959   6.719   8.019  0.0727  0.0231 -0.3762
  207loPI   C3A 3305   5.717   6.737   7.718  0.1341 -0.2993  0.2860
  207loPI   C4A 3306   5.560   6.740   7.341 -0.1174 -0.1875  0.0465
  207loPI   C5A 3307   5.676   6.788   7.053 -0.0421  0.0975  0.1549
  207loPI   C6A 3308   5.715   6.943   6.757 -0.2129  0.0105  0.1458
  207loPI   C1B 3309   5.411   7.085   8.566  0.1877  0.2035 -0.2128
  207loPI   C2B 3310   5.350   7.001   8.070  0.2115 -0.0965 -0.1235
  207loPI   C3B 3311   5.238   6.873   7.764  0.0027  0.2202 -0.0834
  207loPI   C4B 3312   5.027   6.637   7.396 -0.1716  0.1540 -0.2460
  208loPI    C1 3313  18.270   1.519   9.808  0.2326  0.1996 -0.1764
  208loPI    C2 3314  18.117   1.294   9.515  0.0214  0.1788 -0.0518
  208loPI    C3 3315  17.953   1.287   9.880  0.2812  0.2059  0.0679
  208loPI   PO4 3316  18.320   1.721   9.626 -0.0118  0.3001  0.2402
  208loPI   GL1 3317  18.375   2.072   9.553  0.0392 -0.1521  0.4108
  208loPI   GL2 3318  18.024   2.175   9.481  0.0025 -0.1313  0.0338
  208loPI   C1A 3319  18.611   2.151   9.061  0.2783  0.2004  0.1655
  208loPI   C2A 3320  18.864   2.131   8.771  0.0728 -0.3497 -0.2605
  208loPI   C3A 3321  18.863   1.972   8.322  0.0168  0.0701 -0.1644
  208loPI   C4A 3322  18.982   1.822   7.928  0.2868  0.2548 -0.1447
  208loPI   C5A 3323  19.200   1.655   7.652  0.0410 -0.1937 -0.0614
  208loPI   C6A 3324  19.538   1.788   7.406  0.2447  0.2768  0.1607
  208loPI   C1B 3325  18.036   2.035   9.086  0.3088  0.2527  0.0817
  208loPI   C2B 3326  17.892   2.150   8.736 -0.2351  0.0483 -0.1798
  208loPI   C3B 3327  17.984   2.418   8.338 -0.2235  0.1031  0.0112
  208loPI   C4B 3328  17.845   2.556   7.958  0.0916 -0.0052  0.1738
  209loPI    C1 3329   2.364   5.716  10.309 -0.1043 -0.2374  0.0933
  209loPI    C2 3330   2.171   5.696  10.659  0.2672 -0.0352  0.3157
  209loPI    C3 3331   2.455   5.973  10.603  0.2460 -0.0977 -0.1308
  209loPI   PO4 3332   2.170   5.442  10.129 -0.1701  0.1984  0.1077
  209loPI   GL1 3333   1.985   5.269   9.630 -0.0328 -0.1663 -0.1801
  209loPI   GL2 3334   2.315   5.222   9.445 -0.1489 -0.3312  0.2206
  209loPI   C1A 3335   1.660   5.370   9.356 -0.1423 -0.0246  0.3953
  209loPI   C2A 3336   1.530   5.218   8.995 -0.1972 -0.1526 -0.2713
  209loPI   C3A 3337   1.361   5.413   8.578 -0.2640  0.0659  0.1179
  209loPI   C4A 3338   1.034   5.665   8.474  0.0511  0.1763  0.2164
  209loPI   C5A 3339   0.891   5.928   8.172  0.5726  0.1461  0.0434
  209loPI   C6A 3340   0.440   5.903   7.848 -0.3205  0.1055 -0.0193
  209loPI   C1B 3341   2.084   5.242   9.007 -0.0172  0.2444 -0.0630
  209loPI   C2B 3342   2.004   5.331   8.606 -0.0389  0.1552  0.0754
  209loPI   C3B 3343   1.924   5.471   8.147  0.1402 -0.1069 -0.2006
  209loPI   C4B 3344   2.231   5.232   7.868  0.1581  0.1542  0.0278
  210loPI    C1 3345  13.537  12.401   9.934 -0.1723  0.1625 -0.0375
  210loPI    C2 3346  13.427  12.128  10.205  0.0549 -0.1426 -0.2465
  210loPI    C3 3347  13.183  12.216   9.901 -0.0473 -0.0619 -0.1422
  210loPI   PO4 3348  13.791  12.304   9.865  0.0954  0.2948 -0.0147
  210loPI   GL1 3349  14.168  12.179   9.826 -0.0595  0.0366 -0.1516
  210loPI   GL2 3350  14.229  12.497   9.706  0.1595  0.2124  0.3276
  210loPI   C1A 3351  14.271  12.011   9.475  0.2458  0.0882 -0.1324
  210loPI   C2A 3352  14.351  11.999   9.125  0.0207 -0.0134  0.3856
  210loPI   C3A 3353  14.416  11.996   8.679 -0.0382 -0.0536 -0.1362
  210loPI   C4A 3354  14.533  11.872   8.415 -0.0670  0.1002  0.1235
  210loPI   C5A 3355  14.809  11.741   8.087 -0.2181  0.0981 -0.1347
  210loPI   C6A 3356  14.753  11.514   7.741  0.1029 -0.0089 -0.1875
  210loPI   C1B 3357  14.096  12.399   9.249 -0.2139 -0.1301 -0.2049
  210loPI   C2B 3358  14.162  12.486   8.826 -0.1243  0.2546  0.0277
  210loPI   C3B 3359  14.100  12.587   8.346  0.0069  0.0236  0.1022
  210loPI   C4B 3360  14.164  12.707   8.043  0.0163 -0.0024  0.2418
  211loPI    C1 3361   7.868   8.712   9.533 -0.2279  0.1462  0.0950
  211loPI    C2 3362   8.030   8.452   9.275 -0.1043  0.2842  0.0318
  211loPI    C3 3363   8.114   8.426   9.666 -0.1830  0.1593  0.0408
  211loPI   PO4 3364   7.634   8.789   9.311 -0.0512  0.2507  0.0165
  211loPI   GL1 3365   7.492   8.748   8.808 -0.2967  0.3728 -0.0179
  211loPI   GL2 3366   7.281   8.462   8.798 -0.1652 -0.1457 -0.1787
  211loPI   C1A 3367   7.424   8.663   8.412  0.0621  0.2139  0.0584
  211loPI   C2A 3368   7.321   8.716   8.025 -0.3006  0.2834 -0.3360
  211loPI   C3A 3369   7.305   8.722   7.665 -0.1032  0.0021 -0.0837
  211loPI   C4A 3370   7.190   8.698   7.275  0.1668  0.0951 -0.0709
  211loPI   C5A 3371   6.871   8.817   6.938  0.0444 -0.1389  0.0141
  211loPI   C6A 3372   6.574   8.877   6.707 -0.2412  0.2673  0.1499
  211loPI   C1B 3373   7.101   8.308   8.363  0.0820 -0.1702  0.0793
  211loPI   C2B 3374   7.231   8.107   8.047 -0.0015  0.1119 -0.0461
  211loPI   C3B 3375   7.391   7.865   7.637 -0.1302  0.0370  0.2170
  211loPI   C4B 3376   7.172   7.686   7.250  0.3111 -0.1252  0.1148
  212loPI    C1 3377   4.152   7.853   9.903  0.2120  0.0272  0.1253
  212loPI    C2 3378   4.370   7.839  10.238  0.0255  0.0992  0.2516
  212loPI    C3 3379   4.075   8.107  10.202  0.0735  0.1222  0.0106
  212loPI   PO4 3380   4.169   7.864   9.721 -0.0470  0.0885 -0.1020
  212loPI   GL1 3381   4.283   7.733   9.311 -0.0096  0.0383 -0.0933
  212loPI   GL2 3382   4.018   7.551   9.099 -0.2722  0.0142 -0.0254
  212loPI   C1A 3383   4.699   7.888   9.004 -0.0316  0.0700 -0.3927
  212loPI   C2A 3384   4.860   7.941   8.607  0.2695 -0.2516  0.0397
  212loPI   C3A 3385   4.969   7.926   8.175 -0.0368 -0.0717  0.0060
  212loPI   C4A 3386   5.108   7.810   7.702  0.1157 -0.4618 -0.2470
  212loPI   C5A 3387   5.351   7.771   7.366  0.1001 -0.0944 -0.2389
  212loPI   C6A 3388   5.778   7.723   7.324 -0.2539  0.1603  0.1689
  212loPI   C1B 3389   3.617   7.651   8.892  0.1560 -0.4500  0.0572
  212loPI   C2B 3390   3.528   7.963   8.684  0.0981  0.0363 -0.0076
  212loPI   C3B 3391   3.721   8.147   8.208 -0.1119  0.1979  0.1716
  212loPI   C4B 3392   3.536   8.017   7.852 -0.0136 -0.0473 -0.0517
  213loPI    C1 3393   6.767  19.198  10.094 -0.0319 -0.1406 -0.0476
  213loPI    C2 3394   7.025  19.071  10.372  0.0264 -0.1976 -0.1273
  213loPI    C3 3395   6.829  19.415  10.424  0.0453 -0.2027 -0.0208
  213loPI   PO4 3396   6.849  19.143   9.894  0.1257  0.1115  0.0766
  213loPI   GL1 3397   6.789  19.117   9.349  0.2088  0.0786 -0.1990
  213loPI   GL2 3398   6.477  19.149   9.163 -0.1563 -0.1823 -0.1759
  213loPI   C1A 3399   6.996  18.985   8.947 -0.1322  0.1785  0.2375
  213loPI   C2A 3400   7.077  19.145   8.507  0.0120  0.0864  0.1952
  213loPI   C3A 3401   7.000  19.117   8.186  0.3199  0.1667  0.3540
  213loPI   C4A 3402   7.101  19.258   7.742  0.0166 -0.0373  0.0674
  213loPI   C5A 3403   7.209  19.542   7.383  0.0288 -0.1739 -0.2328
  213loPI   C6A 3404   7.139  20.016   7.320 -0.1766 -0.1249  0.2187
  213loPI   C1B 3405   6.635  19.256   8.717  0.1106  0.0021  0.0044
  213loPI   C2B 3406   6.563  19.483   8.265 -0.2412  0.1681  0.0971
  213loPI   C3B 3407   6.356  19.599   7.742  0.0418  0.1776 -0.0210
  213loPI   C4B 3408   6.301  19.561   7.252  0.1661  0.0234 -0.1628
  214loPI    C1 3409  10.419  18.105   9.821 -0.0352  0.1303 -0.1957
  214loPI    C2 3410  10.330  18.483   9.723 -0.1436  0.2379  0.2930
  214loPI    C3 3411  10.626  18.408   9.981  0.1247 -0.0366 -0.0840
  214loPI   PO4 3412  10.344  18.059   9.482  0.1353 -0.1995  0.2309
  214loPI   GL1 3413  10.424  18.262   9.044 -0.0019  0.0045  0.2543
  214loPI   GL2 3414  10.315  18.480   9.221  0.3609 -0.4927 -0.2413
  214loPI   C1A 3415  10.263  18.510   8.710  0.2364  0.0468  0.2710
  214loPI   C2A 3416  10.093  18.612   8.231 -0.4223 -0.1100 -0.3559
  214loPI   C3A 3417   9.911  18.441   7.670 -0.0759 -0.0972  0.0044
  214loPI   C4A 3418   9.908  18.510   7.289 -0.3465  0.0180 -0.0014
  214loPI   C5A 3419   9.971  18.392   6.886  0.0773 -0.1262 -0.2380
  214loPI   C6A 3420   9.799  18.578   6.494 -0.0189 -0.2502 -0.3688
  214loPI   C1B 3421  10.606  18.748   8.975 -0.1414 -0.0407 -0.0212
  214loPI   C2B 3422  10.638  18.860   8.476 -0.1967  0.1122 -0.2902
  214loPI   C3B 3423  10.559  18.884   8.141  0.1129  0.0008 -0.0158
  214loPI   C4B 3424  10.395  19.156   7.879 -0.2554 -0.2013 -0.2217
  215loPI    C1 3425  18.809  17.030  10.641 -0.0379 -0.0273  0.0537
  215loPI    C2 3426  18.630  16.695  10.766 -0.0137 -0.1050 -0.1173
  215loPI    C3 3427  19.012  16.766  10.863  0.0513 -0.2372 -0.2707
  215loPI   PO4 3428  18.897  17.125  10.331  0.1406 -0.3353 -0.4142
  215loPI   GL1 3429  19.007  17.309  10.003  0.0883  0.2719 -0.0677
  215loPI   GL2 3430  19.294  17.321   9.903  0.1774  0.2337  0.0086
  215loPI   C1A 3431  18.610  17.427   9.628 -0.1532  0.1990  0.1091
  215loPI   C2A 3432  18.433  17.336   9.163 -0.1318  0.0637  0.1802
  215loPI   C3A 3433  18.500  17.071   8.851  0.1690  0.0550  0.2565
  215loPI   C4A 3434  18.608  16.972   8.358 -0.0044 -0.1325 -0.0161
  215loPI   C5A 3435  18.540  16.613   7.978 -0.3041  0.0823  0.0976
  215loPI   C6A 3436  18.401  16.567   7.570  0.2336 -0.0804 -0.2768
  215loPI   C1B 3437  19.143  17.110   9.515  0.2624  0.1840 -0.0396
  215loPI   C2B 3438  18.896  16.994   9.099 -0.0321  0.0155 -0.0013
  215loPI   C3B 3439  19.027  17.111   8.748  0.4465 -0.2008 -0.3284
  215loPI   C4B 3440  19.005  17.315   8.408 -0.3778 -0.2918  0.0927
  216loPI    C1 3441  13.051   4.315   9.646 -0.2463  0.0418 -0.1689
  216loPI    C2 3442  13.004   4.606   9.916  0.0862 -0.0007 -0.0612
  216loPI    C3 3443  12.780   4.275   9.938 -0.1396  0.1498 -0.0541
  216loPI   PO4 3444  13.020   4.399   9.450 -0.0867 -0.1843  0.1873
  216loPI   GL1 3445  13.175   4.162   9.038  0.0485 -0.5126  0.1675
  216loPI   GL2 3446  13.148   4.457   8.983  0.3724 -0.1603 -0.1260
  216loPI   C1A 3447  12.912   4.169   8.702 -0.0871 -0.0179  0.1776
  216loPI   C2A 3448  12.921   4.103   8.226  0.2092 -0.0518  0.0508
  216loPI   C3A 3449  13.056   4.171   7.870 -0.3657  0.1666 -0.3608
  216loPI   C4A 3450  13.208   4.291   7.502  0.2036 -0.0041 -0.0889
  216loPI   C5A 3451  13.630   4.427   7.487  0.3265  0.3634  0.2622
  216loPI   C6A 3452  13.990   4.484   7.656  0.0323 -0.0502 -0.3060
  216loPI   C1B 3453  13.292   4.462   8.475  0.0619  0.0954  0.0807
  216loPI   C2B 3454  13.151   4.635   8.077  0.4067 -0.1318  0.0256
  216loPI   C3B 3455  13.012   4.753   7.641 -0.0231 -0.0174 -0.1777
  216loPI   C4B 3456  12.691   5.035   7.405  0.1187  0.1362  0.4752
  217loPI    C1 3457  17.700  10.135   9.780  0.2507  0.0413 -0.0095
  217loPI    C2 3458  17.749   9.923  10.115  0.0140 -0.0942 -0.0579
  217loPI    C3 3459  18.052   9.961   9.857  0.0791 -0.3193 -0.0174
  217loPI   PO4 3460  17.397  10.026   9.675 -0.0167  0.1927  0.2917
  217loPI   GL1 3461  17.565  10.063   9.245 -0.0468 -0.0300  0.0029
  217loPI   GL2 3462  17.315  10.085   9.150 -0.5499  0.0146  0.4270
  217loPI   C1A 3463  17.808  10.094   8.856 -0.0435  0.0515 -0.1448
  217loPI   C2A 3464  17.829   9.780   8.549 -0.1359  0.0653 -0.2647
  217loPI   C3A 3465  18.107   9.678   8.135 -0.1718  0.1248  0.1013
  217loPI   C4A 3466  18.495   9.531   7.954  0.1502 -0.2969 -0.1535
  217loPI   C5A 3467  18.807   9.420   7.784 -0.4828  0.2759  0.1940
  217loPI   C6A 3468  19.158   9.170   7.682 -0.0074 -0.1120 -0.0515
  217loPI   C1B 3469  17.355   9.924   8.755  0.0485 -0.1629 -0.1619
  217loPI   C2B 3470  17.349   9.689   8.435 -0.2004 -0.1060  0.1642
  217loPI   C3B 3471  17.560   9.784   8.084 -0.3266 -0.2361  0.4019
  217loPI   C4B 3472  17.285   9.918   7.672 -0.1038 -0.1203  0.2330
  218loPI    C1 3473  13.400   1.918   9.862  0.2226  0.1611  0.1530
  218loPI    C2 3474  13.460   2.301   9.961 -0.0634  0.2472  0.0037
  218loPI    C3 3475  13.331   2.041  10.237  0.1320  0.2567  0.1055
  218loPI   PO4 3476  13.410   1.950   9.557  0.3521 -0.0609 -0.0664
  218loPI   GL1 3477  13.652   1.952   9.209  0.0438  0.2547  0.1475
  218loPI   GL2 3478  13.930   1.655   9.187 -0.0092 -0.2851 -0.0012
  218loPI   C1A 3479  13.524   2.034   8.756 -0.2370  0.0122 -0.1658
  218loPI   C2A 3480  13.649   2.170   8.305 -0.2416 -0.0211  0.0100
  218loPI   C3A 3481  13.650   2.193   7.994 -0.0339 -0.0070  0.3404
  218loPI   C4A 3482  13.898   2.274   7.633  0.1076 -0.0781  0.0363
  218loPI   C5A 3483  14.083   2.439   7.266  0.2958  0.0461  0.2011
  218loPI   C6A 3484  14.071   2.600   6.900 -0.1551  0.0416 -0.3740
  218loPI   C1B 3485  13.974   1.569   8.783  0.5322 -0.1464 -0.3255
  218loPI   C2B 3486  13.750   1.679   8.449  0.2134 -0.6161  0.0233
  218loPI   C3B 3487  13.474   1.695   8.116  0.2102 -0.4063 -0.0088
  218loPI   C4B 3488  13.555   1.834   7.679  0.1787  0.4007 -0.5251
  219loPI    C1 3489  14.286  17.141  10.238 -0.0189 -0.1708 -0.0964
  219loPI    C2 3490  14.320  16.777  10.400  0.0653 -0.1181  0.0061
  219loPI    C3 3491  14.563  17.071  10.518  0.0398 -0.0447 -0.1223
  219loPI   PO4 3492  13.991  17.131  10.132 -0.0890 -0.0176  0.4063
  219loPI   GL1 3493  13.924  17.280   9.772  0.0682  0.1315  0.2245
  219loPI   GL2 3494  13.956  17.581   9.582 -0.1489 -0.1512 -0.3687
  219loPI   C1A 3495  13.866  16.830   9.489 -0.0447 -0.0950  0.2846
  219loPI   C2A 3496  13.967  16.524   9.030  0.0520  0.0282 -0.3247
  219loPI   C3A 3497  13.747  16.466   8.601  0.1448 -0.0700  0.0059
  219loPI   C4A 3498  13.750  16.443   8.167 -0.4036  0.2091  0.0494
  219loPI   C5A 3499  13.685  16.290   7.760  0.1345 -0.0199  0.0772
  219loPI   C6A 3500  13.434  16.291   7.439  0.4378  0.2595 -0.2523
  219loPI   C1B 3501  14.111  17.287   9.339 -0.0561 -0.1111 -0.0251
  219loPI   C2B 3502  14.092  17.458   8.843 -0.2054  0.2590 -0.0428
  219loPI   C3B 3503  14.132  17.398   8.403 -0.1333 -0.1907  0.0466
  219loPI   C4B 3504  14.126  17.281   8.116  0.1017 -0.1401 -0.0955
  220loPI    C1 3505   4.842  13.156   9.997 -0.0894  0.0360  0.0209
  220loPI    C2 3506   5.217  13.111   9.864 -0.0851  0.1807 -0.0178
  220loPI    C3 3507   5.147  13.145  10.256 -0.0570  0.1609 -0.0110
  220loPI   PO4 3508   4.726  13.275   9.790 -0.2122  0.0224 -0.1585
  220loPI   GL1 3509   4.532  13.399   9.399  0.3742 -0.1051 -0.1870
  220loPI   GL2 3510   4.301  13.651   9.263  0.1318  0.2210  0.0297
  220loPI   C1A 3511   4.635  12.976   9.103  0.0477  0.1564  0.0973
  220loPI   C2A 3512   4.407  12.816   8.859 -0.0120 -0.2547 -0.0560
  220loPI   C3A 3513   4.382  12.764   8.427 -0.1639  0.0358  0.4992
  220loPI   C4A 3514   4.668  12.830   8.115  0.3266 -0.2011 -0.0262
  220loPI   C5A 3515   5.003  13.034   8.169  0.1183 -0.3363 -0.2504
  220loPI   C6A 3516   5.317  13.307   7.952  0.1543 -0.4279  0.0045
  220loPI   C1B 3517   4.178  13.905   9.082  0.2642 -0.0083 -0.1067
  220loPI   C2B 3518   4.058  13.982   8.701 -0.1458  0.1336 -0.0137
  220loPI   C3B 3519   3.940  14.099   8.366 -0.1019  0.1279 -0.2795
  220loPI   C4B 3520   3.956  13.935   7.967  0.1506  0.0857  0.1821
  221loPI    C1 3521  18.461  18.808  10.410  0.1418 -0.0458  0.1670
  221loPI    C2 3522  18.825  18.786  10.574  0.1959 -0.0522  0.0473
  221loPI    C3 3523  18.591  19.101  10.648  0.4133  0.1854 -0.2529
  221loPI   PO4 3524  18.552  18.783  10.149  0.1030 -0.2566  0.2052
  221loPI   GL1 3525  18.380  18.688   9.665  0.1126  0.3882  0.1163
  221loPI   GL2 3526  18.048  18.551   9.688 -0.0858 -0.2668  0.3086
  221loPI   C1A 3527  18.488  18.358   9.423  0.3545  0.0337  0.3623
  221loPI   C2A 3528  18.435  18.197   8.981 -0.0250  0.1035 -0.0357
  221loPI   C3A 3529  18.174  17.979   8.682  0.3802 -0.2308  0.2128
  221loPI   C4A 3530  18.123  18.225   8.401  0.1806  0.0167 -0.1419
  221loPI   C5A 3531  18.068  18.612   8.094  0.1024  0.0018 -0.3269
  221loPI   C6A 3532  18.265  18.689   7.696  0.1007 -0.1036 -0.3115
  221loPI   C1B 3533  17.997  18.287   9.215 -0.0216 -0.2748  0.1915
  221loPI   C2B 3534  18.080  18.551   8.841  0.1837 -0.1745 -0.4395
  221loPI   C3B 3535  18.060  18.908   8.462 -0.1079  0.0926  0.0673
  221loPI   C4B 3536  17.849  19.170   8.380  0.0501  0.1871  0.1306
  222loPI    C1 3537  18.852  19.157   9.896  0.1706  0.0860  0.0768
  222loPI    C2 3538  18.972  19.257  10.264 -0.2342  0.0666  0.2192
  222loPI    C3 3539  19.020  18.882  10.133 -0.1846  0.0471  0.2921
  222loPI   PO4 3540  18.983  19.295   9.712 -0.2250 -0.0842 -0.0553
  222loPI   GL1 3541  18.875  19.283   9.316  0.1456  0.1730 -0.0283
  222loPI   GL2 3542  18.982  19.564   9.215  0.3122 -0.2188  0.2990
  222loPI   C1A 3543  18.905  19.097   8.894 -0.2975  0.0463  0.0416
  222loPI   C2A 3544  18.663  18.640   8.871 -0.2945  0.0490  0.2405
  222loPI   C3A 3545  18.513  18.574   8.581 -0.2673 -0.0416  0.0774
  222loPI   C4A 3546  18.550  18.501   8.108 -0.0479  0.0411  0.2229
  222loPI   C5A 3547  18.790  18.073   7.851 -0.1384  0.1451 -0.1566
  222loPI   C6A 3548  18.965  17.645   7.720  0.0259 -0.0418  0.1385
  222loPI   C1B 3549  19.111  19.608   8.766  0.0317  0.1886 -0.0639
  222loPI   C2B 3550  19.193  19.784   8.352  0.2030  0.0753 -0.4370
  222loPI   C3B 3551  19.388  19.473   8.022  0.2957  0.1092 -0.0786
  222loPI   C4B 3552  19.497  19.567   7.556  0.0731 -0.1481  0.2249
  223loPI    C1 3553  11.568  11.886  10.212 -0.2592  0.1740 -0.2562
  223loPI    C2 3554  11.646  11.937  10.601  0.1720 -0.1468 -0.2937
  223loPI    C3 3555  11.285  11.812  10.484  0.0841 -0.1869  0.0135
  223loPI   PO4 3556  11.758  12.070   9.955  0.1492 -0.3477 -0.2501
  223loPI   GL1 3557  11.413  12.221   9.656 -0.0473  0.2016 -0.0273
  223loPI   GL2 3558  11.221  12.264   9.455 -0.0326  0.0467 -0.2591
  223loPI   C1A 3559  11.630  12.444   9.351  0.1364  0.0177  0.0096
  223loPI   C2A 3560  11.584  12.710   8.933  0.2077  0.2054 -0.0874
  223loPI   C3A 3561  11.554  12.957   8.591  0.0600  0.1999  0.1572
  223loPI   C4A 3562  11.320  13.043   8.123 -0.0226 -0.1586  0.3183
  223loPI   C5A 3563  11.572  12.988   7.707 -0.0601 -0.2212 -0.3313
  223loPI   C6A 3564  11.509  12.775   7.407 -0.4730  0.1452 -0.0021
  223loPI   C1B 3565  11.203  11.877   9.180  0.2264 -0.1323 -0.0512
  223loPI   C2B 3566  11.461  11.408   8.938  0.1030 -0.3123 -0.0629
  223loPI   C3B 3567  11.298  11.122   8.730  0.0017 -0.0705 -0.0150
  223loPI   C4B 3568  11.110  11.164   8.373 -0.0302  0.0955  0.0051
  224loPI    C1 3569   3.957   9.407   9.825  0.1588  0.1006 -0.2041
  224loPI    C2 3570   4.198   9.124   9.973 -0.1252  0.0665  0.2087
  224loPI    C3 3571   4.016   9.068   9.622  0.1062 -0.1029  0.1134
  224loPI   PO4 3572   4.127   9.758   9.723  0.1353 -0.0564 -0.1154
  224loPI   GL1 3573   3.876  10.082   9.311 -0.3625 -0.0710 -0.1425
  224loPI   GL2 3574   3.454  10.008   9.261  0.2609  0.0868  0.0201
  224loPI   C1A 3575   3.952  10.083   8.910 -0.0963  0.4280  0.1447
  224loPI   C2A 3576   3.960  10.078   8.447  0.2849  0.0144  0.3638
  224loPI   C3A 3577   3.933  10.070   7.971 -0.0309  0.2602  0.3803
  224loPI   C4A 3578   3.895  10.027   7.480 -0.1832 -0.2090 -0.3749
  224loPI   C5A 3579   4.218  10.111   7.207  0.4466  0.0403  0.0580
  224loPI   C6A 3580   4.053  10.349   6.748 -0.0025  0.1028  0.0664
  224loPI   C1B 3581   3.150  10.020   9.054 -0.0038  0.2068  0.0974
  224loPI   C2B 3582   3.081  10.112   8.579  0.1699 -0.2627 -0.0058
  224loPI   C3B 3583   2.893  10.123   8.085  0.2341  0.0170 -0.1340
  224loPI   C4B 3584   3.061  10.367   7.756  0.1186  0.0787  0.0500
  225loPI    C1 3585   4.339   0.866   9.808  0.0931  0.0135 -0.0177
  225loPI    C2 3586   4.588   1.173   9.870 -0.2681  0.3249 -0.0728
  225loPI    C3 3587   4.225   1.173  10.038 -0.1935 -0.1814  0.1057
  225loPI   PO4 3588   4.297   0.784   9.562 -0.0352  0.2932 -0.3745
  225loPI   GL1 3589   4.720   0.734   9.327  0.0203  0.1874 -0.2482
  225loPI   GL2 3590   4.967   0.419   9.280 -0.2185 -0.4741  0.1325
  225loPI   C1A 3591   4.514   0.487   8.958 -0.0255  0.2659  0.2157
  225loPI   C2A 3592   4.598   0.284   8.608  0.0285 -0.2993 -0.0550
  225loPI   C3A 3593   4.478   0.286   8.121 -0.1864 -0.0997  0.1476
  225loPI   C4A 3594   4.763   0.319   7.774 -0.1492 -0.2285 -0.1712
  225loPI   C5A 3595   4.781   0.224   7.274 -0.3427  0.0742 -0.1094
  225loPI   C6A 3596   4.415   0.051   6.995 -0.2619 -0.0757 -0.0748
  225loPI   C1B 3597   5.011   0.347   8.860 -0.1144  0.1228  0.3063
  225loPI   C2B 3598   5.290   0.381   8.626  0.1779  0.0655 -0.0540
  225loPI   C3B 3599   5.136   0.266   8.317  0.1420 -0.2400 -0.0812
  225loPI   C4B 3600   4.854  -0.024   8.151  0.0315 -0.2550 -0.1332
  226loPI    C1 3601  18.792  13.364  10.026 -0.0920  0.1604 -0.3382
  226loPI    C2 3602  18.495  13.482  10.266  0.0692  0.0309 -0.0706
  226loPI    C3 3603  18.539  13.094  10.179  0.2472  0.0313  0.0123
  226loPI   PO4 3604  18.712  13.499   9.818  0.3965 -0.0871  0.0390
  226loPI   GL1 3605  18.850  13.571   9.409  0.0065 -0.1454  0.0768
  226loPI   GL2 3606  18.756  13.215   9.307 -0.0875 -0.1561  0.0771
  226loPI   C1A 3607  18.711  13.674   8.998 -0.2988 -0.3496  0.1252
  226loPI   C2A 3608  18.734  13.879   8.624 -0.1488 -0.1595 -0.0008
  226loPI   C3A 3609  18.625  14.033   8.318  0.0697 -0.1241  0.0348
  226loPI   C4A 3610  18.757  14.238   7.957 -0.0555 -0.0163  0.1885
  226loPI   C5A 3611  19.173  14.306   7.733 -0.1055  0.1342  0.2369
  226loPI   C6A 3612  19.343  14.627   7.606 -0.4412  0.4793 -0.2217
  226loPI   C1B 3613  18.905  12.930   9.049  0.1330  0.1633 -0.0421
  226loPI   C2B 3614  18.828  12.643   8.688  0.4502 -0.3389 -0.0996
  226loPI   C3B 3615  19.011  12.611   8.272 -0.1150  0.0544  0.1446
  226loPI   C4B 3616  18.895  12.725   7.994 -0.5726  0.0704  0.2009
  227loPI    C1 3617  14.344   1.824   9.696  0.2684  0.1222  0.2895
  227loPI    C2 3618  14.226   1.450   9.620  0.0947  0.2614 -0.1629
  227loPI    C3 3619  14.612   1.527   9.691  0.1655  0.0275 -0.2826
  227loPI   PO4 3620  14.274   1.944   9.428  0.1602 -0.0999 -0.3509
  227loPI   GL1 3621  14.122   2.131   9.140 -0.0269  0.1598  0.1098
  227loPI   GL2 3622  13.835   2.385   9.118  0.0019 -0.1802 -0.2388
  227loPI   C1A 3623  14.217   1.987   8.689 -0.0494  0.0264  0.0626
  227loPI   C2A 3624  14.167   2.008   8.234  0.0673 -0.0526 -0.3036
  227loPI   C3A 3625  14.049   1.835   7.999  0.0378  0.0239 -0.2277
  227loPI   C4A 3626  14.081   1.791   7.624 -0.2965  0.1376 -0.0190
  227loPI   C5A 3627  14.268   1.960   7.273  0.1606  0.1613  0.0767
  227loPI   C6A 3628  14.506   2.265   7.085  0.2172 -0.0387 -0.2550
  227loPI   C1B 3629  14.027   2.468   8.674 -0.2400  0.0906  0.2655
  227loPI   C2B 3630  14.081   2.550   8.192 -0.0489  0.2766 -0.0467
  227loPI   C3B 3631  14.073   2.761   7.844 -0.4514  0.0921 -0.0119
  227loPI   C4B 3632  14.148   2.914   7.363  0.1266 -0.3900  0.0865
  228loPI    C1 3633   8.141  18.107   9.857  0.0299  0.1010  0.0008
  228loPI    C2 3634   7.787  18.083   9.671  0.0768 -0.1761 -0.0581
  228loPI    C3 3635   7.969  17.750   9.798  0.1841 -0.0127  0.2257
  228loPI   PO4 3636   8.296  18.266   9.697  0.1787 -0.0557 -0.1103
  228loPI   GL1 3637   8.157  18.216   9.338  0.2616 -0.0150 -0.1561
  228loPI   GL2 3638   8.351  17.930   9.277  0.4025 -0.0625  0.2660
  228loPI   C1A 3639   8.039  18.134   8.867  0.0866 -0.2965 -0.0185
  228loPI   C2A 3640   8.144  18.126   8.432 -0.1046 -0.1347 -0.1559
  228loPI   C3A 3641   8.330  17.741   8.082  0.1204  0.2079  0.0076
  228loPI   C4A 3642   8.487  17.475   7.771  0.0178  0.0892 -0.1865
  228loPI   C5A 3643   8.270  17.072   7.512 -0.1808  0.1368 -0.1803
  228loPI   C6A 3644   8.094  16.793   7.185  0.4682 -0.0541 -0.2613
  228loPI   C1B 3645   8.514  17.950   8.867  0.1367  0.3148 -0.1065
  228loPI   C2B 3646   8.686  18.140   8.520 -0.0570 -0.0363  0.1297
  228loPI   C3B 3647   8.600  18.187   8.084 -0.0780  0.0075 -0.0073
  228loPI   C4B 3648   8.380  18.005   7.633  0.0286 -0.1297 -0.1396
  229loPI    C1 3649   1.362  14.150  10.021  0.0100 -0.1430  0.1568
  229loPI    C2 3650   1.141  14.228  10.345 -0.0290 -0.0520  0.1086
  229loPI    C3 3651   1.531  14.147  10.384 -0.0389 -0.0660  0.1803
  229loPI   PO4 3652   1.119  14.311   9.814 -0.0016 -0.1796  0.0480
  229loPI   GL1 3653   1.114  14.674   9.612 -0.0200 -0.2216 -0.1898
  229loPI   GL2 3654   1.332  14.440   9.332 -0.1073 -0.0162  0.0873
  229loPI   C1A 3655   0.742  14.682   9.375 -0.0592  0.1783  0.2435
  229loPI   C2A 3656   0.565  14.547   8.927  0.1985 -0.3098  0.5148
  229loPI   C3A 3657   0.571  14.670   8.463 -0.1145 -0.4037 -0.2351
  229loPI   C4A 3658   0.452  14.641   8.055  0.0639 -0.0032 -0.0136
  229loPI   C5A 3659   0.574  14.503   7.694  0.0254  0.1484  0.0270
  229loPI   C6A 3660   0.544  14.372   7.283  0.0853  0.2792 -0.1539
  229loPI   C1B 3661   1.149  14.482   8.968  0.2604  0.0864  0.1594
  229loPI   C2B 3662   1.095  14.554   8.487 -0.0279  0.0398  0.0092
  229loPI   C3B 3663   1.144  14.618   8.124 -0.2727  0.3757 -0.3033
  229loPI   C4B 3664   1.402  14.468   7.738  0.1373  0.1843 -0.0556
  230loPI    C1 3665  12.835   5.694   9.576  0.0741  0.2914  0.0687
  230loPI    C2 3666  12.802   5.653   9.972  0.0763 -0.1692  0.0260
  230loPI    C3 3667  12.475   5.714   9.749  0.0317 -0.2651  0.0641
  230loPI   PO4 3668  12.951   5.432   9.446 -0.0307  0.2271 -0.1550
  230loPI   GL1 3669  13.197   5.154   9.134  0.0791 -0.0301 -0.1653
  230loPI   GL2 3670  13.069   5.485   8.974  0.3266 -0.0541  0.0921
  230loPI   C1A 3671  13.102   4.889   8.769  0.0333 -0.0801  0.2925
  230loPI   C2A 3672  12.870   5.088   8.406  0.1187  0.2484  0.1650
  230loPI   C3A 3673  12.859   5.074   7.971 -0.1235 -0.1096  0.1363
  230loPI   C4A 3674  12.577   5.358   7.706 -0.2590  0.2802  0.1678
  230loPI   C5A 3675  12.822   5.701   7.456 -0.1596  0.1484 -0.1772
  230loPI   C6A 3676  12.856   6.114   7.282 -0.1232 -0.0280 -0.0154
  230loPI   C1B 3677  13.228   5.441   8.643  0.4228  0.0116 -0.0732
  230loPI   C2B 3678  13.127   5.503   8.317  0.1974  0.0314  0.2981
  230loPI   C3B 3679  12.997   5.688   7.971 -0.1107  0.1982  0.1391
  230loPI   C4B 3680  12.640   5.988   7.810 -0.1900  0.0934 -0.2754
  231loPI    C1 3681  18.445   4.739  10.300  0.2376  0.4033  0.1526
  231loPI    C2 3682  18.767   4.644  10.517  0.1257  0.0853  0.1846
  231loPI    C3 3683  18.430   4.434  10.558  0.0516  0.1278 -0.1757
  231loPI   PO4 3684  18.524   4.806  10.004 -0.3162 -0.1929 -0.2233
  231loPI   GL1 3685  18.587   5.072   9.577  0.0738 -0.2385  0.0316
  231loPI   GL2 3686  18.382   5.093   9.377  0.1969  0.0992 -0.1125
  231loPI   C1A 3687  18.883   4.708   9.412  0.2148 -0.1418 -0.0058
  231loPI   C2A 3688  19.050   4.493   9.099  0.0454  0.0890  0.0514
  231loPI   C3A 3689  18.966   4.404   8.633 -0.1348  0.1960  0.0427
  231loPI   C4A 3690  18.918   4.304   8.180  0.0854 -0.1389  0.2812
  231loPI   C5A 3691  19.014   3.881   7.924 -0.0031 -0.3517  0.2561
  231loPI   C6A 3692  19.351   3.689   7.603  0.2908 -0.4754  0.0285
  231loPI   C1B 3693  18.449   4.885   8.982 -0.2300 -0.0041 -0.1421
  231loPI   C2B 3694  18.215   4.737   8.640  0.1136  0.1517  0.0474
  231loPI   C3B 3695  18.048   4.512   8.227  0.2505 -0.0274 -0.0304
  231loPI   C4B 3696  17.935   4.375   7.828  0.2082  0.0988 -0.1982
  232loPI    C1 3697  14.276  14.130   9.962 -0.0481 -0.2746 -0.0464
  232loPI    C2 3698  14.259  14.520  10.049  0.0060 -0.2508 -0.1410
  232loPI    C3 3699  13.949  14.283  10.136 -0.0300 -0.1856 -0.0900
  232loPI   PO4 3700  14.551  14.081  10.070  0.3370 -0.1069  0.3284
  232loPI   GL1 3701  14.820  14.269   9.804 -0.0750 -0.0179 -0.0286
  232loPI   GL2 3702  14.433  14.451   9.618 -0.1619  0.1944 -0.3851
  232loPI   C1A 3703  14.817  14.124   9.324  0.0601 -0.0058 -0.0180
  232loPI   C2A 3704  14.993  14.242   8.946 -0.0807  0.2601  0.0842
  232loPI   C3A 3705  15.182  14.477   8.635 -0.1418 -0.0172  0.2332
  232loPI   C4A 3706  15.051  14.742   8.372  0.3732 -0.0913  0.0671
  232loPI   C5A 3707  14.748  15.046   8.130 -0.1947 -0.0505 -0.2077
  232loPI   C6A 3708  14.385  15.253   8.250 -0.1237 -0.2967  0.1774
  232loPI   C1B 3709  14.495  14.563   9.249  0.2996 -0.0017  0.2723
  232loPI   C2B 3710  14.415  14.337   8.885  0.0773  0.0163 -0.3234
  232loPI   C3B 3711  14.234  14.351   8.547  0.0253 -0.3220  0.0832
  232loPI   C4B 3712  14.010  14.487   8.217 -0.1652  0.1932  0.0914
  233loPI    C1 3713  14.973   4.966   9.712 -0.0378  0.2210 -0.0755
  233loPI    C2 3714  15.316   5.158   9.785  0.1123 -0.1316  0.1770
  233loPI    C3 3715  15.164   4.910  10.059 -0.1694 -0.2386 -0.0703
  233loPI   PO4 3716  14.986   4.931   9.403 -0.0000  0.0231 -0.0834
  233loPI   GL1 3717  15.098   4.971   8.981 -0.4404  0.3528 -0.1828
  233loPI   GL2 3718  15.225   4.661   9.003  0.1746 -0.2691 -0.1169
  233loPI   C1A 3719  15.172   4.935   8.585  0.1440 -0.1544  0.2443
  233loPI   C2A 3720  15.352   4.841   8.147 -0.2735  0.1840  0.0607
  233loPI   C3A 3721  15.692   4.813   7.817 -0.1817 -0.2636  0.4707
  233loPI   C4A 3722  16.002   4.512   7.631 -0.2892 -0.3447 -0.4110
  233loPI   C5A 3723  15.745   4.261   7.608  0.1088  0.1374 -0.0387
  233loPI   C6A 3724  15.623   3.810   7.638 -0.1369  0.1235 -0.2203
  233loPI   C1B 3725  15.351   4.507   8.620  0.1758  0.2712 -0.0016
  233loPI   C2B 3726  15.241   4.215   8.356  0.0608  0.1498 -0.0747
  233loPI   C3B 3727  15.394   3.817   8.158 -0.0912  0.1733 -0.0137
  233loPI   C4B 3728  15.161   3.642   7.927  0.3915  0.0788 -0.0176
  234loPI    C1 3729  17.808   2.470   9.768  0.1456 -0.2132 -0.0121
  234loPI    C2 3730  17.522   2.191   9.776  0.0023 -0.0737 -0.1951
  234loPI    C3 3731  17.641   2.365  10.116 -0.1373 -0.1254 -0.1185
  234loPI   PO4 3732  17.700   2.607   9.581  0.1649  0.0910  0.1113
  234loPI   GL1 3733  17.713   2.447   9.178 -0.0484  0.3803  0.5771
  234loPI   GL2 3734  17.475   2.402   8.885  0.0824  0.0921 -0.1978
  234loPI   C1A 3735  17.883   2.696   8.777 -0.2379  0.1325 -0.0388
  234loPI   C2A 3736  17.905   2.936   8.346 -0.2828 -0.1779 -0.0691
  234loPI   C3A 3737  17.821   3.073   7.924  0.1816  0.2832  0.2065
  234loPI   C4A 3738  17.485   2.926   7.774  0.1836  0.1266  0.4281
  234loPI   C5A 3739  17.432   2.541   7.659 -0.0404  0.1871 -0.2189
  234loPI   C6A 3740  17.461   2.295   7.349  0.2159 -0.0677  0.0694
  234loPI   C1B 3741  17.413   2.231   8.494  0.0404  0.1247  0.2255
  234loPI   C2B 3742  17.339   2.283   8.079  0.0412  0.1011  0.0259
  234loPI   C3B 3743  17.002   2.658   7.998  0.1316  0.3211 -0.0514
  234loPI   C4B 3744  16.637   2.922   7.969  0.1342  0.4005  0.1977
  235loPI    C1 3745   2.757  12.359  10.109 -0.0685 -0.0268 -0.2137
  235loPI    C2 3746   2.582  12.049  10.292 -0.1897  0.2891  0.2211
  235loPI    C3 3747   2.972  12.120  10.347 -0.0934  0.0483 -0.1154
  235loPI   PO4 3748   2.697  12.405   9.892 -0.0564 -0.1302 -0.1315
  235loPI   GL1 3749   2.910  12.473   9.471  0.0570  0.1258  0.4732
  235loPI   GL2 3750   3.061  12.276   9.376  0.0970  0.1780  0.1148
  235loPI   C1A 3751   2.786  12.703   9.116 -0.2365 -0.1826  0.4866
  235loPI   C2A 3752   2.838  12.966   8.779 -0.0389 -0.0167 -0.2345
  235loPI   C3A 3753   2.854  13.068   8.368 -0.2007  0.3003  0.1721
  235loPI   C4A 3754   2.783  12.955   7.923  0.4651  0.0195 -0.0379
  235loPI   C5A 3755   2.381  12.897   7.724  0.0066 -0.0235  0.1653
  235loPI   C6A 3756   2.060  13.185   7.819 -0.0069  0.0210 -0.1825
  235loPI   C1B 3757   3.163  12.304   8.917 -0.0630 -0.0587 -0.0835
  235loPI   C2B 3758   3.138  12.209   8.486  0.1664 -0.4855  0.1080
  235loPI   C3B 3759   3.158  12.152   7.935 -0.1734  0.2189  0.0844
  235loPI   C4B 3760   3.538  11.900   7.724  0.0997 -0.2054  0.0629
  236loPI    C1 3761   4.842   4.804   9.753 -0.3015  0.1947 -0.2373
  236loPI    C2 3762   4.665   4.488   9.923  0.0515 -0.0313 -0.2804
  236loPI    C3 3763   4.747   4.485   9.531  0.1139  0.0874 -0.2686
  236loPI   PO4 3764   4.675   5.024   9.809 -0.0453  0.3716  0.2804
  236loPI   GL1 3765   4.540   5.044   9.331  0.2862  0.2430  0.1077
  236loPI   GL2 3766   4.385   5.330   9.213 -0.0384  0.2315  0.2093
  236loPI   C1A 3767   4.514   4.761   9.075  0.0793  0.3411 -0.2101
  236loPI   C2A 3768   4.396   4.680   8.600 -0.2081  0.1296 -0.0571
  236loPI   C3A 3769   4.628   4.652   7.996  0.1216 -0.3858 -0.0423
  236loPI   C4A 3770   4.922   4.868   7.616  0.1433  0.2612  0.0976
  236loPI   C5A 3771   5.153   4.694   7.230  0.0613 -0.0757  0.2406
  236loPI   C6A 3772   5.615   4.716   7.021  0.2545  0.2853  0.0123
  236loPI   C1B 3773   4.214   5.104   8.822  0.0914 -0.0420 -0.2440
  236loPI   C2B 3774   4.351   5.068   8.338 -0.2480 -0.0953 -0.1144
  236loPI   C3B 3775   4.302   4.989   7.930  0.2969 -0.2117 -0.2511
  236loPI   C4B 3776   4.440   4.702   7.544  0.1668  0.1638  0.2454
  237loPI    C1 3777   6.908  18.258   9.649 -0.0722  0.0762 -0.2270
  237loPI    C2 3778   7.286  18.237   9.521 -0.0447 -0.1018 -0.1194
  237loPI    C3 3779   7.206  18.384   9.885 -0.0756 -0.0978 -0.1279
  237loPI   PO4 3780   6.879  18.010   9.644  0.2956 -0.2191  0.0960
  237loPI   GL1 3781   6.761  17.730   9.212  0.0977  0.3725 -0.1743
  237loPI   GL2 3782   6.921  17.955   9.106 -0.1294  0.0931 -0.2610
  237loPI   C1A 3783   6.877  17.527   8.843 -0.1145 -0.0321 -0.0447
  237loPI   C2A 3784   7.056  17.568   8.390 -0.2881  0.2733  0.1719
  237loPI   C3A 3785   7.007  17.795   7.971  0.0635 -0.0373  0.0412
  237loPI   C4A 3786   6.757  18.109   7.679 -0.0467  0.2318 -0.0294
  237loPI   C5A 3787   6.475  18.409   7.442 -0.1532 -0.0852 -0.1654
  237loPI   C6A 3788   6.561  18.799   7.216 -0.1544  0.0140 -0.0333
  237loPI   C1B 3789   6.829  18.034   8.699 -0.0330  0.1289 -0.0978
  237loPI   C2B 3790   7.031  18.249   8.387  0.1401 -0.0377 -0.0925
  237loPI   C3B 3791   7.066  18.332   7.933  0.1650 -0.1098 -0.0780
  237loPI   C4B 3792   7.048  18.585   7.482  0.1957 -0.1964 -0.0523
  238loPI    C1 3793   1.034   0.819  10.070  0.1798  0.2042 -0.0370
  238loPI    C2 3794   0.675   0.833  10.245  0.0684 -0.0851 -0.2332
  238loPI    C3 3795   0.927   1.142  10.280 -0.0242 -0.0583  0.2727
  238loPI   PO4 3796   0.954   0.797   9.850 -0.2760 -0.0404  0.2332
  238loPI   GL1 3797   1.056   0.466   9.511 -0.2678  0.0778 -0.5582
  238loPI   GL2 3798   0.871   0.658   9.336  0.0210  0.1144  0.0416
  238loPI   C1A 3799   1.115   0.333   9.088  0.0144  0.1918 -0.1024
  238loPI   C2A 3800   0.975   0.332   8.695  0.1490 -0.2033 -0.1210
  238loPI   C3A 3801   1.260   0.357   8.364  0.1347 -0.0469  0.2064
  238loPI   C4A 3802   1.354   0.670   8.050 -0.0722  0.3909 -0.0298
  238loPI   C5A 3803   1.427   0.872   7.569 -0.1044  0.0335 -0.2025
  238loPI   C6A 3804   1.265   0.928   7.181 -0.3854 -0.1206 -0.0898
  238loPI   C1B 3805   0.920   0.782   8.995  0.1021 -0.0930 -0.0994
  238loPI   C2B 3806   0.766   0.921   8.581  0.0128 -0.1694 -0.1949
  238loPI   C3B 3807   0.366   0.826   8.349  0.0098  0.1725 -0.0065
  238loPI   C4B 3808   0.210   0.778   7.955 -0.0087  0.2891 -0.0998
  239loPI    C1 3809   0.839  17.691  10.063  0.3061  0.0851 -0.2031
  239loPI    C2 3810   1.050  17.995  10.214  0.2340  0.1614 -0.2554
  239loPI    C3 3811   0.744  18.067   9.968  0.0869  0.0559 -0.1057
  239loPI   PO4 3812   1.086  17.514  10.068  0.0347  0.1415 -0.0236
  239loPI   GL1 3813   1.367  17.484   9.698 -0.0919  0.0096 -0.2544
  239loPI   GL2 3814   1.314  17.843   9.721 -0.0637  0.4748  0.3238
  239loPI   C1A 3815   1.206  17.556   9.285  0.0760  0.1280  0.1339
  239loPI   C2A 3816   1.235  17.580   8.893  0.1953  0.0004 -0.0129
  239loPI   C3A 3817   1.115  17.300   8.514 -0.1090 -0.2722  0.2184
  239loPI   C4A 3818   1.208  16.934   8.269 -0.0226  0.0590  0.3352
  239loPI   C5A 3819   1.148  16.606   7.901  0.0243  0.2084 -0.1235
  239loPI   C6A 3820   1.457  16.287   7.793 -0.2085 -0.0845 -0.1665
  239loPI   C1B 3821   1.021  17.980   9.481 -0.1621  0.0735 -0.4766
  239loPI   C2B 3822   0.811  17.868   9.032  0.2594 -0.1576 -0.1618
  239loPI   C3B 3823   0.901  17.878   8.563 -0.0525 -0.2050  0.2110
  239loPI   C4B 3824   0.752  17.792   8.221  0.3460  0.1835 -0.0779
  240loPI    C1 3825   3.580   7.505   9.919  0.0470  0.3193 -0.1836
  240loPI    C2 3826   3.855   7.648  10.172 -0.0017  0.2158 -0.0708
  240loPI    C3 3827   3.472   7.757  10.211 -0.0445  0.0318  0.0361
  240loPI   PO4 3828   3.786   7.549   9.710 -0.0846 -0.1003  0.4091
  240loPI   GL1 3829   3.782   7.262   9.392  0.3000  0.0416  0.1456
  240loPI   GL2 3830   3.563   7.244   9.126 -0.1400 -0.0092 -0.0412
  240loPI   C1A 3831   3.526   6.887   9.471 -0.1005  0.0583 -0.0379
  240loPI   C2A 3832   3.682   6.606   9.222 -0.1429 -0.1574 -0.3301
  240loPI   C3A 3833   3.650   6.134   9.201 -0.0599  0.1409 -0.0931
  240loPI   C4A 3834   3.932   5.882   9.204  0.0625 -0.0645 -0.0280
  240loPI   C5A 3835   4.081   5.600   8.883 -0.1090 -0.0034  0.1950
  240loPI   C6A 3836   4.045   5.459   8.491 -0.0657 -0.2861  0.4306
  240loPI   C1B 3837   3.346   7.052   8.892  0.2389  0.1830  0.2602
  240loPI   C2B 3838   3.004   7.106   8.605  0.2582 -0.1412 -0.0091
  240loPI   C3B 3839   2.836   6.981   8.081 -0.1439  0.4613  0.2217
  240loPI   C4B 3840   2.875   7.072   7.634 -0.2481 -0.4383  0.1018
  241loPI    C1 3841  13.787   2.942   9.778  0.1437 -0.1308  0.2225
  241loPI    C2 3842  13.800   3.335   9.852 -0.3353 -0.0492 -0.0795
  241loPI    C3 3843  13.755   3.077  10.154 -0.4429  0.1557  0.0829
  241loPI   PO4 3844  13.685   2.887   9.538  0.1339 -0.1222 -0.0059
  241loPI   GL1 3845  13.532   2.815   9.102  0.2542  0.0766 -0.1688
  241loPI   GL2 3846  13.199   2.777   9.332 -0.2738  0.1211 -0.0864
  241loPI   C1A 3847  13.473   2.691   8.693 -0.0470 -0.1125 -0.0406
  241loPI   C2A 3848  13.588   2.662   8.312  0.1457 -0.1309 -0.1422
  241loPI   C3A 3849  13.533   2.674   7.888 -0.2200  0.1168  0.1115
  241loPI   C4A 3850  13.660   2.784   7.447  0.3739  0.2219 -0.0841
  241loPI   C5A 3851  13.726   2.918   7.101  0.1012  0.0657  0.0171
  241loPI   C6A 3852  13.677   2.973   6.696  0.0624 -0.2106  0.0373
  241loPI   C1B 3853  12.988   2.802   8.855 -0.0954 -0.3962 -0.0736
  241loPI   C2B 3854  12.770   2.478   8.455  0.0292 -0.1774  0.0693
  241loPI   C3B 3855  12.382   2.422   8.112  0.0681 -0.0217  0.4260
  241loPI   C4B 3856  12.292   2.547   7.761  0.1510 -0.2933  0.3413
  242loPI    C1 3857  12.913   7.303   9.599  0.0374  0.0429 -0.1155
  242loPI    C2 3858  12.700   7.059   9.364  0.2047 -0.0364 -0.1860
  242loPI    C3 3859  12.813   6.937   9.728  0.0804  0.0278 -0.1251
  242loPI   PO4 3860  12.786   7.560   9.657 -0.0716  0.2042  0.0355
  242loPI   GL1 3861  12.704   7.753   9.297  0.1490  0.1130 -0.0633
  242loPI   GL2 3862  12.633   7.501   9.156 -0.0480  0.0611  0.3869
  242loPI   C1A 3863  12.929   8.055   8.900  0.1023  0.1330  0.1553
  242loPI   C2A 3864  13.066   8.142   8.557  0.0379  0.2296 -0.0122
  242loPI   C3A 3865  13.125   8.252   8.098  0.0792 -0.0663 -0.0032
  242loPI   C4A 3866  13.373   8.413   7.779  0.0133  0.1555  0.1614
  242loPI   C5A 3867  13.446   8.397   7.354 -0.2581 -0.4382 -0.0361
  242loPI   C6A 3868  13.531   8.808   7.090  0.2757 -0.2373 -0.3185
  242loPI   C1B 3869  12.804   7.124   8.869 -0.0418 -0.0988 -0.1743
  242loPI   C2B 3870  12.881   6.640   8.680 -0.0123  0.1093  0.2344
  242loPI   C3B 3871  12.999   6.339   8.470 -0.3962 -0.0997  0.3912
  242loPI   C4B 3872  12.791   5.972   8.280 -0.0047  0.0454 -0.2713
  243loPI    C1 3873   4.724   7.738   9.935  0.1785 -0.4188  0.2036
  243loPI    C2 3874   5.113   7.654   9.975  0.2669 -0.0868  0.0744
  243loPI    C3 3875   4.949   7.949  10.190  0.1579 -0.0191 -0.1000
  243loPI   PO4 3876   4.609   7.656   9.730 -0.0882 -0.3875 -0.2041
  243loPI   GL1 3877   4.652   7.432   9.370 -0.1287  0.3231 -0.2216
  243loPI   GL2 3878   4.635   7.118   9.296  0.1629 -0.0942  0.0192
  243loPI   C1A 3879   4.905   7.378   8.865 -0.1557 -0.1634 -0.0396
  243loPI   C2A 3880   5.172   7.537   8.596  0.0696  0.0836 -0.0098
  243loPI   C3A 3881   5.248   7.511   8.125  0.4346 -0.2024 -0.0835
  243loPI   C4A 3882   5.314   7.403   7.713 -0.1369  0.0513  0.1529
  243loPI   C5A 3883   5.519   7.211   7.433  0.0703 -0.0915  0.0961
  243loPI   C6A 3884   5.886   7.216   7.305  0.1879  0.0734 -0.4092
  243loPI   C1B 3885   4.433   7.157   8.877 -0.0762  0.3954  0.2169
  243loPI   C2B 3886   4.300   6.860   8.573  0.0710 -0.0744  0.1171
  243loPI   C3B 3887   4.375   6.493   8.182 -0.2115  0.1813  0.0981
  243loPI   C4B 3888   4.246   6.581   7.757 -0.0483  0.0956 -0.0425
  244loPI    C1 3889   2.175  12.413   9.966  0.2268  0.3325  0.1430
  244loPI    C2 3890   1.907  12.517  10.245  0.2272 -0.0659  0.2983
  244loPI    C3 3891   2.296  12.505  10.336  0.2565  0.0845  0.1966
  244loPI   PO4 3892   2.025  12.258   9.824  0.0873  0.1268  0.2101
  244loPI   GL1 3893   1.825  12.252   9.499 -0.1181 -0.2364 -0.2738
  244loPI   GL2 3894   1.629  12.012   9.585  0.0916  0.0046 -0.0823
  244loPI   C1A 3895   1.699  12.592   9.063 -0.0184 -0.1185 -0.2560
  244loPI   C2A 3896   1.608  12.476   8.624 -0.2048  0.2715 -0.0642
  244loPI   C3A 3897   1.636  12.369   8.195 -0.1173 -0.0926  0.1999
  244loPI   C4A 3898   1.414  12.442   7.817  0.3175  0.1170 -0.1849
  244loPI   C5A 3899   1.315  12.153   7.427 -0.2760  0.0995 -0.3243
  244loPI   C6A 3900   1.255  11.716   7.395  0.1660  0.2646 -0.0002
  244loPI   C1B 3901   1.582  12.046   9.097  0.2058  0.1885 -0.0728
  244loPI   C2B 3902   1.580  11.896   8.663  0.0486  0.3026  0.3351
  244loPI   C3B 3903   1.609  11.827   8.231 -0.0442  0.2731  0.2451
  244loPI   C4B 3904   1.462  11.759   7.806 -0.0716 -0.1340  0.0325
  245loPI    C1 3905  11.867  16.435  10.229  0.0122  0.0093  0.1040
  245loPI    C2 3906  11.596  16.490  10.518 -0.0196  0.0333  0.0697
  245loPI    C3 3907  11.986  16.507  10.604 -0.0288 -0.0523  0.1289
  245loPI   PO4 3908  11.840  16.166  10.139  0.0808  0.1625  0.2227
  245loPI   GL1 3909  11.814  15.923   9.872 -0.1463  0.0589 -0.0409
  245loPI   GL2 3910  11.754  15.583   9.861 -0.3100 -0.0403 -0.1154
  245loPI   C1A 3911  12.036  15.652   9.455 -0.2235  0.1741 -0.2501
  245loPI   C2A 3912  11.951  15.484   9.061 -0.0949  0.1872 -0.0901
  245loPI   C3A 3913  11.904  15.401   8.694 -0.4239 -0.1681  0.1867
  245loPI   C4A 3914  12.066  15.546   8.373 -0.1102  0.1221 -0.2080
  245loPI   C5A 3915  12.301  15.344   8.008 -0.0598 -0.0053 -0.0353
  245loPI   C6A 3916  12.515  15.337   7.777 -0.2307  0.2216  0.3035
  245loPI   C1B 3917  11.618  15.412   9.441 -0.0678  0.2704 -0.0426
  245loPI   C2B 3918  11.405  15.221   9.315 -0.0305 -0.0620 -0.0960
  245loPI   C3B 3919  11.552  15.197   8.956  0.2120 -0.0968 -0.0329
  245loPI   C4B 3920  11.320  15.086   8.499  0.3829 -0.1325 -0.0514
  246loPI    C1 3921  17.115  11.443   9.912  0.0805 -0.2829  0.0757
  246loPI    C2 3922  17.304  11.169  10.134 -0.0572 -0.2849  0.1918
  246loPI    C3 3923  17.081  11.451  10.310  0.0526 -0.1205  0.0708
  246loPI   PO4 3924  17.043  11.347   9.713  0.0773 -0.1474  0.2167
  246loPI   GL1 3925  16.886  11.462   9.304 -0.1668  0.1841 -0.2505
  246loPI   GL2 3926  16.731  11.080   9.366  0.1622 -0.1715  0.0568
  246loPI   C1A 3927  17.118  11.496   8.947 -0.0861 -0.3954  0.0766
  246loPI   C2A 3928  16.903  11.383   8.563 -0.0166 -0.3636 -0.0119
  246loPI   C3A 3929  16.862  11.668   8.271  0.1675 -0.2828 -0.0227
  246loPI   C4A 3930  16.602  11.886   8.096 -0.0607  0.0004  0.1115
  246loPI   C5A 3931  16.108  11.714   8.153 -0.1676  0.1795 -0.0031
  246loPI   C6A 3932  15.709  11.723   7.970 -0.0115  0.3290 -0.1903
  246loPI   C1B 3933  16.886  11.096   8.975  0.3127  0.1365 -0.0029
  246loPI   C2B 3934  17.083  10.912   8.687 -0.2238  0.4864 -0.1816
  246loPI   C3B 3935  17.440  10.798   8.469  0.1701 -0.2592 -0.1840
  246loPI   C4B 3936  17.841  10.696   8.239  0.2243  0.0543  0.0486
  247loPI    C1 3937  14.539   7.456   9.784  0.2574  0.1092 -0.1068
  247loPI    C2 3938  14.559   7.191   9.485 -0.1000  0.0182 -0.0544
  247loPI    C3 3939  14.452   7.072   9.851  0.3066  0.1344  0.1072
  247loPI   PO4 3940  14.682   7.677   9.639  0.2115  0.0748 -0.0667
  247loPI   GL1 3941  14.643   7.846   9.279 -0.0532  0.2599 -0.0462
  247loPI   GL2 3942  14.614   7.474   9.121  0.2341 -0.1246  0.2449
  247loPI   C1A 3943  14.318   7.822   8.906  0.1908  0.0534  0.1162
  247loPI   C2A 3944  14.125   8.014   8.495 -0.0029  0.0007 -0.2054
  247loPI   C3A 3945  14.213   8.244   8.124  0.1079 -0.2123 -0.1324
  247loPI   C4A 3946  14.353   8.292   7.716  0.1094 -0.0387  0.1310
  247loPI   C5A 3947  14.606   8.193   7.309 -0.1466  0.2498 -0.2586
  247loPI   C6A 3948  14.775   7.844   7.012 -0.2414  0.0619 -0.0213
  247loPI   C1B 3949  14.467   7.292   8.611  0.1420 -0.2868 -0.0175
  247loPI   C2B 3950  14.595   7.169   8.231 -0.0501 -0.2904 -0.0938
  247loPI   C3B 3951  14.522   7.240   7.798  0.0871  0.0687 -0.0417
  247loPI   C4B 3952  14.164   7.346   7.694 -0.0802  0.2157  0.1013
  248loPI    C1 3953  13.397   7.056   9.828  0.3281  0.0044 -0.0129
  248loPI    C2 3954  13.568   7.364  10.017  0.0635  0.0238  0.2022
  248loPI    C3 3955  13.677   6.989  10.105 -0.0263  0.0345  0.3626
  248loPI   PO4 3956  13.395   7.114   9.578  0.0246 -0.1943 -0.2984
  248loPI   GL1 3957  13.262   7.088   9.250 -0.3148 -0.2575  0.0728
  248loPI   GL2 3958  13.174   7.419   9.151 -0.0264 -0.2142 -0.1318
  248loPI   C1A 3959  13.352   6.850   8.809 -0.2099 -0.0385  0.1268
  248loPI   C2A 3960  13.379   6.681   8.436  0.0554 -0.1987  0.0321
  248loPI   C3A 3961  13.385   6.744   8.016  0.1255  0.4711 -0.2034
  248loPI   C4A 3962  13.197   6.775   7.625 -0.1293 -0.0347 -0.1066
  248loPI   C5A 3963  13.213   6.648   7.349  0.3281 -0.1232 -0.2169
  248loPI   C6A 3964  13.215   6.347   6.990 -0.0495  0.1395 -0.2538
  248loPI   C1B 3965  13.349   7.347   8.751 -0.4381  0.4685 -0.1439
  248loPI   C2B 3966  13.365   7.207   8.358 -0.1762 -0.1623 -0.2876
  248loPI   C3B 3967  13.212   7.243   7.973 -0.1402 -0.0644 -0.0322
  248loPI   C4B 3968  13.090   7.432   7.582 -0.0477  0.0364  0.1794
  249loPI    C1 3969   3.505   6.257  10.216  0.0582  0.1059 -0.0808
  249loPI    C2 3970   3.341   6.030  10.502 -0.1579  0.0975 -0.2097
  249loPI    C3 3971   3.392   6.422  10.563  0.0155  0.0546 -0.0703
  249loPI   PO4 3972   3.624   5.992   9.980  0.0573  0.1803 -0.0752
  249loPI   GL1 3973   3.924   5.909   9.675 -0.0294  0.3852 -0.0314
  249loPI   GL2 3974   4.260   5.814   9.601  0.0724 -0.2475 -0.1285
  249loPI   C1A 3975   4.088   6.328   9.443 -0.3264  0.5448  0.0938
  249loPI   C2A 3976   4.149   6.354   9.056  0.0514 -0.0273  0.1943
  249loPI   C3A 3977   3.878   6.365   8.696  0.0702  0.4113  0.0343
  249loPI   C4A 3978   3.784   6.337   8.269 -0.0376  0.1579 -0.0770
  249loPI   C5A 3979   3.750   6.467   7.839 -0.1640 -0.3604 -0.2506
  249loPI   C6A 3980   3.615   6.547   7.415  0.1130 -0.1801 -0.3183
  249loPI   C1B 3981   4.433   5.950   9.173  0.2192  0.0562 -0.1474
  249loPI   C2B 3982   4.328   6.038   8.755 -0.0972 -0.6401  0.1109
  249loPI   C3B 3983   4.042   5.945   8.409  0.0137  0.1993  0.3651
  249loPI   C4B 3984   3.966   5.928   7.961  0.1832 -0.0904  0.0496
  250loPI    C1 3985   3.101   9.169   9.903 -0.0374 -0.0710 -0.1295
  250loPI    C2 3986   3.409   9.416   9.842 -0.1789  0.1800  0.1480
  250loPI    C3 3987   3.336   9.275  10.209 -0.2664 -0.0529  0.0428
  250loPI   PO4 3988   2.899   9.163   9.631 -0.0623  0.1570  0.1675
  250loPI   GL1 3989   2.632   9.417   9.312  0.1532 -0.1035  0.3820
  250loPI   GL2 3990   2.451   9.115   9.152  0.0227  0.2986  0.2175
  250loPI   C1A 3991   2.828   9.689   8.981 -0.1081  0.0470  0.2229
  250loPI   C2A 3992   3.033   9.628   8.567 -0.0484 -0.3329  0.0556
  250loPI   C3A 3993   3.079   9.522   8.108 -0.1027  0.0069  0.1568
  250loPI   C4A 3994   3.061   9.806   7.640 -0.0691  0.0206 -0.2331
  250loPI   C5A 3995   3.364  10.122   7.392  0.0998  0.0443  0.1645
  250loPI   C6A 3996   3.291  10.512   7.334 -0.0290  0.2028  0.1214
  250loPI   C1B 3997   2.530   9.287   8.722 -0.3954 -0.1574  0.1072
  250loPI   C2B 3998   2.739   9.235   8.310  0.0544 -0.0756 -0.0408
  250loPI   C3B 3999   2.654   9.049   7.923 -0.1028 -0.1227  0.0326
  250loPI   C4B 4000   2.390   9.245   7.614  0.1938 -0.0728 -0.1140
  251loPI    C1 4001  13.913  17.966   9.965  0.1450 -0.1714  0.2102
  251loPI    C2 4002  13.992  18.136  10.319  0.1989  0.2118  0.0195
  251loPI    C3 4003  14.229  18.208  10.005  0.2144 -0.2124 -0.0716
  251loPI   PO4 4004  13.720  18.009   9.917 -0.3162 -0.3807  0.0658
  251loPI   GL1 4005  13.925  18.066   9.477 -0.2160 -0.0353 -0.0365
  251loPI   GL2 4006  13.704  17.996   9.403  0.0745  0.2253 -0.4638
  251loPI   C1A 4007  14.266  17.858   9.225 -0.0992  0.1492 -0.0087
  251loPI   C2A 4008  14.608  17.891   9.058 -0.1095  0.4817  0.2152
  251loPI   C3A 4009  14.822  17.981   8.749  0.1469 -0.3710 -0.0336
  251loPI   C4A 4010  14.899  18.005   8.321 -0.2340  0.0421  0.1179
  251loPI   C5A 4011  15.341  18.108   8.143 -0.3308 -0.0930 -0.0809
  251loPI   C6A 4012  15.372  18.302   7.716  0.0109 -0.1676  0.0822
  251loPI   C1B 4013  13.680  17.732   9.064 -0.0627  0.2896 -0.1071
  251loPI   C2B 4014  13.564  17.550   8.607 -0.2950 -0.0741 -0.2927
  251loPI   C3B 4015  13.624  17.528   8.232  0.1290 -0.2650 -0.1786
  251loPI   C4B 4016  13.673  17.571   7.806  0.1667  0.0277  0.0306
  252loPI    C1 4017   3.687  10.834   9.928  0.1075 -0.0169  0.2683
  252loPI    C2 4018   3.513  11.074  10.197 -0.2021 -0.1087  0.1533
  252loPI    C3 4019   3.613  10.700  10.298 -0.1833 -0.0956  0.1836
  252loPI   PO4 4020   3.586  10.882   9.747 -0.3135  0.2662  0.2865
  252loPI   GL1 4021   3.610  11.059   9.449  0.1078 -0.2116  0.1849
  252loPI   GL2 4022   3.298  11.336   9.410 -0.3605 -0.0807  0.0305
  252loPI   C1A 4023   3.821  11.115   9.089 -0.2795  0.0247 -0.0283
  252loPI   C2A 4024   4.124  11.009   8.766  0.4589  0.2946  0.2784
  252loPI   C3A 4025   4.280  11.039   8.320  0.2821  0.2341  0.2014
  252loPI   C4A 4026   4.286  11.078   7.921 -0.3352 -0.2012 -0.0194
  252loPI   C5A 4027   4.336  11.333   7.574 -0.3314  0.2619 -0.1658
  252loPI   C6A 4028   4.465  11.590   7.311 -0.0452 -0.0941 -0.2126
  252loPI   C1B 4029   3.379  11.385   9.001 -0.0911 -0.0925 -0.4449
  252loPI   C2B 4030   3.219  11.334   8.509 -0.1368  0.1486  0.0502
  252loPI   C3B 4031   3.321  11.325   8.063 -0.1016 -0.0764  0.3426
  252loPI   C4B 4032   3.204  11.518   7.654  0.1474 -0.0969  0.2386
  253loPI    C1 4033  13.656  10.131  10.229  0.3724 -0.1804 -0.0181
  253loPI    C2 4034  13.884  10.459  10.243  0.1953 -0.0666  0.2902
  253loPI    C3 4035  13.639  10.373  10.547  0.0077 -0.3182  0.0720
  253loPI   PO4 4036  13.556  10.083  10.016  0.1592 -0.0112  0.1908
  253loPI   GL1 4037  13.474  10.013   9.544 -0.2519 -0.0106 -0.1005
  253loPI   GL2 4038  13.248  10.216   9.608 -0.0240 -0.1152 -0.2950
  253loPI   C1A 4039  13.516  10.125   9.162 -0.1360  0.1527  0.1104
  253loPI   C2A 4040  13.699  10.178   8.682 -0.2927  0.0303 -0.0154
  253loPI   C3A 4041  13.870  10.028   8.344  0.0739  0.0125  0.0084
  253loPI   C4A 4042  14.137  10.000   7.987  0.0745 -0.3033 -0.1373
  253loPI   C5A 4043  14.565   9.989   7.764 -0.1481 -0.2353  0.0647
  253loPI   C6A 4044  14.663  10.377   7.423 -0.0250  0.1050 -0.4839
  253loPI   C1B 4045  12.990  10.282   9.171 -0.2739 -0.5277 -0.1723
  253loPI   C2B 4046  13.196  10.149   8.794  0.0987  0.1077 -0.2848
  253loPI   C3B 4047  13.411   9.838   8.464  0.2532 -0.1419 -0.1696
  253loPI   C4B 4048  13.643   9.629   8.040  0.1433 -0.0594 -0.1173
  254loPI    C1 4049   3.044  15.174  10.118 -0.2138 -0.2464  0.0901
  254loPI    C2 4050   3.295  15.367  10.362  0.1635 -0.1470 -0.3616
  254loPI    C3 4051   2.903  15.364  10.441  0.2865 -0.2359  0.3122
  254loPI   PO4 4052   3.194  15.128   9.927  0.0095  0.3029 -0.1163
  254loPI   GL1 4053   3.497  14.854   9.638 -0.1155 -0.0460  0.0108
  254loPI   GL2 4054   3.463  15.192   9.509 -0.1768 -0.1028  0.0723
  254loPI   C1A 4055   3.604  14.819   9.166  0.0237  0.1777  0.0319
  254loPI   C2A 4056   3.528  14.725   8.701 -0.1389 -0.0923  0.0428
  254loPI   C3A 4057   3.642  14.798   8.289  0.1258 -0.1488 -0.0871
  254loPI   C4A 4058   3.808  14.754   7.895 -0.3010 -0.3157  0.2669
  254loPI   C5A 4059   4.077  14.917   7.406  0.3865 -0.1424 -0.1885
  254loPI   C6A 4060   4.349  15.049   7.071  0.0956  0.0596  0.2138
  254loPI   C1B 4061   3.154  15.299   9.172  0.0429  0.0147 -0.2320
  254loPI   C2B 4062   2.994  15.423   8.805 -0.2038 -0.0165 -0.2304
  254loPI   C3B 4063   3.148  15.594   8.430  0.3344  0.1079  0.1725
  254loPI   C4B 4064   3.210  15.516   8.021 -0.1963  0.0202  0.3240
  255loPI    C1 4065   2.433  15.883   9.944 -0.1605 -0.0811  0.0081
  255loPI    C2 4066   2.489  15.721  10.305  0.2779  0.1654  0.0584
  255loPI    C3 4067   2.740  15.634  10.006 -0.0152  0.0528 -0.1598
  255loPI   PO4 4068   2.185  15.858   9.899  0.2290  0.1958 -0.0132
  255loPI   GL1 4069   1.890  15.705   9.621 -0.0780 -0.0872 -0.1628
  255loPI   GL2 4070   1.663  15.481   9.548 -0.2950  0.0176  0.1996
  255loPI   C1A 4071   1.633  15.960   9.351 -0.2552  0.2342 -0.3036
  255loPI   C2A 4072   1.277  15.841   9.079  0.0948 -0.1157 -0.2332
  255loPI   C3A 4073   1.092  15.899   8.695  0.1773 -0.4945  0.2515
  255loPI   C4A 4074   1.023  15.911   8.284  0.1803  0.0561 -0.2445
  255loPI   C5A 4075   1.072  16.046   7.876  0.2831 -0.0036 -0.3066
  255loPI   C6A 4076   1.254  15.869   7.513 -0.0940 -0.1146 -0.1928
  255loPI   C1B 4077   1.691  15.553   9.076  0.1855  0.1539 -0.1205
  255loPI   C2B 4078   1.998  15.818   8.851  0.3233 -0.2179 -0.1202
  255loPI   C3B 4079   2.312  15.976   8.557  0.3968 -0.0702  0.0226
  255loPI   C4B 4080   2.286  16.060   8.062  0.0771 -0.1083 -0.4885
  256loPI    C1 4081  16.607   9.924   9.877 -0.1329  0.1546 -0.0281
  256loPI    C2 4082  16.888   9.960   9.595 -0.0903  0.0768  0.0045
  256loPI    C3 4083  16.993   9.929   9.980 -0.1492  0.2002  0.0310
  256loPI   PO4 4084  16.391  10.147   9.705 -0.1555 -0.0039 -0.1833
  256loPI   GL1 4085  15.958  10.275   9.481 -0.0961 -0.4307 -0.0962
  256loPI   GL2 4086  15.583  10.478   9.550 -0.1424 -0.0036  0.0118
  256loPI   C1A 4087  16.120  10.398   9.093  0.0686 -0.0914  0.2732
  256loPI   C2A 4088  16.162  10.504   8.627 -0.0895 -0.1738  0.2827
  256loPI   C3A 4089  16.180  10.574   8.239  0.1413 -0.4750  0.2467
  256loPI   C4A 4090  16.278  10.801   7.848  0.0430  0.2006 -0.0384
  256loPI   C5A 4091  16.170  11.125   7.538  0.1043 -0.0756 -0.3477
  256loPI   C6A 4092  16.205  11.505   7.618 -0.2054  0.0677 -0.2646
  256loPI   C1B 4093  15.545  10.463   9.155  0.2525 -0.3882 -0.0769
  256loPI   C2B 4094  15.646  10.318   8.845 -0.1687  0.1298  0.0980
  256loPI   C3B 4095  15.725  10.298   8.388 -0.0545 -0.1755 -0.2451
  256loPI   C4B 4096  15.849  10.337   7.970 -0.1572 -0.0924  0.1644
  257loPI    C1 4097  11.933   3.179   9.880 -0.0707 -0.0802  0.0579
  257loPI    C2 4098  11.559   3.318   9.853 -0.2544 -0.5921 -0.1568
  257loPI    C3 4099  11.656   3.061  10.143  0.0686 -0.0780  0.2067
  257loPI   PO4 4100  11.944   3.097   9.544  0.1342  0.0018  0.0832
  257loPI   GL1 4101  12.290   2.865   9.305 -0.6469 -0.0380 -0.2959
  257loPI   GL2 4102  12.700   2.782   9.251 -0.0506 -0.2198  0.2535
  257loPI   C1A 4103  12.101   2.760   8.907 -0.0024 -0.2780 -0.0313
  257loPI   C2A 4104  11.997   2.944   8.504  0.4373  0.3270  0.2558
  257loPI   C3A 4105  12.047   2.907   8.042  0.2127 -0.0505 -0.1795
  257loPI   C4A 4106  11.926   3.266   7.701  0.1332  0.2532 -0.0385
  257loPI   C5A 4107  11.815   3.710   7.596  0.2126  0.0888 -0.2276
  257loPI   C6A 4108  12.009   4.106   7.705 -0.0164 -0.1260  0.1001
  257loPI   C1B 4109  12.558   3.025   8.944 -0.0386 -0.1637  0.1192
  257loPI   C2B 4110  12.505   2.932   8.478 -0.3423  0.0408 -0.2766
  257loPI   C3B 4111  12.632   2.895   8.063  0.2823  0.0213  0.2238
  257loPI   C4B 4112  12.466   3.157   7.680 -0.0183 -0.1551 -0.0040
  258loPI    C1 4113   8.232   9.092   9.654 -0.0139  0.2294  0.2855
  258loPI    C2 4114   8.603   9.086   9.804  0.1651  0.0636 -0.1483
  258loPI    C3 4115   8.335   8.813   9.921  0.2351  0.0699  0.0284
  258loPI   PO4 4116   8.208   9.127   9.338 -0.2515  0.1769  0.1305
  258loPI   GL1 4117   8.047   8.866   9.042 -0.0786  0.1945  0.0552
  258loPI   GL2 4118   7.855   9.105   9.014 -0.0997  0.1000 -0.1662
  258loPI   C1A 4119   7.949   8.700   8.710 -0.3055 -0.2632  0.2860
  258loPI   C2A 4120   7.917   8.752   8.327  0.0833  0.2499 -0.2114
  258loPI   C3A 4121   7.860   8.778   7.918  0.2421  0.0671  0.4196
  258loPI   C4A 4122   7.802   8.741   7.442 -0.0752  0.0964 -0.0598
  258loPI   C5A 4123   7.793   8.319   7.165  0.1750  0.0372 -0.2647
  258loPI   C6A 4124   7.829   8.241   6.706 -0.4007 -0.3398  0.1006
  258loPI   C1B 4125   7.667   9.200   8.629  0.1889  0.0040 -0.0102
  258loPI   C2B 4126   7.643   9.151   8.207  0.0134 -0.2069 -0.1015
  258loPI   C3B 4127   7.534   9.184   7.828  0.0430  0.0207  0.2369
  258loPI   C4B 4128   7.231   9.212   7.396 -0.1140 -0.1281 -0.0371
  259loPI    C1 4129   7.089  13.921  10.330  0.0944 -0.2578 -0.1697
  259loPI    C2 4130   7.489  13.933  10.322  0.0914  0.1287  0.0302
  259loPI    C3 4131   7.295  13.943  10.672 -0.0932 -0.1986 -0.0590
  259loPI   PO4 4132   7.068  14.086  10.015  0.0349 -0.1678  0.2342
  259loPI   GL1 4133   7.078  14.044   9.599  0.1868 -0.0764  0.1167
  259loPI   GL2 4134   7.266  14.048   9.312  0.1010  0.2679  0.2459
  259loPI   C1A 4135   6.933  14.419   9.270  0.0687 -0.0526  0.0542
  259loPI   C2A 4136   6.794  14.489   8.825  0.1844 -0.1248 -0.1269
  259loPI   C3A 4137   6.854  14.675   8.487 -0.0544  0.2177  0.2448
  259loPI   C4A 4138   6.740  14.723   8.034 -0.0612 -0.2790  0.2160
  259loPI   C5A 4139   6.502  14.858   7.582  0.1901  0.0775 -0.0482
  259loPI   C6A 4140   6.570  14.778   7.174  0.0070  0.0658  0.1547
  259loPI   C1B 4141   6.949  14.032   8.990  0.3312 -0.1213 -0.1595
  259loPI   C2B 4142   6.692  14.066   8.600  0.0032  0.1467  0.0622
  259loPI   C3B 4143   6.356  14.412   8.360  0.1597 -0.0069  0.2123
  259loPI   C4B 4144   6.264  14.475   7.972 -0.2985 -0.0914  0.2816
  260loPI    C1 4145   9.657   3.135  10.122 -0.0225 -0.0234  0.0086
  260loPI    C2 4146   9.677   3.276  10.495 -0.0670 -0.2709  0.1065
  260loPI    C3 4147   9.430   2.974  10.409 -0.1485 -0.1332 -0.1511
  260loPI   PO4 4148   9.558   3.303   9.841  0.3402 -0.0699 -0.0415
  260loPI   GL1 4149   9.527   3.119   9.470 -0.3532 -0.1617 -0.1740
  260loPI   GL2 4150   9.451   3.002   9.253 -0.4513 -0.0412  0.0811
  260loPI   C1A 4151   9.696   3.366   9.046 -0.2172  0.2973 -0.2705
  260loPI   C2A 4152   9.726   3.377   8.666  0.1033  0.3433 -0.0107
  260loPI   C3A 4153   9.635   3.220   8.254  0.0209  0.2295 -0.0889
  260loPI   C4A 4154   9.709   3.190   7.911 -0.1622 -0.0470 -0.2080
  260loPI   C5A 4155   9.949   2.946   7.613  0.0139 -0.2059 -0.4831
  260loPI   C6A 4156  10.009   3.000   7.239  0.0908 -0.1108  0.3733
  260loPI   C1B 4157   9.474   2.979   8.770 -0.0215 -0.1802 -0.2281
  260loPI   C2B 4158   9.264   2.887   8.371  0.2249 -0.0743 -0.0793
  260loPI   C3B 4159   9.001   3.082   8.075 -0.1480  0.2596 -0.0928
  260loPI   C4B 4160   8.906   3.138   7.602 -0.0844 -0.1030  0.0079
  261loPI    C1 4161  12.094   6.459   9.233 -0.0650 -0.3458 -0.1424
  261loPI    C2 4162  11.869   6.652   8.965  0.0998  0.1285  0.0514
  261loPI    C3 4163  11.738   6.608   9.341  0.1274 -0.0091  0.0450
  261loPI   PO4 4164  12.171   6.288   9.095 -0.1379  0.1472 -0.1088
  261loPI   GL1 4165  12.171   6.362   8.668 -0.2289 -0.0771  0.1286
  261loPI   GL2 4166  11.928   6.120   8.616  0.0522  0.2450  0.1699
  261loPI   C1A 4167  12.397   6.374   8.359  0.1472  0.1355 -0.0632
  261loPI   C2A 4168  12.588   6.600   8.056  0.1224  0.2202  0.0352
  261loPI   C3A 4169  12.947   6.452   7.887  0.0348 -0.1698  0.0468
  261loPI   C4A 4170  13.202   6.104   7.654 -0.3638 -0.1600  0.2372
  261loPI   C5A 4171  13.278   5.811   7.357 -0.0024 -0.0682  0.1774
  261loPI   C6A 4172  13.516   5.912   6.910  0.1835  0.1718 -0.1656
  261loPI   C1B 4173  11.753   6.355   8.383  0.0116  0.0477 -0.3935
  261loPI   C2B 4174  12.013   6.665   8.215 -0.0221  0.1682  0.0095
  261loPI   C3B 4175  12.088   7.018   7.914  0.0098 -0.3431  0.0510
  261loPI   C4B 4176  12.042   6.825   7.497  0.2561  0.0332  0.1041
  262loPI    C1 4177   0.139  16.823  10.513 -0.0907 -0.3047  0.3250
  262loPI    C2 4178   0.487  17.005  10.588 -0.1514  0.0548 -0.2119
  262loPI    C3 4179   0.181  17.044  10.843 -0.0177  0.3243 -0.0891
  262loPI   PO4 4180   0.127  16.877  10.153 -0.0549  0.0312  0.3544
  262loPI   GL1 4181   0.229  16.763   9.757 -0.4043  0.0544 -0.1505
  262loPI   GL2 4182   0.546  16.589   9.798  0.1077 -0.1459 -0.2554
  262loPI   C1A 4183   0.413  16.877   9.391  0.0834 -0.0166  0.1117
  262loPI   C2A 4184   0.667  16.829   9.007 -0.0204  0.0527  0.0157
  262loPI   C3A 4185   0.752  16.785   8.554  0.1475 -0.3132  0.2234
  262loPI   C4A 4186   0.713  16.859   8.140 -0.2824  0.0660  0.0138
  262loPI   C5A 4187   0.728  17.056   7.717 -0.1220 -0.1673 -0.0077
  262loPI   C6A 4188   0.453  17.257   7.490 -0.1566 -0.0383 -0.0997
  262loPI   C1B 4189   0.657  16.408   9.470 -0.0098 -0.0766  0.2527
  262loPI   C2B 4190   0.459  16.361   9.054  0.1792 -0.2733  0.2653
  262loPI   C3B 4191   0.365  16.402   8.678 -0.0060  0.1117 -0.1316
  262loPI   C4B 4192   0.328  16.623   8.272 -0.0619  0.1524  0.1172
  263loPI    C1 4193   8.279  12.569   9.755 -0.0021  0.0201 -0.0774
  263loPI    C2 4194   8.379  12.254   9.980 -0.0666 -0.0249 -0.1114
  263loPI    C3 4195   7.994  12.336   9.911 -0.0569  0.1796  0.0640
  263loPI   PO4 4196   8.391  12.512   9.458  0.2001  0.1535 -0.1475
  263loPI   GL1 4197   8.254  12.671   9.130  0.0630 -0.2086  0.1316
  263loPI   GL2 4198   8.471  12.801   9.048  0.0148  0.1218 -0.0920
  263loPI   C1A 4199   8.471  12.536   8.656 -0.1460 -0.0467 -0.0271
  263loPI   C2A 4200   8.462  12.407   8.196 -0.1334 -0.2655 -0.0069
  263loPI   C3A 4201   8.740  12.351   7.816  0.0397 -0.0695 -0.0557
  263loPI   C4A 4202   8.941  12.181   7.503 -0.2439  0.0148 -0.0797
  263loPI   C5A 4203   9.111  12.008   7.148  0.1141 -0.0137  0.0747
  263loPI   C6A 4204   9.412  11.939   6.860  0.0235  0.1940  0.1322
  263loPI   C1B 4205   8.185  12.916   8.664  0.0512 -0.0528 -0.0158
  263loPI   C2B 4206   8.146  12.790   8.283 -0.3767 -0.0521  0.2517
  263loPI   C3B 4207   8.150  12.577   7.789 -0.0112  0.0684  0.0991
  263loPI   C4B 4208   8.057  12.733   7.433 -0.2071  0.0581  0.0477
  264loPI    C1 4209   3.417   4.505   9.977  0.3418  0.2376  0.1282
  264loPI    C2 4210   3.076   4.606  10.159 -0.0000 -0.2704 -0.2067
  264loPI    C3 4211   3.424   4.645  10.352 -0.2660  0.0170  0.2329
  264loPI   PO4 4212   3.305   4.632   9.714 -0.2826 -0.1932 -0.0328
  264loPI   GL1 4213   3.240   4.695   9.254 -0.0768  0.2847  0.1408
  264loPI   GL2 4214   3.514   4.596   9.120  0.1096  0.3428  0.1755
  264loPI   C1A 4215   3.180   4.915   8.883  0.0972 -0.1357 -0.0360
  264loPI   C2A 4216   2.902   4.979   8.656 -0.0119  0.0622 -0.0711
  264loPI   C3A 4217   2.894   4.686   8.284  0.1077  0.2525  0.1939
  264loPI   C4A 4218   2.867   4.381   7.914 -0.0731  0.0677  0.1091
  264loPI   C5A 4219   2.855   4.261   7.479  0.1937  0.1913  0.2856
  264loPI   C6A 4220   3.113   4.483   7.141  0.3153  0.2236  0.2851
  264loPI   C1B 4221   3.559   4.262   8.752 -0.0736  0.2183  0.1651
  264loPI   C2B 4222   3.342   4.153   8.270 -0.2974 -0.1642 -0.1433
  264loPI   C3B 4223   3.243   4.011   7.903  0.0454 -0.0661 -0.1979
  264loPI   C4B 4224   3.008   3.680   7.612 -0.1883  0.1870  0.3171
  265loPI    C1 4225  16.393  13.223  10.087  0.1379 -0.0440 -0.0449
  265loPI    C2 4226  16.674  13.425  10.289  0.0952 -0.0612  0.0322
  265loPI    C3 4227  16.325  13.338  10.464  0.0343 -0.0238 -0.0696
  265loPI   PO4 4228  16.401  13.252   9.895  0.3045  0.1736  0.0707
  265loPI   GL1 4229  16.454  13.124   9.472  0.1243 -0.0974 -0.0789
  265loPI   GL2 4230  16.267  12.804   9.479 -0.0565  0.1965  0.4976
  265loPI   C1A 4231  16.440  12.944   9.045 -0.1506 -0.1326 -0.0450
  265loPI   C2A 4232  16.257  12.929   8.605  0.0089 -0.0899 -0.2076
  265loPI   C3A 4233  16.450  13.033   8.277 -0.1909  0.0111  0.2305
  265loPI   C4A 4234  16.644  12.914   7.919 -0.0139  0.0028  0.1182
  265loPI   C5A 4235  16.619  12.700   7.576 -0.0304 -0.1840  0.2404
  265loPI   C6A 4236  16.498  12.498   7.250  0.1474 -0.0525 -0.0205
  265loPI   C1B 4237  16.010  12.985   9.261 -0.0291 -0.2196 -0.3816
  265loPI   C2B 4238  15.905  13.102   8.959  0.0169  0.0717 -0.2162
  265loPI   C3B 4239  15.798  13.217   8.578 -0.2607 -0.0351  0.0343
  265loPI   C4B 4240  16.001  13.380   8.216  0.2793 -0.1409  0.0064
  266loPI    C1 4241   8.846  18.121   9.835  0.2048 -0.0376  0.0741
  266loPI    C2 4242   8.676  18.420  10.040 -0.1232 -0.0302 -0.1999
  266loPI    C3 4243   8.567  18.042  10.111  0.1617 -0.0739  0.0203
  266loPI   PO4 4244   8.797  18.177   9.556  0.1892 -0.4099 -0.2907
  266loPI   GL1 4245   8.660  18.369   9.216 -0.0234 -0.1383 -0.0850
  266loPI   GL2 4246   8.369  18.580   9.124 -0.0149  0.0072 -0.0123
  266loPI   C1A 4247   8.889  18.473   8.912  0.2232  0.3592  0.2070
  266loPI   C2A 4248   9.126  18.582   8.632  0.2388  0.0341  0.3224
  266loPI   C3A 4249   9.431  18.707   8.499  0.4593  0.0236 -0.1164
  266loPI   C4A 4250   9.318  18.623   8.069 -0.0664 -0.3356  0.0569
  266loPI   C5A 4251   9.256  18.589   7.599 -0.2803  0.2244  0.1031
  266loPI   C6A 4252   8.948  18.844   7.310  0.3275  0.0796 -0.2435
  266loPI   C1B 4253   8.430  18.591   8.665 -0.0002 -0.1748 -0.2207
  266loPI   C2B 4254   8.745  18.632   8.327  0.2493 -0.1495 -0.1096
  266loPI   C3B 4255   8.852  18.572   7.914 -0.1681  0.1490  0.2253
  266loPI   C4B 4256   8.686  18.382   7.485 -0.0139  0.3865  0.0940
  267loPI    C1 4257  10.653   0.201  10.057 -0.0640 -0.0533 -0.1756
  267loPI    C2 4258  10.732   0.593  10.033  0.1079 -0.0887 -0.2025
  267loPI    C3 4259  10.486   0.456  10.317 -0.2305  0.0783 -0.4075
  267loPI   PO4 4260  10.598   0.096   9.713  0.1641  0.0297 -0.1810
  267loPI   GL1 4261  10.728   0.356   9.318  0.0344  0.0851 -0.1434
  267loPI   GL2 4262  10.626  -0.038   9.196 -0.3573  0.3773  0.1417
  267loPI   C1A 4263  10.624   0.331   8.880  0.0640 -0.1006  0.3950
  267loPI   C2A 4264  10.427   0.114   8.535 -0.1207  0.0546  0.1432
  267loPI   C3A 4265  10.235   0.234   8.252 -0.0764  0.3389 -0.1441
  267loPI   C4A 4266   9.932   0.008   8.103 -0.2352 -0.1977  0.2190
  267loPI   C5A 4267   9.638  -0.088   7.839 -0.0016 -0.1805  0.1655
  267loPI   C6A 4268   9.459  -0.207   7.507 -0.0327 -0.3530 -0.2373
  267loPI   C1B 4269  10.864  -0.107   8.802 -0.0988  0.3359  0.0632
  267loPI   C2B 4270  11.032  -0.142   8.351 -0.0955 -0.1229 -0.0016
  267loPI   C3B 4271  11.004  -0.240   7.911  0.0955 -0.1513  0.2199
  267loPI   C4B 4272  10.862  -0.471   7.604  0.4165  0.2248 -0.4380
  268loPI    C1 4273   9.750  10.283   9.829 -0.1789  0.0979 -0.0972
  268loPI    C2 4274  10.026  10.097  10.051 -0.1451 -0.0882 -0.2921
  268loPI    C3 4275   9.651  10.131  10.185 -0.0467  0.1018 -0.0584
  268loPI   PO4 4276   9.762  10.212   9.590 -0.4459  0.2634  0.0746
  268loPI   GL1 4277   9.668   9.906   9.261 -0.0059 -0.1901 -0.0970
  268loPI   GL2 4278   9.370   9.998   9.055 -0.3283 -0.0582  0.2747
  268loPI   C1A 4279   9.723  10.320   8.929 -0.1717  0.1632 -0.1837
  268loPI   C2A 4280   9.831  10.395   8.589  0.0021  0.2438 -0.2663
  268loPI   C3A 4281  10.003  10.534   8.278 -0.0178 -0.1524  0.0876
  268loPI   C4A 4282  10.105  10.416   7.868  0.3101 -0.1145  0.1390
  268loPI   C5A 4283  10.333  10.442   7.454 -0.1676 -0.2657  0.0788
  268loPI   C6A 4284  10.537  10.815   7.299 -0.0533  0.0531  0.1201
  268loPI   C1B 4285   9.447  10.089   8.550 -0.1161  0.1660 -0.0575
  268loPI   C2B 4286   9.508  10.390   8.181  0.0145 -0.1624 -0.0081
  268loPI   C3B 4287   9.629  10.731   7.907  0.0227  0.1018  0.1321
  268loPI   C4B 4288   9.519  10.734   7.433  0.1492  0.1741  0.0784
  269loPI    C1 4289   5.091   2.828   9.958 -0.0679  0.2462 -0.2522
  269loPI    C2 4290   4.824   2.535  10.009  0.2478 -0.0041  0.0086
  269loPI    C3 4291   5.012   2.691  10.325  0.5659  0.0193 -0.1875
  269loPI   PO4 4292   5.134   2.884   9.699 -0.1409  0.1718  0.0967
  269loPI   GL1 4293   5.184   2.816   9.296 -0.1507 -0.1646  0.0225
  269loPI   GL2 4294   5.498   2.785   9.167 -0.1037  0.3903 -0.0037
  269loPI   C1A 4295   4.976   2.998   8.930  0.1006  0.0849  0.0699
  269loPI   C2A 4296   4.907   3.083   8.415 -0.0989 -0.1806 -0.0402
  269loPI   C3A 4297   4.875   3.274   8.021  0.1524 -0.1590  0.1271
  269loPI   C4A 4298   4.933   3.459   7.623 -0.1179  0.0375  0.3828
  269loPI   C5A 4299   4.727   3.525   7.168 -0.1026  0.1198 -0.1400
  269loPI   C6A 4300   4.988   3.808   6.848 -0.3014  0.0599 -0.1132
  269loPI   C1B 4301   5.433   2.843   8.696 -0.0530 -0.0706  0.0862
  269loPI   C2B 4302   5.359   2.916   8.242 -0.0185  0.1209 -0.1949
  269loPI   C3B 4303   5.265   2.959   7.841 -0.1936 -0.4898  0.1250
  269loPI   C4B 4304   5.175   3.053   7.386 -0.1479  0.0472  0.0265
  270loPI    C1 4305   2.774  19.067   9.549 -0.0879  0.0595  0.1389
  270loPI    C2 4306   2.619  18.993   9.910 -0.1259  0.0529  0.1213
  270loPI    C3 4307   2.969  19.185   9.877 -0.0925 -0.0006  0.1634
  270loPI   PO4 4308   2.602  19.083   9.411 -0.0211  0.0358 -0.0661
  270loPI   GL1 4309   2.337  18.928   9.232  0.1406 -0.2965  0.2832
  270loPI   GL2 4310   1.975  18.771   9.331  0.5120  0.2337 -0.0743
  270loPI   C1A 4311   2.421  18.985   8.838  0.3064  0.1038  0.1030
  270loPI   C2A 4312   2.545  19.080   8.366 -0.1579  0.1853 -0.1355
  270loPI   C3A 4313   2.848  18.958   8.016  0.4216 -0.0036  0.4331
  270loPI   C4A 4314   3.144  18.805   7.828  0.2688  0.0853 -0.3420
  270loPI   C5A 4315   3.244  18.609   7.420 -0.0599  0.1404 -0.3235
  270loPI   C6A 4316   3.288  18.567   7.012 -0.0580  0.4374 -0.0237
  270loPI   C1B 4317   1.900  18.748   8.803 -0.1461  0.2017 -0.2437
  270loPI   C2B 4318   1.644  18.684   8.392  0.2209 -0.4398 -0.3259
  270loPI   C3B 4319   1.410  18.561   7.997 -0.0264 -0.1145 -0.0875
  270loPI   C4B 4320   1.275  18.272   7.553  0.2975  0.4983 -0.0066
  271loPI    C1 4321  13.104   3.839   9.705  0.0254  0.3232  0.0303
  271loPI    C2 4322  13.497   3.776   9.751  0.0125  0.1577 -0.0767
  271loPI    C3 4323  13.258   3.795  10.071  0.0910  0.1463 -0.0172
  271loPI   PO4 4324  13.105   3.718   9.395  0.0536 -0.0632  0.2776
  271loPI   GL1 4325  12.809   3.670   9.215 -0.0501  0.2645  0.1075
  271loPI   GL2 4326  12.695   3.859   9.027  0.2670  0.2360 -0.2359
  271loPI   C1A 4327  13.132   3.744   8.768 -0.2210 -0.0257 -0.4080
  271loPI   C2A 4328  13.132   3.629   8.368  0.2183 -0.0367  0.4590
  271loPI   C3A 4329  12.958   3.272   8.050  0.2539 -0.2703  0.3345
  271loPI   C4A 4330  12.968   2.991   7.672 -0.1264 -0.0353 -0.0083
  271loPI   C5A 4331  13.190   2.670   7.456  0.0834  0.1266 -0.2671
  271loPI   C6A 4332  13.292   2.251   7.614 -0.3553  0.3348 -0.1223
  271loPI   C1B 4333  12.352   3.808   8.817 -0.1899  0.1096 -0.1891
  271loPI   C2B 4334  12.130   3.756   8.467 -0.3185  0.3451 -0.0894
  271loPI   C3B 4335  11.987   4.059   8.185  0.0870 -0.1410  0.0514
  271loPI   C4B 4336  11.682   4.409   8.084 -0.1336  0.3993  0.3226
  272loPI    C1 4337  18.768   8.417   9.987 -0.0073 -0.1755  0.0537
  272loPI    C2 4338  18.405   8.332  10.130 -0.0031  0.0115  0.1808
  272loPI    C3 4339  18.728   8.272  10.357  0.0495 -0.1756  0.0598
  272loPI   PO4 4340  18.613   8.305   9.690  0.0448  0.1978  0.1357
  272loPI   GL1 4341  18.812   8.282   9.239  0.0516 -0.0658 -0.2436
  272loPI   GL2 4342  19.115   8.234   9.168 -0.0491 -0.2137 -0.2383
  272loPI   C1A 4343  18.854   8.406   8.798 -0.3287  0.1399  0.1754
  272loPI   C2A 4344  18.673   8.464   8.377  0.4687 -0.2491 -0.1787
  272loPI   C3A 4345  18.618   8.520   7.958 -0.0978 -0.1535  0.1481
  272loPI   C4A 4346  18.569   8.661   7.668  0.0204 -0.1655 -0.4655
  272loPI   C5A 4347  18.754   8.845   7.378 -0.2506 -0.0078 -0.0108
  272loPI   C6A 4348  18.638   8.778   6.976  0.0480  0.1909  0.2117
  272loPI   C1B 4349  19.362   8.236   8.696  0.1381 -0.3039  0.0586
  272loPI   C2B 4350  19.520   8.437   8.201  0.0150  0.1283  0.0285
  272loPI   C3B 4351  19.559   8.477   7.674 -0.3159  0.0213 -0.2418
  272loPI   C4B 4352  19.503   8.338   7.263  0.0897 -0.3000  0.0814
  273loPI    C1 4353   6.027   3.793   9.694  0.0512 -0.3388  0.0578
  273loPI    C2 4354   6.205   3.712  10.042  0.1833 -0.1997  0.0240
  273loPI    C3 4355   5.891   3.960  10.031  0.2487 -0.1162  0.0303
  273loPI   PO4 4356   6.260   3.813   9.507  0.0009 -0.0633  0.2648
  273loPI   GL1 4357   6.213   3.758   9.123  0.0893  0.0419  0.0809
  273loPI   GL2 4358   6.162   3.425   9.160  0.1521 -0.3024  0.1029
  273loPI   C1A 4359   6.190   3.949   8.694  0.0221 -0.2089 -0.0993
  273loPI   C2A 4360   6.039   3.981   8.259  0.0181 -0.1837  0.0459
  273loPI   C3A 4361   6.052   3.934   7.802 -0.0661 -0.1174 -0.6038
  273loPI   C4A 4362   5.808   3.880   7.419  0.3189 -0.0555  0.0022
  273loPI   C5A 4363   5.642   3.880   7.071 -0.1043 -0.1222 -0.0422
  273loPI   C6A 4364   5.268   4.202   6.970  0.1580  0.1667 -0.1316
  273loPI   C1B 4365   6.060   3.437   8.666  0.0246 -0.0315  0.1625
  273loPI   C2B 4366   6.093   3.475   8.284  0.2405 -0.0474 -0.1621
  273loPI   C3B 4367   6.203   3.431   7.834  0.0201 -0.0503 -0.2128
  273loPI   C4B 4368   6.087   3.452   7.496 -0.0634 -0.2043 -0.1135
  274loPI    C1 4369   5.503   8.021   9.707 -0.2667 -0.1773 -0.1118
  274loPI    C2 4370   5.587   7.841  10.054 -0.1182  0.0633 -0.0207
  274loPI    C3 4371   5.677   8.227  10.002 -0.1494  0.0321 -0.3240
  274loPI   PO4 4372   5.637   7.799   9.543 -0.0482  0.1647 -0.0268
  274loPI   GL1 4373   5.580   7.662   9.082 -0.3001  0.2221  0.1455
  274loPI   GL2 4374   5.815   7.908   9.063  0.1547 -0.1026  0.0541
  274loPI   C1A 4375   5.672   7.704   8.555 -0.1164  0.0572  0.2954
  274loPI   C2A 4376   5.504   7.890   8.281  0.0830 -0.1105 -0.1509
  274loPI   C3A 4377   5.370   8.146   7.967 -0.1246 -0.0077 -0.1558
  274loPI   C4A 4378   5.213   8.251   7.527 -0.1441  0.0393 -0.0879
  274loPI   C5A 4379   4.859   8.081   7.113  0.0960  0.2058  0.0058
  274loPI   C6A 4380   4.600   7.809   6.928  0.1714 -0.3604  0.1421
  274loPI   C1B 4381   6.025   7.524   8.926  0.2348 -0.2282  0.0838
  274loPI   C2B 4382   5.963   7.260   8.653  0.0629  0.1817  0.0594
  274loPI   C3B 4383   5.777   7.294   8.242 -0.0701  0.0085  0.0988
  274loPI   C4B 4384   5.794   7.211   7.881  0.0118 -0.0720  0.1840
  275loPI    C1 4385  10.026   7.314   9.439 -0.0078 -0.1765  0.0379
  275loPI    C2 4386  10.077   7.243   9.829 -0.3465 -0.0682  0.1056
  275loPI    C3 4387  10.242   7.566   9.662 -0.2219 -0.1010  0.1639
  275loPI   PO4 4388  10.078   7.120   9.237  0.2757  0.0666 -0.4739
  275loPI   GL1 4389   9.975   7.073   8.823  0.2398  0.2017 -0.3009
  275loPI   GL2 4390   9.720   7.396   8.933 -0.0678 -0.0767 -0.1419
  275loPI   C1A 4391  10.108   7.418   8.588  0.0945 -0.0949 -0.0249
  275loPI   C2A 4392  10.122   7.747   8.330  0.2571  0.0684  0.1380
  275loPI   C3A 4393  10.257   8.028   8.048 -0.3788 -0.0021 -0.1394
  275loPI   C4A 4394  10.299   8.216   7.694  0.2568  0.2676 -0.2282
  275loPI   C5A 4395   9.982   8.199   7.278  0.2176  0.2917  0.2745
  275loPI   C6A 4396   9.651   8.384   7.031  0.6205  0.0423  0.0640
  275loPI   C1B 4397   9.622   7.489   8.573 -0.1523  0.0975 -0.1878
  275loPI   C2B 4398   9.651   7.626   8.210  0.1280 -0.2085  0.2547
  275loPI   C3B 4399   9.493   7.793   7.861 -0.1254 -0.0052 -0.0025
  275loPI   C4B 4400   9.135   7.819   7.662  0.2763 -0.0441 -0.0116
  276loPI    C1 4401  15.721  15.882  10.659  0.0988 -0.3809  0.0214
  276loPI    C2 4402  16.111  15.971  10.668  0.1202 -0.4702 -0.0101
  276loPI    C3 4403  15.897  15.977  11.006  0.0840 -0.1403 -0.0351
  276loPI   PO4 4404  15.560  16.019  10.545 -0.4531 -0.2236 -0.0050
  276loPI   GL1 4405  15.655  16.267  10.188 -0.1917 -0.0315  0.0787
  276loPI   GL2 4406  15.711  16.568   9.999 -0.1709 -0.1482 -0.1136
  276loPI   C1A 4407  15.851  16.076   9.751 -0.1106  0.1401  0.1118
  276loPI   C2A 4408  15.822  16.010   9.342 -0.0995  0.0525 -0.0895
  276loPI   C3A 4409  15.812  15.936   8.955 -0.0331  0.3568 -0.0740
  276loPI   C4A 4410  15.692  15.667   8.677  0.1016 -0.2282  0.2644
  276loPI   C5A 4411  15.603  15.762   8.284 -0.2623 -0.1219  0.0462
  276loPI   C6A 4412  15.875  15.754   7.889 -0.4530 -0.1185  0.3044
  276loPI   C1B 4413  15.642  16.909   9.588 -0.2111 -0.3953 -0.0958
  276loPI   C2B 4414  15.669  17.200   9.166  0.2467  0.1413  0.1398
  276loPI   C3B 4415  15.774  17.362   8.782 -0.0835 -0.1841 -0.0099
  276loPI   C4B 4416  16.008  17.691   8.598  0.4698  0.1867  0.0111
  277loPI    C1 4417   8.867  17.623  10.063 -0.1593 -0.1809  0.0336
  277loPI    C2 4418   9.079  17.571  10.398 -0.1829  0.1045  0.0955
  277loPI    C3 4419   8.700  17.695  10.419 -0.2350 -0.0306 -0.0314
  277loPI   PO4 4420   9.004  17.426   9.788 -0.1211  0.4036  0.1593
  277loPI   GL1 4421   9.028  17.506   9.368 -0.0435  0.2149 -0.3209
  277loPI   GL2 4422   8.907  17.758   9.408 -0.0713 -0.1827  0.3402
  277loPI   C1A 4423   9.090  17.320   8.973 -0.0093  0.1234  0.0144
  277loPI   C2A 4424   9.309  17.252   8.667 -0.0133 -0.1065  0.1778
  277loPI   C3A 4425   9.509  17.347   8.359 -0.3360  0.1014 -0.2567
  277loPI   C4A 4426   9.457  17.693   8.099 -0.0586  0.0745  0.7113
  277loPI   C5A 4427   9.390  17.740   7.685 -0.2033 -0.2296 -0.1918
  277loPI   C6A 4428   9.695  17.484   7.306  0.0166 -0.2163 -0.0550
  277loPI   C1B 4429   8.655  17.532   9.015  0.1003  0.1907  0.0363
  277loPI   C2B 4430   8.303  17.565   8.654  0.2004 -0.1389  0.0729
  277loPI   C3B 4431   8.174  17.310   8.308  0.4171  0.1227  0.1644
  277loPI   C4B 4432   8.586  17.157   8.114 -0.0061 -0.0567 -0.0035
  278loPI    C1 4433  15.069   2.571   9.474 -0.2066  0.1723  0.1755
  278loPI    C2 4434  15.403   2.363   9.547 -0.2514  0.0402  0.0097
  278loPI    C3 4435  15.285   2.648   9.802  0.0308  0.1432  0.0287
  278loPI   PO4 4436  15.127   2.646   9.159 -0.1447 -0.0757 -0.1374
  278loPI   GL1 4437  14.842   2.783   8.907  0.3828  0.1875  0.1549
  278loPI   GL2 4438  14.685   2.468   8.835 -0.1886  0.1194  0.1270
  278loPI   C1A 4439  14.887   2.735   8.485 -0.1732  0.0942 -0.0608
  278loPI   C2A 4440  14.776   2.863   8.056 -0.0442  0.0471 -0.1097
  278loPI   C3A 4441  14.586   2.759   7.636  0.2215 -0.0905 -0.0376
  278loPI   C4A 4442  14.622   2.931   7.240 -0.0171 -0.0913 -0.0620
  278loPI   C5A 4443  14.691   2.697   6.902 -0.2183 -0.0401 -0.3852
  278loPI   C6A 4444  14.672   2.386   6.474  0.0610  0.2758  0.0683
  278loPI   C1B 4445  14.517   2.335   8.452  0.1966  0.1117  0.1030
  278loPI   C2B 4446  14.687   2.376   8.132 -0.0436  0.2271 -0.1323
  278loPI   C3B 4447  14.897   2.417   7.788 -0.2872  0.0018  0.0502
  278loPI   C4B 4448  14.898   2.423   7.368  0.2252  0.0623  0.1669
  279loPI    C1 4449   1.877  16.981  10.293 -0.0980  0.2869 -0.0078
  279loPI    C2 4450   1.758  16.833  10.645 -0.2051 -0.1889 -0.2360
  279loPI    C3 4451   2.087  16.689  10.469 -0.1267  0.0782 -0.3118
  279loPI   PO4 4452   1.732  16.879  10.083 -0.0501 -0.0395 -0.0874
  279loPI   GL1 4453   1.871  16.963   9.652  0.1706 -0.3025 -0.2384
  279loPI   GL2 4454   1.906  17.192   9.494  0.0431 -0.0166  0.1405
  279loPI   C1A 4455   1.832  16.732   9.315 -0.1040 -0.0290  0.2612
  279loPI   C2A 4456   1.748  16.715   8.871 -0.2293 -0.4452  0.0738
  279loPI   C3A 4457   1.743  16.708   8.414  0.3273 -0.2845 -0.1699
  279loPI   C4A 4458   1.588  16.778   7.946 -0.0858  0.0503  0.0763
  279loPI   C5A 4459   1.349  17.064   7.653 -0.1026 -0.2837  0.2007
  279loPI   C6A 4460   1.241  17.157   7.245  0.0191 -0.0127 -0.2240
  279loPI   C1B 4461   1.631  17.177   9.092  0.3450 -0.0362  0.1041
  279loPI   C2B 4462   1.560  17.099   8.611 -0.0928  0.1059  0.6116
  279loPI   C3B 4463   1.626  17.214   8.264 -0.0170 -0.3494  0.1372
  279loPI   C4B 4464   1.671  17.373   7.881 -0.2874 -0.2482  0.1353
  280loPI    C1 4465  17.118   0.645   9.805  0.0583 -0.1367 -0.0498
  280loPI    C2 4466  17.310   0.887  10.059 -0.0700  0.1001 -0.1740
  280loPI    C3 4467  17.438   0.511  10.004  0.0855  0.1134  0.0785
  280loPI   PO4 4468  17.070   0.758   9.585  0.1497 -0.1028  0.1263
  280loPI   GL1 4469  17.208   1.066   9.355  0.2557  0.2817 -0.1894
  280loPI   GL2 4470  17.353   1.386   9.400  0.1661 -0.0618 -0.3166
  280loPI   C1A 4471  17.295   0.818   8.945 -0.0614 -0.2126 -0.1169
  280loPI   C2A 4472  17.289   0.888   8.497  0.1479  0.0123  0.0731
  280loPI   C3A 4473  17.236   0.831   8.120 -0.2960 -0.0076 -0.0243
  280loPI   C4A 4474  17.152   0.978   7.699  0.1648 -0.3027 -0.5250
  280loPI   C5A 4475  17.025   1.016   7.256 -0.1830 -0.1263  0.0215
  280loPI   C6A 4476  16.939   1.019   6.835  0.2340  0.1736  0.1718
  280loPI   C1B 4477  17.405   1.350   8.892  0.1306 -0.2204  0.1225
  280loPI   C2B 4478  17.483   1.422   8.491 -0.1947 -0.0114 -0.1220
  280loPI   C3B 4479  17.528   1.374   8.051  0.1932 -0.0024  0.0031
  280loPI   C4B 4480  17.522   1.529   7.681 -0.1826 -0.3745 -0.3485
  281loPI    C1 4481  16.401   3.074   9.707  0.0533  0.0046 -0.0890
  281loPI    C2 4482  16.392   3.416   9.915 -0.0686  0.1598 -0.3451
  281loPI    C3 4483  16.218   3.088  10.063  0.1940  0.1618 -0.0212
  281loPI   PO4 4484  16.561   3.150   9.491 -0.3374 -0.0956 -0.0718
  281loPI   GL1 4485  16.612   2.833   9.239 -0.1766  0.0802  0.0385
  281loPI   GL2 4486  16.727   2.499   9.133  0.1229  0.1894  0.2425
  281loPI   C1A 4487  16.458   3.034   8.807  0.1399 -0.1722 -0.2261
  281loPI   C2A 4488  16.309   2.941   8.369 -0.2116  0.1990 -0.0501
  281loPI   C3A 4489  16.109   2.745   7.977  0.1028  0.0354 -0.2945
  281loPI   C4A 4490  16.278   2.815   7.621 -0.0821  0.0893  0.3038
  281loPI   C5A 4491  16.522   3.171   7.431 -0.2724 -0.0732 -0.2408
  281loPI   C6A 4492  16.423   3.541   7.296  0.1684 -0.0901  0.0077
  281loPI   C1B 4493  17.025   2.752   8.869  0.2939 -0.1469  0.1261
  281loPI   C2B 4494  17.081   3.262   8.751 -0.1658 -0.2077  0.0693
  281loPI   C3B 4495  17.342   3.594   8.647 -0.0315 -0.4066  0.1536
  281loPI   C4B 4496  17.223   3.893   8.338  0.0489 -0.1891 -0.1547
  282loPI    C1 4497   1.267  15.525  10.129 -0.2507 -0.2038 -0.3657
  282loPI    C2 4498   1.653  15.561  10.030 -0.1628  0.1650  0.0720
  282loPI    C3 4499   1.379  15.794   9.855 -0.1704  0.0033 -0.1347
  282loPI   PO4 4500   1.137  15.341  10.083  0.1081 -0.4815 -0.1183
  282loPI   GL1 4501   1.143  15.201   9.684  0.2068  0.1323  0.1474
  282loPI   GL2 4502   1.139  15.518   9.507  0.1649 -0.1378 -0.1467
  282loPI   C1A 4503   1.104  14.966   9.222  0.4032  0.2169 -0.0261
  282loPI   C2A 4504   0.944  14.908   8.887 -0.1563 -0.1853 -0.1815
  282loPI   C3A 4505   0.975  15.015   8.390 -0.2614  0.1484 -0.2620
  282loPI   C4A 4506   0.953  14.983   7.943 -0.0355  0.0504 -0.2539
  282loPI   C5A 4507   0.978  14.858   7.555  0.0041  0.1540 -0.1423
  282loPI   C6A 4508   1.309  14.686   7.340  0.2064  0.1616  0.0298
  282loPI   C1B 4509   1.198  15.413   8.988 -0.2053 -0.0089  0.5746
  282loPI   C2B 4510   1.318  15.445   8.568 -0.0631 -0.0081  0.1808
  282loPI   C3B 4511   1.197  15.393   8.114  0.3347 -0.0264  0.1193
  282loPI   C4B 4512   1.043  15.399   7.719  0.1519  0.0585 -0.1185
  283loPI    C1 4513   5.014  19.203   9.525 -0.2105  0.1844 -0.0106
  283loPI    C2 4514   5.179  19.082   9.869  0.1326 -0.0415 -0.2478
  283loPI    C3 4515   5.026  19.451   9.840  0.0110 -0.0529  0.1721
  283loPI   PO4 4516   5.019  18.926   9.380 -0.2712  0.1873 -0.1523
  283loPI   GL1 4517   4.854  19.109   8.984  0.2884 -0.1687  0.1820
  283loPI   GL2 4518   4.733  18.831   8.995  0.1527  0.0220 -0.0911
  283loPI   C1A 4519   5.143  19.093   8.738  0.2000  0.0700  0.2780
  283loPI   C2A 4520   5.348  18.832   8.389 -0.2598  0.0993 -0.0456
  283loPI   C3A 4521   5.278  18.942   8.009  0.0339 -0.2406  0.0088
  283loPI   C4A 4522   5.201  19.228   7.666  0.2490 -0.0894  0.0149
  283loPI   C5A 4523   5.263  19.193   7.190 -0.1334 -0.2548  0.0267
  283loPI   C6A 4524   4.953  19.263   6.849 -0.0789 -0.1056 -0.0425
  283loPI   C1B 4525   4.878  18.734   8.618 -0.0170 -0.1462  0.1452
  283loPI   C2B 4526   4.921  18.678   8.233 -0.1435  0.1417  0.2737
  283loPI   C3B 4527   4.882  18.644   7.767 -0.1866  0.5098  0.2110
  283loPI   C4B 4528   4.785  18.392   7.329 -0.0844 -0.2623 -0.0730
  284loPI    C1 4529  16.126  15.528  10.205  0.2938  0.1136  0.1202
  284loPI    C2 4530  15.936  15.879  10.181  0.2682  0.0943  0.0352
  284loPI    C3 4531  16.334  15.870  10.224  0.2546  0.1346  0.1751
  284loPI   PO4 4532  16.066  15.392   9.947 -0.0374 -0.0268  0.1496
  284loPI   GL1 4533  16.097  15.629   9.558 -0.0075  0.0039  0.3026
  284loPI   GL2 4534  16.297  15.946   9.709  0.2201 -0.0207 -0.0672
  284loPI   C1A 4535  16.108  15.502   9.059  0.0958  0.0293  0.1471
  284loPI   C2A 4536  16.120  15.397   8.577  0.3246 -0.1572  0.0326
  284loPI   C3A 4537  16.241  15.632   8.207  0.1445  0.1264  0.0841
  284loPI   C4A 4538  16.453  15.925   8.007 -0.2313  0.2745  0.0733
  284loPI   C5A 4539  16.865  16.196   7.733 -0.0800 -0.0131 -0.3608
  284loPI   C6A 4540  17.261  16.343   7.583  0.0438  0.0472  0.1377
  284loPI   C1B 4541  16.240  16.255   9.447 -0.2577 -0.1191 -0.1333
  284loPI   C2B 4542  16.075  16.356   8.968  0.1924 -0.1058  0.0328
  284loPI   C3B 4543  15.756  16.369   8.726  0.2015 -0.1397  0.1662
  284loPI   C4B 4544  15.382  16.082   8.573 -0.1277 -0.3403 -0.0657
  285loPI    C1 4545   9.290   5.409   9.611  0.1237 -0.0196 -0.0630
  285loPI    C2 4546   9.372   5.709   9.862 -0.0556 -0.0157 -0.0075
  285loPI    C3 4547   9.247   5.357  10.005  0.1101 -0.1033 -0.0754
  285loPI   PO4 4548   9.430   5.377   9.396 -0.1100  0.0602 -0.4008
  285loPI   GL1 4549   9.575   5.436   9.056 -0.0385 -0.4474 -0.1120
  285loPI   GL2 4550   9.806   5.246   9.115 -0.2611 -0.1938  0.2611
  285loPI   C1A 4551   9.596   5.417   8.608 -0.1529  0.0435 -0.2145
  285loPI   C2A 4552   9.599   5.430   8.232  0.0448  0.2262  0.0375
  285loPI   C3A 4553   9.626   5.698   7.908  0.0851  0.0498  0.0590
  285loPI   C4A 4554   9.577   5.962   7.587 -0.6485  0.1795 -0.0790
  285loPI   C5A 4555   9.776   6.015   7.184 -0.0124  0.1330 -0.1728
  285loPI   C6A 4556  10.104   5.835   7.040  0.2814 -0.2785 -0.0356
  285loPI   C1B 4557   9.839   4.977   8.737  0.1330 -0.1872 -0.1221
  285loPI   C2B 4558   9.727   4.915   8.273 -0.1234 -0.3284 -0.2792
  285loPI   C3B 4559   9.962   4.789   7.906  0.0351 -0.1023  0.0221
  285loPI   C4B 4560  10.020   4.752   7.469  0.3333  0.1325  0.2795
  286loPI    C1 4561   2.506   6.165  10.093 -0.0889 -0.3106  0.2598
  286loPI    C2 4562   2.392   6.535   9.989  0.1447 -0.2870  0.0808
  286loPI    C3 4563   2.212   6.348  10.293 -0.2608 -0.1904 -0.0940
  286loPI   PO4 4564   2.646   6.145   9.794 -0.2275  0.2432 -0.0348
  286loPI   GL1 4565   2.824   5.898   9.386 -0.1865 -0.1174 -0.1203
  286loPI   GL2 4566   2.691   5.634   9.383  0.2174 -0.2141  0.1673
  286loPI   C1A 4567   3.184   5.995   9.099  0.1506 -0.2561 -0.2475
  286loPI   C2A 4568   3.345   6.167   8.701  0.0114 -0.1013 -0.0071
  286loPI   C3A 4569   3.328   6.111   8.207 -0.1025  0.2767 -0.0612
  286loPI   C4A 4570   3.368   6.112   7.755  0.1480  0.0727  0.2722
  286loPI   C5A 4571   3.632   6.065   7.396  0.1728 -0.1135  0.0985
  286loPI   C6A 4572   3.496   6.280   7.015 -0.3517  0.1100  0.1151
  286loPI   C1B 4573   2.634   5.785   8.957 -0.3655  0.2122 -0.2587
  286loPI   C2B 4574   2.798   6.022   8.739 -0.4102  0.0941  0.0229
  286loPI   C3B 4575   2.857   5.994   8.303 -0.1844  0.0768  0.2383
  286loPI   C4B 4576   2.892   5.911   7.846 -0.2560  0.0344  0.1846
  287loPI    C1 4577   6.971   3.074   9.591 -0.0583  0.1043  0.1959
  287loPI    C2 4578   7.053   3.462   9.638 -0.0241  0.1186  0.0267
  287loPI    C3 4579   7.239   3.189   9.864 -0.2816  0.2196  0.3693
  287loPI   PO4 4580   7.012   3.029   9.320  0.1783  0.0298  0.0621
  287loPI   GL1 4581   7.257   3.018   9.017  0.5050  0.2822 -0.1740
  287loPI   GL2 4582   7.388   2.771   8.961  0.1105  0.2443  0.0101
  287loPI   C1A 4583   7.227   3.252   8.619  0.1475  0.0496 -0.2189
  287loPI   C2A 4584   7.144   3.181   8.239 -0.1385  0.0305  0.2230
  287loPI   C3A 4585   7.104   3.199   7.823  0.2464 -0.3063  0.1106
  287loPI   C4A 4586   6.991   3.314   7.397 -0.1537  0.1749 -0.0769
  287loPI   C5A 4587   7.111   3.431   7.022  0.0163  0.0963  0.0935
  287loPI   C6A 4588   7.270   3.248   6.616 -0.3167  0.1454 -0.0466
  287loPI   C1B 4589   6.986   2.804   8.679 -0.1196  0.1196 -0.1502
  287loPI   C2B 4590   6.714   2.774   8.269  0.0683 -0.1676  0.0785
  287loPI   C3B 4591   6.627   2.560   7.994  0.0492 -0.2183  0.1526
  287loPI   C4B 4592   6.341   2.389   7.740  0.2632  0.1450  0.0376
  288loPI    C1 4593   9.036   4.153   9.743 -0.1687 -0.2964 -0.1591
  288loPI    C2 4594   8.820   4.490   9.738  0.1521 -0.0813  0.0465
  288loPI    C3 4595   9.182   4.487   9.908  0.2729 -0.4607 -0.2024
  288loPI   PO4 4596   9.056   4.094   9.510 -0.2240  0.0767 -0.0134
  288loPI   GL1 4597   9.242   4.171   9.082  0.0594  0.1252 -0.3345
  288loPI   GL2 4598   9.405   4.005   9.016 -0.1007 -0.0352  0.1090
  288loPI   C1A 4599   9.161   4.236   8.662  0.1401  0.3475  0.2273
  288loPI   C2A 4600   9.209   4.158   8.312  0.0621 -0.0963  0.1489
  288loPI   C3A 4601   9.399   4.029   7.899 -0.1789  0.1064 -0.1189
  288loPI   C4A 4602   9.161   4.209   7.623  0.0430  0.3191  0.0394
  288loPI   C5A 4603   8.818   4.097   7.349  0.2655  0.1046 -0.2310
  288loPI   C6A 4604   8.582   3.831   7.014  0.1124  0.2015  0.0648
  288loPI   C1B 4605   9.564   3.866   8.737 -0.1155  0.0491  0.5027
  288loPI   C2B 4606   9.673   3.758   8.261 -0.1055 -0.1267 -0.2641
  288loPI   C3B 4607   9.761   3.668   7.774 -0.0894 -0.1939 -0.0797
  288loPI   C4B 4608   9.601   3.785   7.507 -0.1361  0.0233  0.2364
  289loPI    C1 4609   0.654  15.467   9.929 -0.2665 -0.0924 -0.0717
  289loPI    C2 4610   0.596  15.333  10.302  0.1113  0.1059  0.0638
  289loPI    C3 4611   0.674  15.075  10.006 -0.1698 -0.0505  0.1224
  289loPI   PO4 4612   0.840  15.719   9.871  0.2307 -0.4002 -0.0916
  289loPI   GL1 4613   0.683  15.965   9.528 -0.1928 -0.1213  0.1076
  289loPI   GL2 4614   0.610  15.579   9.415 -0.3287  0.3623 -0.0773
  289loPI   C1A 4615   0.295  15.927   9.259 -0.0239  0.0166  0.3706
  289loPI   C2A 4616   0.027  15.888   8.886 -0.1701 -0.2803 -0.0587
  289loPI   C3A 4617  -0.100  16.090   8.511  0.1817  0.0156  0.1325
  289loPI   C4A 4618  -0.416  16.168   8.188  0.0912  0.3161 -0.1035
  289loPI   C5A 4619  -0.865  16.158   7.922 -0.2636 -0.2520  0.1918
  289loPI   C6A 4620  -1.100  16.110   7.585  0.1073 -0.0379  0.2179
  289loPI   C1B 4621   0.734  15.829   9.065 -0.1080  0.1851  0.4079
  289loPI   C2B 4622   0.516  15.969   8.653 -0.0842  0.1667 -0.0224
  289loPI   C3B 4623   0.356  16.074   8.239 -0.0666 -0.0488 -0.0910
  289loPI   C4B 4624   0.042  16.026   8.010  0.0891 -0.0666  0.0238
  290loPI    C1 4625   3.629  17.488   9.517  0.0602 -0.0054  0.1979
  290loPI    C2 4626   3.482  17.233   9.787 -0.0826  0.1090  0.2295
  290loPI    C3 4627   3.876  17.247   9.720 -0.0808 -0.1821  0.1625
  290loPI   PO4 4628   3.459  17.487   9.205  0.0601  0.2298 -0.4931
  290loPI   GL1 4629   3.344  17.728   8.910 -0.0802 -0.1833 -0.0047
  290loPI   GL2 4630   3.234  18.063   8.929 -0.1732  0.0054 -0.0311
  290loPI   C1A 4631   3.452  17.454   8.565  0.0102  0.0890  0.0365
  290loPI   C2A 4632   3.460  17.330   8.092  0.0054  0.0283 -0.0239
  290loPI   C3A 4633   3.363  17.018   7.811  0.2222  0.1090  0.2608
  290loPI   C4A 4634   3.438  16.714   7.546  0.1568 -0.1765 -0.3284
  290loPI   C5A 4635   3.321  16.539   7.224 -0.0315 -0.1727  0.1422
  290loPI   C6A 4636   3.330  16.726   6.875 -0.0867 -0.0615 -0.1150
  290loPI   C1B 4637   3.087  17.964   8.584 -0.2492  0.1202 -0.0590
  290loPI   C2B 4638   2.961  17.960   8.163  0.0849  0.3724  0.0061
  290loPI   C3B 4639   2.659  18.119   7.958 -0.0254 -0.0831 -0.2165
  290loPI   C4B 4640   2.379  18.186   7.699 -0.1254  0.2571  0.1013
  291loPI    C1 4641   8.906  11.748   9.796 -0.1175  0.3563 -0.0145
  291loPI    C2 4642   9.188  11.760  10.079  0.1573 -0.0106 -0.2633
  291loPI    C3 4643   8.891  11.493  10.104 -0.1362  0.3278 -0.0388
  291loPI   PO4 4644   9.038  11.792   9.559 -0.2998  0.1421 -0.0713
  291loPI   GL1 4645   9.398  11.630   9.224 -0.0195  0.1541  0.0181
  291loPI   GL2 4646   9.307  11.933   9.134 -0.3094  0.0260  0.1378
  291loPI   C1A 4647   9.706  11.600   8.890  0.2443  0.0872 -0.0680
  291loPI   C2A 4648   9.863  11.546   8.402 -0.0482  0.4532  0.3572
  291loPI   C3A 4649  10.120  11.426   7.961  0.1665 -0.0186  0.0514
  291loPI   C4A 4650  10.358  11.266   7.769  0.0004  0.0486  0.3361
  291loPI   C5A 4651  10.733  11.255   7.447 -0.0362 -0.1174 -0.1773
  291loPI   C6A 4652  11.126  11.043   7.353 -0.2187 -0.1388 -0.0699
  291loPI   C1B 4653   9.318  11.904   8.660  0.2114  0.2605  0.0944
  291loPI   C2B 4654   9.493  11.789   8.264  0.3157 -0.3077 -0.3243
  291loPI   C3B 4655   9.596  11.655   7.920 -0.2937  0.0280  0.2114
  291loPI   C4B 4656   9.371  11.617   7.532  0.1867 -0.0820  0.0532
  292loPI    C1 4657  15.745   3.224   9.885  0.4071 -0.2309 -0.1663
  292loPI    C2 4658  15.398   3.084  10.027  0.1795  0.0078 -0.4716
  292loPI    C3 4659  15.731   3.058  10.248 -0.0488 -0.1445 -0.1389
  292loPI   PO4 4660  15.664   3.488   9.765 -0.1462  0.0055  0.4266
  292loPI   GL1 4661  15.649   3.550   9.323 -0.1495  0.2331  0.5780
  292loPI   GL2 4662  15.722   3.257   9.045 -0.0777 -0.0797  0.3215
  292loPI   C1A 4663  15.679   3.849   8.987  0.0238 -0.2243 -0.2003
  292loPI   C2A 4664  15.716   3.648   8.572 -0.1056 -0.2197  0.1006
  292loPI   C3A 4665  15.874   3.475   8.184 -0.1639 -0.1305  0.2176
  292loPI   C4A 4666  16.208   3.257   7.984 -0.3561  0.0269  0.3496
  292loPI   C5A 4667  16.610   3.441   7.834 -0.2918 -0.0818 -0.3847
  292loPI   C6A 4668  16.777   3.863   8.070  0.1314 -0.0593 -0.1953
  292loPI   C1B 4669  15.536   3.066   8.646  0.0158 -0.4125 -0.4443
  292loPI   C2B 4670  15.676   3.078   8.188 -0.2630  0.2271 -0.1607
  292loPI   C3B 4671  15.755   2.959   7.696 -0.1532 -0.0872  0.2484
  292loPI   C4B 4672  15.690   2.704   7.285  0.0427  0.3744  0.0022
  293loPI    C1 4673  10.052  11.289   9.790  0.1310 -0.1984 -0.1948
  293loPI    C2 4674   9.995  11.618  10.010 -0.0816 -0.3406 -0.0335
  293loPI    C3 4675  10.300  11.372  10.093  0.1291 -0.1425 -0.2084
  293loPI   PO4 4676   9.766  11.303   9.638  0.0842 -0.1737  0.0062
  293loPI   GL1 4677   9.569  11.041   9.346  0.1029  0.5844  0.0111
  293loPI   GL2 4678   9.853  11.255   9.170 -0.3272 -0.0027  0.0590
  293loPI   C1A 4679   9.362  11.160   8.943 -0.1358  0.0725  0.1222
  293loPI   C2A 4680   9.394  11.385   8.575 -0.2514  0.2361 -0.2043
  293loPI   C3A 4681   9.523  11.228   8.165 -0.1340 -0.0861 -0.1004
  293loPI   C4A 4682   9.661  11.226   7.736 -0.2769  0.2898  0.3106
  293loPI   C5A 4683   9.971  11.398   7.456 -0.2814  0.2775 -0.1651
  293loPI   C6A 4684  10.321  11.523   7.290 -0.0601 -0.2375  0.1519
  293loPI   C1B 4685  10.246  11.440   9.071  0.0846 -0.0517  0.3044
  293loPI   C2B 4686  10.708  11.456   9.072 -0.0191  0.0662  0.3840
  293loPI   C3B 4687  10.944  11.629   8.811 -0.2704  0.1351  0.4537
  293loPI   C4B 4688  11.289  11.689   8.513  0.3057  0.2084 -0.0734
  294loPI    C1 4689   1.883   1.681  10.380  0.0587  0.0942 -0.1024
  294loPI    C2 4690   2.271   1.678  10.477  0.0135  0.0865  0.0822
  294loPI    C3 4691   2.081   2.026  10.422  0.0036  0.0952  0.1699
  294loPI   PO4 4692   1.859   1.635  10.111  0.1526  0.1161 -0.1310
  294loPI   GL1 4693   1.874   1.864   9.665  0.0626  0.2269  0.3197
  294loPI   GL2 4694   2.132   1.640   9.597  0.0626 -0.0667 -0.0600
  294loPI   C1A 4695   1.853   1.978   9.242  0.0471 -0.0233  0.2893
  294loPI   C2A 4696   1.863   2.206   8.831 -0.0488 -0.0761 -0.3629
  294loPI   C3A 4697   1.762   2.410   8.439 -0.0507 -0.1215 -0.2134
  294loPI   C4A 4698   1.799   2.596   8.071  0.2906 -0.2853 -0.2400
  294loPI   C5A 4699   1.858   2.853   7.607  0.2000  0.0388 -0.0108
  294loPI   C6A 4700   1.726   2.931   7.089 -0.1455 -0.0388  0.1184
  294loPI   C1B 4701   2.367   1.931   9.353 -0.1187 -0.2325 -0.0872
  294loPI   C2B 4702   2.352   2.058   8.937 -0.2513 -0.1980 -0.0022
  294loPI   C3B 4703   2.531   1.973   8.598 -0.0217 -0.0545 -0.3004
  294loPI   C4B 4704   2.848   1.883   8.243  0.1678 -0.2964 -0.2517
  295loPI    C1 4705  14.331  19.002   9.651 -0.0745  0.0902  0.0716
  295loPI    C2 4706  14.686  18.823   9.607 -0.2012 -0.0828 -0.2912
  295loPI    C3 4707  14.461  18.747   9.930 -0.0385 -0.1982 -0.2036
  295loPI   PO4 4708  14.146  18.950   9.534  0.1059  0.1645  0.0901
  295loPI   GL1 4709  14.115  18.864   9.096 -0.1264 -0.3277 -0.3380
  295loPI   GL2 4710  14.478  19.029   9.186  0.0103  0.0739  0.3700
  295loPI   C1A 4711  14.388  18.487   9.093  0.1563 -0.3266  0.1535
  295loPI   C2A 4712  14.459  18.329   8.664 -0.1910  0.2111  0.0222
  295loPI   C3A 4713  14.523  18.406   8.253  0.0205 -0.0011  0.2343
  295loPI   C4A 4714  14.699  18.313   7.904 -0.0478 -0.2726 -0.0259
  295loPI   C5A 4715  14.897  18.432   7.560 -0.1286  0.1189 -0.2579
  295loPI   C6A 4716  15.120  18.716   7.448 -0.1672  0.1429 -0.0191
  295loPI   C1B 4717  14.537  18.900   8.712  0.0284  0.1995  0.3150
  295loPI   C2B 4718  14.722  18.831   8.265 -0.1404 -0.3077  0.1051
  295loPI   C3B 4719  14.592  18.870   7.819 -0.1671  0.0669 -0.1534
  295loPI   C4B 4720  14.384  18.583   7.606 -0.0755  0.1415  0.0263
  296loPI    C1 4721   0.278  18.666  10.184 -0.3829  0.2022 -0.2988
  296loPI    C2 4722   0.159  18.947  10.442  0.1508  0.0179  0.1702
  296loPI    C3 4723   0.003  18.580  10.462 -0.0964  0.1084 -0.0378
  296loPI   PO4 4724   0.220  18.729   9.919 -0.0972  0.0302  0.0143
  296loPI   GL1 4725   0.319  18.552   9.551 -0.0058  0.1797  0.0962
  296loPI   GL2 4726   0.596  18.394   9.535  0.3072  0.0795 -0.2321
  296loPI   C1A 4727   0.081  18.639   9.112  0.0343  0.2086 -0.1465
  296loPI   C2A 4728   0.012  18.778   8.698  0.1152  0.1054  0.0371
  296loPI   C3A 4729  -0.326  18.749   8.287 -0.2164 -0.2328  0.0613
  296loPI   C4A 4730  -0.461  18.892   7.921 -0.1612 -0.0079  0.0765
  296loPI   C5A 4731  -0.779  19.143   7.742 -0.2890  0.1529  0.1440
  296loPI   C6A 4732  -0.674  19.383   7.313 -0.3024  0.1744 -0.0485
  296loPI   C1B 4733   0.488  18.242   9.117  0.0772  0.1643  0.1938
  296loPI   C2B 4734   0.277  18.159   8.838 -0.1594  0.0130 -0.1948
  296loPI   C3B 4735   0.192  18.123   8.478  0.8446 -0.4077 -0.1041
  296loPI   C4B 4736  -0.101  18.325   8.121  0.0685  0.1635  0.1253
  297loPI    C1 4737   9.058  14.239   9.701 -0.0187 -0.0231 -0.0717
  297loPI    C2 4738   9.433  14.167   9.819  0.1100  0.1262 -0.3768
  297loPI    C3 4739   9.150  14.250  10.090  0.3059  0.0586 -0.1481
  297loPI   PO4 4740   9.103  14.433   9.476  0.2106  0.1291  0.1375
  297loPI   GL1 4741   8.967  14.581   9.184  0.1433 -0.1233  0.2074
  297loPI   GL2 4742   9.109  14.859   9.046 -0.1245  0.3035  0.2217
  297loPI   C1A 4743   8.932  14.413   8.726 -0.3609 -0.0054  0.0764
  297loPI   C2A 4744   8.908  14.396   8.355 -0.0991  0.1286  0.0023
  297loPI   C3A 4745   8.844  14.143   8.086 -0.1055  0.1111  0.1789
  297loPI   C4A 4746   8.644  14.000   7.801 -0.2924 -0.1750  0.1120
  297loPI   C5A 4747   8.354  14.116   7.481 -0.2079  0.4701  0.0722
  297loPI   C6A 4748   7.970  14.318   7.486  0.0217  0.0039  0.1276
  297loPI   C1B 4749   9.200  14.831   8.632  0.0797 -0.4977 -0.3668
  297loPI   C2B 4750   9.426  14.773   8.244  0.2954  0.0562  0.1784
  297loPI   C3B 4751   9.730  14.882   7.902  0.0022 -0.0187  0.1703
  297loPI   C4B 4752  10.030  14.979   7.683  0.0601  0.2522  0.1741
  298loPI    C1 4753   8.609  11.325   9.587  0.1314  0.0510 -0.0565
  298loPI    C2 4754   8.392  11.229   9.909 -0.0204  0.1601 -0.1249
  298loPI    C3 4755   8.761  11.080   9.865 -0.1275 -0.1275 -0.0691
  298loPI   PO4 4756   8.523  11.540   9.522 -0.2444 -0.1260 -0.0771
  298loPI   GL1 4757   8.414  11.699   9.269  0.0964  0.1121  0.1369
  298loPI   GL2 4758   8.760  11.743   9.129 -0.0332 -0.1246 -0.1337
  298loPI   C1A 4759   8.376  11.739   8.836 -0.0719  0.1602 -0.0776
  298loPI   C2A 4760   8.334  11.983   8.459 -0.2616  0.0712  0.0503
  298loPI   C3A 4761   8.020  12.180   8.041  0.1754  0.1468 -0.1460
  298loPI   C4A 4762   7.842  12.124   7.594 -0.1865  0.2748 -0.0051
  298loPI   C5A 4763   7.995  12.240   7.203  0.2004  0.1409  0.0770
  298loPI   C6A 4764   8.070  12.614   6.851  0.1795 -0.4000 -0.0109
  298loPI   C1B 4765   8.948  11.591   8.786 -0.1537 -0.2910 -0.0373
  298loPI   C2B 4766   9.047  11.629   8.283 -0.1975  0.0333  0.0345
  298loPI   C3B 4767   9.102  11.361   7.936  0.0350 -0.1398  0.0042
  298loPI   C4B 4768   9.190  11.040   7.671 -0.0014  0.0572  0.1125
  299loPI    C1 4769  13.552   1.087  10.006  0.0182  0.0239 -0.0520
  299loPI    C2 4770  13.559   0.739  10.203 -0.2077  0.1109  0.1142
  299loPI    C3 4771  13.736   1.061  10.359 -0.3078  0.1576  0.1322
  299loPI   PO4 4772  13.614   1.035   9.780 -0.3500  0.0648 -0.0091
  299loPI   GL1 4773  13.863   1.077   9.442  0.0284  0.2493 -0.0899
  299loPI   GL2 4774  14.145   1.155   9.166  0.2580  0.3271  0.2577
  299loPI   C1A 4775  13.603   0.963   9.083 -0.4025  0.0837 -0.0531
  299loPI   C2A 4776  13.794   1.119   8.802  0.1374  0.0827  0.2258
  299loPI   C3A 4777  14.007   1.205   8.423 -0.0260 -0.1736  0.1884
  299loPI   C4A 4778  13.902   1.339   8.026  0.0135 -0.0846  0.4084
  299loPI   C5A 4779  13.836   1.370   7.635 -0.0349 -0.1010 -0.1145
  299loPI   C6A 4780  13.848   1.533   7.268 -0.0082 -0.2166 -0.4239
  299loPI   C1B 4781  14.398   1.126   8.868  0.0868  0.1573  0.0733
  299loPI   C2B 4782  14.413   0.953   8.531  0.0285  0.0481  0.0096
  299loPI   C3B 4783  14.439   1.008   8.145 -0.4184  0.1539  0.2460
  299loPI   C4B 4784  14.260   0.978   7.782  0.0437 -0.1890  0.1023
  300loPI    C1 4785  15.955   5.723   9.535  0.0311 -0.0018 -0.1065
  300loPI    C2 4786  16.125   5.544   9.850 -0.1639 -0.3396 -0.1878
  300loPI    C3 4787  16.105   5.943   9.833  0.0515 -0.3125  0.1181
  300loPI   PO4 4788  16.005   5.711   9.314 -0.2967  0.3149  0.2011
  300loPI   GL1 4789  16.196   5.908   9.026 -0.1925  0.1136  0.0053
  300loPI   GL2 4790  16.222   6.209   8.865 -0.1667  0.1053  0.0355
  300loPI   C1A 4791  16.186   5.774   8.605  0.3146 -0.0377  0.0936
  300loPI   C2A 4792  16.196   5.737   8.238  0.1341  0.0979  0.2179
  300loPI   C3A 4793  16.183   5.713   7.847 -0.0306  0.0033 -0.0104
  300loPI   C4A 4794  16.159   5.868   7.437 -0.2796  0.2261  0.2185
  300loPI   C5A 4795  16.087   5.884   7.058  0.1631  0.0488 -0.0023
  300loPI   C6A 4796  15.769   6.155   6.765 -0.0812  0.1962  0.1473
  300loPI   C1B 4797  16.175   6.588   8.688 -0.1564  0.0601  0.0967
  300loPI   C2B 4798  16.016   6.547   8.286 -0.1995 -0.1092 -0.2465
  300loPI   C3B 4799  16.192   6.238   8.008  0.1197 -0.1078 -0.0278
  300loPI   C4B 4800  16.391   6.233   7.639  0.3774  0.1343 -0.1410
  301loPI    C1 4801  12.606   9.900   9.540 -0.2647 -0.0509  0.0036
  301loPI    C2 4802  12.509  10.154   9.833 -0.1020 -0.1758  0.1682
  301loPI    C3 4803  12.750  10.273   9.536 -0.0873 -0.1156  0.2040
  301loPI   PO4 4804  12.357   9.761   9.372  0.2355  0.1008  0.1198
  301loPI   GL1 4805  12.436   9.447   9.083  0.4806 -0.0265  0.1309
  301loPI   GL2 4806  12.733   9.367   9.216  0.1947  0.0941  0.2437
  301loPI   C1A 4807  12.377   9.578   8.632  0.0434  0.2088  0.0694
  301loPI   C2A 4808  12.402   9.796   8.246  0.1198 -0.3937  0.1974
  301loPI   C3A 4809  12.620   9.731   7.855  0.2879 -0.1232  0.3075
  301loPI   C4A 4810  12.742   9.818   7.478  0.3441 -0.1030 -0.0903
  301loPI   C5A 4811  12.977   9.776   7.179 -0.2176  0.3557  0.2419
  301loPI   C6A 4812  12.935   9.745   6.785  0.0918 -0.2249 -0.2054
  301loPI   C1B 4813  12.783   9.275   8.769 -0.1888  0.1291 -0.1586
  301loPI   C2B 4814  12.777   9.248   8.346  0.2766 -0.0504 -0.3111
  301loPI   C3B 4815  12.811   9.163   7.944  0.0293 -0.0198  0.0527
  301loPI   C4B 4816  12.667   9.324   7.507  0.3803 -0.2616 -0.1205
  302loPI    C1 4817   7.163   9.017   9.630 -0.3789  0.2085  0.0888
  302loPI    C2 4818   7.425   9.003   9.931 -0.1237  0.0947 -0.1345
  302loPI    C3 4819   7.093   8.782   9.946 -0.1475  0.1429  0.0932
  302loPI   PO4 4820   7.204   9.266   9.498 -0.2801  0.0250 -0.0361
  302loPI   GL1 4821   7.172   9.625   9.196  0.0285  0.1051 -0.0068
  302loPI   GL2 4822   7.485   9.583   9.185  0.0518  0.1964 -0.2505
  302loPI   C1A 4823   7.043   9.723   8.792  0.0052  0.1386 -0.3260
  302loPI   C2A 4824   6.812   9.684   8.486 -0.0016  0.0032  0.0678
  302loPI   C3A 4825   6.713   9.576   8.051  0.0209 -0.0377 -0.0944
  302loPI   C4A 4826   6.662   9.446   7.634  0.2068 -0.1567  0.2505
  302loPI   C5A 4827   6.677   9.342   7.370 -0.0455  0.0812 -0.0488
  302loPI   C6A 4828   6.414   9.325   6.986  0.1017 -0.1208  0.1019
  302loPI   C1B 4829   7.535   9.705   8.756  0.0761  0.1705 -0.3075
  302loPI   C2B 4830   7.344   9.863   8.346 -0.1425 -0.0268 -0.1736
  302loPI   C3B 4831   7.094   9.914   8.012 -0.0642  0.3326  0.1268
  302loPI   C4B 4832   6.807   9.946   7.687 -0.3691  0.1362  0.1373
  303loPI    C1 4833   8.530  15.106   9.951 -0.3559 -0.0897  0.1407
  303loPI    C2 4834   8.680  15.015  10.311 -0.0039 -0.0165  0.0168
  303loPI    C3 4835   8.736  15.380  10.157 -0.3048  0.0089 -0.0393
  303loPI   PO4 4836   8.493  14.957   9.785 -0.0113  0.0062 -0.1950
  303loPI   GL1 4837   8.373  15.092   9.316 -0.1939 -0.2785  0.0730
  303loPI   GL2 4838   8.589  14.929   9.141  0.0502 -0.0197  0.2117
  303loPI   C1A 4839   8.284  15.221   8.928  0.1363 -0.1944  0.0752
  303loPI   C2A 4840   8.064  15.325   8.559  0.1933  0.2041 -0.0995
  303loPI   C3A 4841   8.175  15.604   8.218  0.1252 -0.0897  0.0419
  303loPI   C4A 4842   8.326  15.679   8.017  0.2318 -0.0176 -0.1125
  303loPI   C5A 4843   8.540  15.966   7.791 -0.0412  0.4523 -0.0697
  303loPI   C6A 4844   8.614  16.029   7.400  0.0097  0.3878 -0.1335
  303loPI   C1B 4845   8.323  14.627   8.744  0.1892 -0.1032  0.0920
  303loPI   C2B 4846   8.255  14.519   8.382  0.0104  0.0802  0.3186
  303loPI   C3B 4847   8.163  14.839   8.109  0.0406  0.0540 -0.2475
  303loPI   C4B 4848   8.206  14.940   7.691 -0.0861  0.1765  0.0046
  304loPI    C1 4849   1.561  12.861  10.404 -0.1106 -0.0800  0.1014
  304loPI    C2 4850   1.348  12.857  10.742 -0.2192 -0.0998  0.0332
  304loPI    C3 4851   1.740  12.778  10.752 -0.2795 -0.3991  0.1153
  304loPI   PO4 4852   1.489  13.156  10.260  0.2983  0.0285 -0.1460
  304loPI   GL1 4853   1.469  13.382   9.809 -0.1311  0.0572 -0.1746
  304loPI   GL2 4854   1.246  13.726   9.723  0.0925 -0.1998 -0.4513
  304loPI   C1A 4855   1.744  13.308   9.410 -0.0111 -0.0502 -0.0868
  304loPI   C2A 4856   1.903  13.143   9.047  0.2009  0.2207  0.1030
  304loPI   C3A 4857   1.948  12.851   8.701  0.2764  0.0746 -0.0875
  304loPI   C4A 4858   1.991  12.724   8.237  0.1196  0.0663 -0.0602
  304loPI   C5A 4859   1.852  12.672   7.910  0.0051  0.2148  0.1829
  304loPI   C6A 4860   1.548  12.932   8.004 -0.1416  0.0388 -0.1828
  304loPI   C1B 4861   1.304  13.932   9.245  0.2509  0.1181 -0.1780
  304loPI   C2B 4862   1.324  13.965   8.867  0.1580  0.0887 -0.2135
  304loPI   C3B 4863   1.220  13.947   8.373 -0.1710  0.2313  0.4335
  304loPI   C4B 4864   1.204  13.823   7.958  0.0761 -0.2197 -0.0922
  305loPI    C1 4865  18.619  14.497  10.264  0.0018  0.2218 -0.0764
  305loPI    C2 4866  18.444  14.138  10.242  0.0581  0.1925 -0.0467
  305loPI    C3 4867  18.685  14.224  10.549  0.3053  0.1381 -0.2227
  305loPI   PO4 4868  18.738  14.574   9.975  0.2599  0.4008 -0.0910
  305loPI   GL1 4869  19.120  14.777   9.820 -0.4595 -0.0695 -0.2409
  305loPI   GL2 4870  19.001  15.053   9.684  0.2782  0.4772 -0.2408
  305loPI   C1A 4871  19.434  14.755   9.533 -0.2012 -0.0855 -0.1463
  305loPI   C2A 4872  19.515  15.002   9.107  0.4241  0.0089 -0.3275
  305loPI   C3A 4873  19.705  15.042   8.751  0.0044  0.1987  0.0762
  305loPI   C4A 4874  19.729  15.100   8.187  0.3520 -0.1347 -0.3199
  305loPI   C5A 4875  19.718  15.229   7.840  0.1784 -0.1855 -0.0799
  305loPI   C6A 4876  19.641  14.924   7.436 -0.3357 -0.0019 -0.1127
  305loPI   C1B 4877  18.987  14.934   9.226 -0.3711 -0.0822  0.3137
  305loPI   C2B 4878  19.112  15.060   8.853 -0.1441  0.0066  0.0455
  305loPI   C3B 4879  19.238  15.123   8.435 -0.1500  0.0949 -0.1068
  305loPI   C4B 4880  19.212  15.131   8.037 -0.2905  0.2074  0.0131
  306loPI    C1 4881   2.396  17.090  10.111  0.0371 -0.1471 -0.1812
  306loPI    C2 4882   2.182  17.392  10.264 -0.0120 -0.3075  0.0728
  306loPI    C3 4883   2.581  17.392  10.297  0.0140 -0.1184 -0.2044
  306loPI   PO4 4884   2.300  17.030   9.842 -0.0283  0.2092  0.0955
  306loPI   GL1 4885   2.268  16.583   9.468 -0.0424 -0.1684 -0.0123
  306loPI   GL2 4886   2.497  16.474   9.225  0.2463  0.1183  0.1518
  306loPI   C1A 4887   2.021  16.319   9.117  0.2763  0.0763 -0.2811
  306loPI   C2A 4888   1.949  16.288   8.620 -0.1196  0.2799 -0.2057
  306loPI   C3A 4889   1.815  16.264   8.193  0.0755 -0.2717  0.0607
  306loPI   C4A 4890   1.855  15.996   7.702 -0.2275 -0.0546 -0.2862
  306loPI   C5A 4891   1.694  15.685   7.291 -0.1653  0.1081 -0.1112
  306loPI   C6A 4892   1.933  15.511   6.920 -0.2507  0.0855  0.0092
  306loPI   C1B 4893   2.258  16.732   8.932  0.0728  0.2061 -0.3418
  306loPI   C2B 4894   2.263  16.738   8.525 -0.0001 -0.2952 -0.0087
  306loPI   C3B 4895   2.254  16.521   8.243  0.0554  0.0726  0.1543
  306loPI   C4B 4896   2.074  16.449   7.801 -0.1611 -0.0585  0.1906
  307loPI    C1 4897   6.361   7.159   9.518 -0.1162  0.0258  0.3177
  307loPI    C2 4898   6.705   7.233   9.708 -0.1112 -0.1652  0.3862
  307loPI    C3 4899   6.358   7.340   9.875 -0.0939 -0.1142  0.3899
  307loPI   PO4 4900   6.368   6.897   9.424 -0.0050  0.0225  0.1283
  307loPI   GL1 4901   6.202   6.891   8.967 -0.1323 -0.0994 -0.0249
  307loPI   GL2 4902   6.516   7.131   9.034  0.0621  0.1829  0.3442
  307loPI   C1A 4903   6.419   6.924   8.566 -0.2954  0.2528  0.1710
  307loPI   C2A 4904   6.390   7.188   8.256 -0.4560 -0.0723 -0.1824
  307loPI   C3A 4905   6.316   7.074   7.909 -0.0566 -0.0044  0.1692
  307loPI   C4A 4906   6.361   7.236   7.621  0.1564 -0.2885  0.0536
  307loPI   C5A 4907   6.281   7.729   7.484 -0.0716  0.0317  0.0768
  307loPI   C6A 4908   6.103   8.080   7.198  0.1833  0.2201  0.1950
  307loPI   C1B 4909   6.628   7.364   8.734  0.5299  0.2617  0.1689
  307loPI   C2B 4910   6.983   7.244   8.407  0.5148  0.2146  0.0211
  307loPI   C3B 4911   7.391   7.250   8.455 -0.2628  0.0828 -0.2177
  307loPI   C4B 4912   7.766   7.512   8.290  0.1660  0.1807  0.1034
  308loPI    C1 4913   6.602  15.476  10.303 -0.1511 -0.0548 -0.0926
  308loPI    C2 4914   6.288  15.253  10.409 -0.1626 -0.0871 -0.1934
  308loPI    C3 4915   6.656  15.144  10.519 -0.1782 -0.0987 -0.1528
  308loPI   PO4 4916   6.645  15.481  10.126 -0.2120 -0.1654  0.3260
  308loPI   GL1 4917   6.758  15.533   9.709 -0.0149  0.4041 -0.2499
  308loPI   GL2 4918   6.399  15.302   9.731  0.6895 -0.0338  0.0498
  308loPI   C1A 4919   6.479  15.734   9.304 -0.3887 -0.4239 -0.0015
  308loPI   C2A 4920   6.055  15.741   8.997 -0.0858  0.3613 -0.4443
  308loPI   C3A 4921   6.116  15.930   8.699 -0.2169 -0.6157 -0.1660
  308loPI   C4A 4922   6.183  15.931   8.254  0.0266 -0.2737 -0.1821
  308loPI   C5A 4923   6.227  15.963   7.860  0.3116  0.0672  0.1299
  308loPI   C6A 4924   5.993  16.152   7.454 -0.0583 -0.0497 -0.2544
  308loPI   C1B 4925   6.079  15.442   9.427 -0.0861 -0.0388 -0.0035
  308loPI   C2B 4926   5.713  15.404   9.263  0.1703  0.1422  0.0994
  308loPI   C3B 4927   5.374  15.574   9.460 -0.0327  0.0251  0.1527
  308loPI   C4B 4928   4.956  15.660   9.550 -0.0234  0.0092  0.0671
  309loPI    C1 4929   4.963   8.606   9.563  0.2037 -0.3103 -0.0130
  309loPI    C2 4930   4.796   8.949   9.444  0.1417 -0.3191  0.0479
  309loPI    C3 4931   5.009   8.938   9.782  0.3344 -0.2894 -0.0715
  309loPI   PO4 4932   4.799   8.477   9.489  0.0444 -0.0288 -0.1670
  309loPI   GL1 4933   4.687   8.508   9.011  0.1316 -0.0910 -0.1932
  309loPI   GL2 4934   4.957   8.339   8.907 -0.4729 -0.1943 -0.0518
  309loPI   C1A 4935   4.852   8.915   8.968 -0.0399 -0.3253  0.3631
  309loPI   C2A 4936   5.020   9.277   8.717 -0.3207 -0.0938  0.2762
  309loPI   C3A 4937   5.040   9.315   8.298 -0.0120  0.2334 -0.1606
  309loPI   C4A 4938   4.927   9.414   7.776  0.0635  0.1581 -0.2370
  309loPI   C5A 4939   4.757   9.725   7.486  0.0981 -0.1310 -0.0716
  309loPI   C6A 4940   4.727  10.034   7.059  0.0136  0.1270 -0.2548
  309loPI   C1B 4941   4.771   8.443   8.524 -0.1584 -0.1999  0.1190
  309loPI   C2B 4942   4.679   8.381   8.094  0.1607  0.1515  0.1530
  309loPI   C3B 4943   4.713   8.178   7.712  0.0256 -0.1826  0.1335
  309loPI   C4B 4944   4.468   8.053   7.390  0.0294  0.2538  0.0410
  310loPI    C1 4945  17.799   8.106   9.797  0.0218 -0.0134  0.1436
  310loPI    C2 4946  18.187   8.018   9.761 -0.0365 -0.2104 -0.0187
  310loPI    C3 4947  18.000   7.956  10.109  0.1240  0.0806  0.1235
  310loPI   PO4 4948  17.773   8.383   9.661 -0.2654 -0.0203 -0.0093
  310loPI   GL1 4949  18.045   8.392   9.286  0.0202 -0.2018  0.1784
  310loPI   GL2 4950  18.296   8.286   9.348  0.5086 -0.1211 -0.1747
  310loPI   C1A 4951  17.850   8.431   8.953  0.2267 -0.0029 -0.0899
  310loPI   C2A 4952  17.909   8.349   8.598 -0.4519 -0.0591  0.1728
  310loPI   C3A 4953  17.736   8.307   8.195  0.2068  0.2061 -0.4937
  310loPI   C4A 4954  17.444   8.419   7.898 -0.3307 -0.1166  0.1750
  310loPI   C5A 4955  17.441   8.842   7.657  0.1015 -0.1253  0.2035
  310loPI   C6A 4956  17.720   9.128   7.454  0.1898 -0.3330 -0.0884
  310loPI   C1B 4957  18.436   8.547   9.058  0.0189 -0.1015  0.1219
  310loPI   C2B 4958  18.322   8.592   8.670 -0.0819  0.0686  0.2614
  310loPI   C3B 4959  18.181   8.538   8.244 -0.0436  0.2056 -0.0204
  310loPI   C4B 4960  18.110   8.370   7.824  0.2514  0.0490 -0.0565
  311loPI    C1 4961   3.136  10.256   9.842 -0.1394  0.0084 -0.1677
  311loPI    C2 4962   3.434  10.363   9.598 -0.0242  0.1675  0.0402
  311loPI    C3 4963   3.499  10.332   9.992 -0.2057 -0.0987  0.0515
  311loPI   PO4 4964   2.949  10.486   9.660  0.0386  0.3072 -0.0032
  311loPI   GL1 4965   3.190  10.790   9.475  0.0535  0.2919  0.2397
  311loPI   GL2 4966   3.049  10.591   9.144 -0.2543 -0.1267  0.1060
  311loPI   C1A 4967   3.364  10.919   9.069 -0.0925  0.1259  0.2366
  311loPI   C2A 4968   3.489  10.937   8.736 -0.0022  0.1813  0.1474
  311loPI   C3A 4969   3.340  10.842   8.320  0.1457 -0.0721  0.2122
  311loPI   C4A 4970   3.270  10.864   7.836  0.0017 -0.2161 -0.2546
  311loPI   C5A 4971   3.045  10.874   7.462 -0.0121  0.1257 -0.3913
  311loPI   C6A 4972   2.668  11.074   7.468 -0.1228  0.0862 -0.1622
  311loPI   C1B 4973   3.089  10.553   8.703 -0.1220  0.0817 -0.1574
  311loPI   C2B 4974   2.814  10.595   8.387 -0.1065  0.0488  0.0567
  311loPI   C3B 4975   2.758  10.739   7.988 -0.0340  0.2276 -0.0202
  311loPI   C4B 4976   2.828  11.143   7.917  0.3000  0.2181 -0.1534
  312loPI    C1 4977   6.170  18.446   9.506 -0.0436 -0.2291 -0.2526
  312loPI    C2 4978   6.004  18.217   9.790  0.1625 -0.1574 -0.0718
  312loPI    C3 4979   6.401  18.268   9.780  0.1168  0.2307 -0.0797
  312loPI   PO4 4980   5.950  18.684   9.539  0.2784 -0.1877  0.1305
  312loPI   GL1 4981   5.793  18.659   9.153  0.0974 -0.5456 -0.0240
  312loPI   GL2 4982   6.088  18.677   9.048 -0.1580 -0.0608 -0.0758
  312loPI   C1A 4983   5.816  18.810   8.704 -0.1714  0.0541  0.1621
  312loPI   C2A 4984   5.991  18.834   8.322 -0.4079 -0.0097  0.2363
  312loPI   C3A 4985   6.029  18.926   7.889  0.2271  0.0673  0.1776
  312loPI   C4A 4986   6.143  19.071   7.432 -0.0965 -0.1084 -0.0256
  312loPI   C5A 4987   6.089  19.058   7.008 -0.1410 -0.0373  0.2885
  312loPI   C6A 4988   6.059  19.077   6.587 -0.4857 -0.0117  0.3816
  312loPI   C1B 4989   6.281  18.797   8.725  0.1136 -0.2033  0.1168
  312loPI   C2B 4990   6.469  18.940   8.334 -0.2399 -0.1053  0.3140
  312loPI   C3B 4991   6.489  19.068   7.910  0.0893 -0.0151 -0.2784
  312loPI   C4B 4992   6.694  19.341   7.486  0.1923 -0.0417  0.0899
  313loPI    C1 4993  11.088   1.688   9.941  0.2188  0.0668  0.2506
  313loPI    C2 4994  11.082   2.083   9.875 -0.3934  0.0413  0.0955
  313loPI    C3 4995  11.062   1.943  10.249  0.0321  0.1529  0.1652
  313loPI   PO4 4996  11.227   1.597   9.760 -0.2113  0.0757  0.0936
  313loPI   GL1 4997  11.048   1.433   9.503  0.1100  0.1766  0.0630
  313loPI   GL2 4998  10.800   1.306   9.513  0.4526  0.3696  0.1527
  313loPI   C1A 4999  11.107   1.231   9.103 -0.0264 -0.0871  0.3655
  313loPI   C2A 5000  10.983   1.177   8.631 -0.1087  0.0165  0.2133
  313loPI   C3A 5001  10.897   1.019   8.186  0.0518  0.4097  0.0355
  313loPI   C4A 5002  11.040   1.097   7.757 -0.1049  0.0293  0.2963
  313loPI   C5A 5003  11.044   0.926   7.277 -0.0031  0.1470  0.2232
  313loPI   C6A 5004  10.809   0.710   6.945  0.0912  0.0327  0.1010
  313loPI   C1B 5005  10.552   1.359   9.147 -0.0081  0.0385 -0.1008
  313loPI   C2B 5006  10.473   1.211   8.686 -0.0473  0.1311  0.1197
  313loPI   C3B 5007  10.342   1.420   8.219 -0.2520 -0.0575  0.2247
  313loPI   C4B 5008  10.281   1.339   7.803 -0.1700 -0.0899  0.1512
  314loPI    C1 5009   7.629   5.902   9.198 -0.1598 -0.2629  0.0657
  314loPI    C2 5010   7.240   5.906   9.104 -0.1824  0.1793  0.1555
  314loPI    C3 5011   7.361   6.042   9.460  0.0600  0.0929  0.1078
  314loPI   PO4 5012   7.746   5.853   8.926 -0.4803 -0.1169 -0.1328
  314loPI   GL1 5013   7.684   6.021   8.525 -0.3853  0.2622  0.1117
  314loPI   GL2 5014   7.754   6.294   8.473  0.1483 -0.0187 -0.0863
  314loPI   C1A 5015   7.657   6.091   8.041  0.0464 -0.1291  0.1046
  314loPI   C2A 5016   7.915   6.156   7.560  0.2235  0.0123  0.1822
  314loPI   C3A 5017   8.006   6.396   7.194 -0.2739  0.2089 -0.0451
  314loPI   C4A 5018   8.009   6.545   6.823  0.3321 -0.0892 -0.3234
  314loPI   C5A 5019   8.210   6.638   6.502  0.2120  0.0004 -0.3126
  314loPI   C6A 5020   7.955   6.977   6.327  0.2945 -0.1403  0.1839
  314loPI   C1B 5021   7.787   6.579   8.096 -0.2545 -0.1426 -0.0947
  314loPI   C2B 5022   7.762   6.981   7.975 -0.0653 -0.1602 -0.0308
  314loPI   C3B 5023   7.886   7.279   7.824 -0.0008  0.0416 -0.0704
  314loPI   C4B 5024   7.854   7.526   7.428 -0.0878 -0.1551  0.0190
  315loPI    C1 5025  10.981   7.684   9.698  0.1982  0.1678  0.1073
  315loPI    C2 5026  10.692   7.431   9.811  0.2352  0.0865  0.0219
  315loPI    C3 5027  10.780   7.749  10.037  0.0668  0.1218  0.0390
  315loPI   PO4 5028  10.967   7.599   9.458  0.1467 -0.0922 -0.0534
  315loPI   GL1 5029  10.977   7.786   9.069 -0.1190  0.1673  0.0085
  315loPI   GL2 5030  10.763   7.578   8.998  0.2683 -0.0661  0.0217
  315loPI   C1A 5031  11.004   7.845   8.653 -0.0312 -0.3474  0.0900
  315loPI   C2A 5032  11.023   7.728   8.267  0.0447 -0.2537  0.2023
  315loPI   C3A 5033  11.071   7.716   7.844  0.2794 -0.2330  0.0785
  315loPI   C4A 5034  10.932   7.835   7.508 -0.0181  0.1781  0.1260
  315loPI   C5A 5035  10.774   7.924   7.169  0.1181  0.1185  0.3012
  315loPI   C6A 5036  10.495   7.862   6.768 -0.1451  0.0146 -0.0793
  315loPI   C1B 5037  10.526   7.616   8.632 -0.0676 -0.1847  0.1343
  315loPI   C2B 5038  10.569   7.655   8.107  0.1036  0.0954 -0.1284
  315loPI   C3B 5039  10.395   7.696   7.646 -0.0074 -0.0765 -0.0017
  315loPI   C4B 5040  10.189   7.781   7.217 -0.4082  0.1967 -0.0111
  316loPI    C1 5041   0.025   2.454   9.472 -0.0472 -0.2925 -0.0232
  316loPI    C2 5042  -0.303   2.271   9.336 -0.2425  0.0261  0.0104
  316loPI    C3 5043  -0.280   2.380   9.720 -0.1224  0.0600 -0.0062
  316loPI   PO4 5044   0.289   2.234   9.431 -0.1108 -0.1509 -0.1539
  316loPI   GL1 5045   0.020   1.865   9.282 -0.0043  0.1185  0.4197
  316loPI   GL2 5046   0.391   1.706   9.297  0.0406  0.3469  0.2169
  316loPI   C1A 5047   0.059   2.047   8.884  0.0045  0.2739  0.0819
  316loPI   C2A 5048   0.041   1.821   8.491 -0.1955  0.1712  0.2600
  316loPI   C3A 5049   0.269   1.783   8.126 -0.1585  0.0222  0.2039
  316loPI   C4A 5050   0.356   2.013   7.777  0.0828  0.0708  0.0868
  316loPI   C5A 5051   0.361   2.436   7.615 -0.0737  0.3319  0.1925
  316loPI   C6A 5052   0.168   2.765   7.776 -0.2626 -0.0141  0.1539
  316loPI   C1B 5053   0.472   1.704   8.891 -0.3315  0.0897  0.0328
  316loPI   C2B 5054   0.564   2.006   8.513  0.0975 -0.0870 -0.0564
  316loPI   C3B 5055   0.653   2.232   8.156 -0.0650  0.3839  0.1172
  316loPI   C4B 5056   1.037   2.166   7.859 -0.3566 -0.1009  0.1544
  317loPI    C1 5057   5.216   4.473   9.837 -0.1107 -0.0898 -0.1563
  317loPI    C2 5058   5.403   4.721  10.089 -0.1191 -0.0875 -0.1523
  317loPI    C3 5059   5.479   4.328  10.101 -0.0727 -0.0797 -0.1883
  317loPI   PO4 5060   5.261   4.574   9.577  0.0666 -0.1499 -0.2028
  317loPI   GL1 5061   5.007   4.590   9.136 -0.1966  0.1606  0.0690
  317loPI   GL2 5062   5.075   4.505   8.808  0.3774 -0.1216 -0.1650
  317loPI   C1A 5063   4.888   5.007   8.875 -0.0972 -0.0448  0.1703
  317loPI   C2A 5064   4.852   5.018   8.446  0.1333 -0.3714  0.2002
  317loPI   C3A 5065   4.807   5.122   8.029  0.0208  0.0093 -0.0349
  317loPI   C4A 5066   4.549   5.243   7.622  0.0006 -0.0536  0.1607
  317loPI   C5A 5067   4.169   5.056   7.382 -0.2314 -0.0471  0.3839
  317loPI   C6A 5068   3.700   5.069   7.514  0.0383  0.3310 -0.0608
  317loPI   C1B 5069   4.954   4.567   8.383  0.0219  0.0291 -0.1324
  317loPI   C2B 5070   5.152   4.744   8.036  0.3170  0.0191  0.3243
  317loPI   C3B 5071   5.366   4.722   7.706 -0.0214  0.0148  0.1778
  317loPI   C4B 5072   5.522   5.073   7.370 -0.1664  0.2189  0.0331
  318loPI    C1 5073   7.202   9.727   9.847 -0.1688 -0.2714 -0.1082
  318loPI    C2 5074   7.566   9.579   9.774 -0.0010  0.0343  0.0866
  318loPI    C3 5075   7.377   9.484  10.113 -0.1785 -0.2599 -0.0912
  318loPI   PO4 5076   7.246   9.937   9.593 -0.1175  0.2500  0.1274
  318loPI   GL1 5077   7.363  10.065   9.134  0.4188 -0.2132 -0.0321
  318loPI   GL2 5078   7.450  10.486   9.219 -0.2531 -0.2622  0.1926
  318loPI   C1A 5079   7.301  10.201   8.690 -0.1721 -0.2454  0.1296
  318loPI   C2A 5080   7.335  10.521   8.330  0.0270 -0.0818 -0.0630
  318loPI   C3A 5081   7.329  10.757   8.015  0.0112  0.0521  0.2965
  318loPI   C4A 5082   7.500  10.889   7.774  0.0193  0.0583 -0.2037
  318loPI   C5A 5083   7.752  11.284   7.696  0.4004  0.0139 -0.2201
  318loPI   C6A 5084   8.136  11.458   7.557  0.3668 -0.3551 -0.0219
  318loPI   C1B 5085   7.547  10.563   8.828  0.0964  0.0621  0.1955
  318loPI   C2B 5086   7.751  10.734   8.452 -0.0554 -0.1120 -0.1163
  318loPI   C3B 5087   7.931  10.664   8.083 -0.0812  0.3293  0.0337
  318loPI   C4B 5088   7.957  10.598   7.653 -0.0350  0.3154  0.1363
  319loPI    C1 5089  10.729   5.631   9.480  0.2458 -0.1969  0.0149
  319loPI    C2 5090  10.882   5.465   9.810 -0.0384 -0.2173  0.1394
  319loPI    C3 5091  10.499   5.580   9.804  0.0473  0.0670 -0.0811
  319loPI   PO4 5092  10.997   5.825   9.357 -0.1763  0.1061 -0.0410
  319loPI   GL1 5093  10.871   5.959   8.934  0.3868 -0.0098  0.0046
  319loPI   GL2 5094  10.530   6.156   8.982 -0.1274 -0.0543 -0.2648
  319loPI   C1A 5095  10.957   5.963   8.458 -0.1754  0.2446  0.0248
  319loPI   C2A 5096  11.222   6.176   8.134  0.1699 -0.1309 -0.0184
  319loPI   C3A 5097  11.233   6.296   7.816 -0.2079  0.0378 -0.0797
  319loPI   C4A 5098  11.181   6.311   7.357 -0.2428 -0.0390 -0.0795
  319loPI   C5A 5099  11.084   6.657   7.035  0.0542  0.0177  0.0581
  319loPI   C6A 5100  10.948   6.913   6.976 -0.1906  0.4796  0.0669
  319loPI   C1B 5101  10.460   6.078   8.562  0.4285  0.0768 -0.1279
  319loPI   C2B 5102  10.527   6.012   8.069  0.1348  0.0254  0.1340
  319loPI   C3B 5103  10.671   6.237   7.653  0.3142  0.0929  0.0676
  319loPI   C4B 5104  10.740   6.608   7.412 -0.2701 -0.0257 -0.0840
  320loPI    C1 5105   9.201   4.846   9.424 -0.0688 -0.1253 -0.1538
  320loPI    C2 5106   9.594   4.894   9.362 -0.1209  0.2064 -0.2505
  320loPI    C3 5107   9.437   4.974   9.721 -0.0861 -0.0270 -0.1818
  320loPI   PO4 5108   9.120   4.653   9.289 -0.0536 -0.0817 -0.3268
  320loPI   GL1 5109   9.030   4.638   8.907 -0.1399 -0.2730  0.0093
  320loPI   GL2 5110   8.806   4.841   8.884 -0.0148 -0.2341 -0.1294
  320loPI   C1A 5111   9.314   4.693   8.520  0.3915 -0.0284  0.3224
  320loPI   C2A 5112   9.318   4.626   8.153  0.2905 -0.3551 -0.1307
  320loPI   C3A 5113   9.589   4.515   7.789  0.1306  0.1102  0.1884
  320loPI   C4A 5114   9.576   4.432   7.313 -0.0085 -0.0731  0.3959
  320loPI   C5A 5115   9.848   4.176   7.141  0.1000  0.2313 -0.0166
  320loPI   C6A 5116   9.734   3.791   7.048  0.1629  0.0908  0.0419
  320loPI   C1B 5117   8.747   4.922   8.473 -0.0186  0.0701 -0.0461
  320loPI   C2B 5118   8.739   5.112   8.006  0.0057 -0.0058 -0.0641
  320loPI   C3B 5119   8.884   5.079   7.690  0.3149  0.3021  0.4563
  320loPI   C4B 5120   8.892   4.976   7.305  0.0640 -0.0152  0.0685
  321loPI    C1 5121   9.652   4.523  10.017 -0.0679  0.0405  0.2227
  321loPI    C2 5122   9.955   4.479  10.275  0.0401 -0.0233  0.0861
  321loPI    C3 5123   9.602   4.620  10.402  0.0802 -0.0923  0.2761
  321loPI   PO4 5124   9.821   4.647   9.813 -0.3029  0.2187 -0.1253
  321loPI   GL1 5125   9.969   4.576   9.371  0.1863 -0.1707  0.2310
  321loPI   GL2 5126  10.117   4.331   9.258  0.1298 -0.1093 -0.1997
  321loPI   C1A 5127  10.185   4.758   8.980 -0.0696 -0.0337  0.0898
  321loPI   C2A 5128  10.238   4.845   8.469  0.0030 -0.1394 -0.0520
  321loPI   C3A 5129  10.479   5.045   8.222 -0.1201 -0.2579 -0.0641
  321loPI   C4A 5130  10.460   5.013   7.815 -0.0981  0.0965  0.2271
  321loPI   C5A 5131  10.452   5.009   7.317 -0.3080 -0.2419  0.1501
  321loPI   C6A 5132  10.702   5.299   7.162 -0.0394 -0.3745  0.0477
  321loPI   C1B 5133  10.166   4.249   8.887 -0.3618  0.0614 -0.1210
  321loPI   C2B 5134  10.327   4.295   8.464  0.1730  0.2620  0.1820
  321loPI   C3B 5135  10.289   4.480   8.149  0.0873 -0.0612  0.1552
  321loPI   C4B 5136  10.340   4.506   7.762  0.1402 -0.3398  0.1452
  322loPI    C1 5137   6.937  13.448  10.183  0.0541  0.1233 -0.1759
  322loPI    C2 5138   7.267  13.265  10.048 -0.0159  0.0435 -0.2403
  322loPI    C3 5139   7.275  13.463  10.396  0.0311 -0.1762 -0.1149
  322loPI   PO4 5140   6.915  13.644   9.976 -0.0237 -0.2621 -0.1076
  322loPI   GL1 5141   6.994  13.527   9.630 -0.0737  0.1529 -0.1942
  322loPI   GL2 5142   6.821  13.271   9.637  0.1435  0.1865  0.0396
  322loPI   C1A 5143   7.079  13.599   9.113 -0.0510  0.1320  0.1539
  322loPI   C2A 5144   7.294  13.466   8.739  0.2409  0.3606  0.3706
  322loPI   C3A 5145   7.363  13.464   8.365  0.2939  0.1762  0.1689
  322loPI   C4A 5146   7.215  13.560   7.982 -0.0813  0.0467  0.0065
  322loPI   C5A 5147   7.032  13.961   7.769  0.0086  0.0560 -0.0415
  322loPI   C6A 5148   6.830  14.437   7.656 -0.3424 -0.1554 -0.1697
  322loPI   C1B 5149   6.698  13.137   9.224  0.2620  0.3253  0.0519
  322loPI   C2B 5150   6.681  13.147   8.736 -0.1719  0.0864  0.0842
  322loPI   C3B 5151   6.408  13.137   8.414  0.0282  0.2746 -0.0364
  322loPI   C4B 5152   6.512  13.086   8.002 -0.1118 -0.0211  0.0019
  323loPI    C1 5153  12.096   1.945   9.617  0.0334  0.1454  0.0661
  323loPI    C2 5154  12.122   1.820   9.996  0.0511  0.1149  0.0549
  323loPI    C3 5155  12.122   2.211   9.914  0.0331  0.1218  0.0873
  323loPI   PO4 5156  12.328   1.750   9.493 -0.1138  0.0854  0.4260
  323loPI   GL1 5157  12.499   1.786   9.108 -0.0598  0.2289 -0.0071
  323loPI   GL2 5158  12.562   2.111   9.208 -0.1177  0.0425  0.0927
  323loPI   C1A 5159  12.712   1.998   8.633  0.2629 -0.0236 -0.0559
  323loPI   C2A 5160  12.645   1.984   8.260 -0.3460 -0.0807 -0.2231
  323loPI   C3A 5161  12.492   1.949   7.852 -0.2387 -0.2201 -0.0780
  323loPI   C4A 5162  12.239   2.085   7.502 -0.2941 -0.0101  0.2223
  323loPI   C5A 5163  12.376   2.440   7.226  0.1824 -0.0203  0.2930
  323loPI   C6A 5164  12.581   2.760   7.357 -0.0753  0.1195 -0.1215
  323loPI   C1B 5165  12.591   2.442   8.894 -0.1419 -0.3866 -0.0524
  323loPI   C2B 5166  12.270   2.490   8.540  0.0459 -0.2858 -0.0016
  323loPI   C3B 5167  11.902   2.481   8.275  0.1133 -0.2863  0.2527
  323loPI   C4B 5168  11.729   2.559   7.864  0.0904  0.1276  0.1591
  324loPI    C1 5169   5.646   4.638   9.266 -0.0022 -0.2069 -0.0469
  324loPI    C2 5170   5.653   4.947   9.520 -0.1103 -0.0543 -0.2276
  324loPI    C3 5171   5.983   4.729   9.461  0.0176  0.1387 -0.2351
  324loPI   PO4 5172   5.475   4.765   9.033  0.0008 -0.1560 -0.0710
  324loPI   GL1 5173   5.630   4.759   8.703  0.1584  0.1885  0.0068
  324loPI   GL2 5174   5.318   4.952   8.599  0.0037  0.1728 -0.0917
  324loPI   C1A 5175   5.655   4.735   8.191  0.0200 -0.4023  0.0083
  324loPI   C2A 5176   5.788   4.889   7.736 -0.0622  0.0162  0.0596
  324loPI   C3A 5177   5.974   4.853   7.355 -0.1175 -0.1393 -0.0137
  324loPI   C4A 5178   6.093   4.784   6.920  0.0754  0.3948 -0.0069
  324loPI   C5A 5179   6.419   4.462   6.732  0.2968 -0.1192  0.1915
  324loPI   C6A 5180   6.634   4.112   6.575 -0.1207  0.0295  0.0465
  324loPI   C1B 5181   5.253   5.178   8.193  0.1358  0.0639  0.1931
  324loPI   C2B 5182   5.282   5.326   7.773  0.0316  0.0029  0.3413
  324loPI   C3B 5183   5.045   5.275   7.366 -0.1205  0.0547  0.0689
  324loPI   C4B 5184   5.086   5.574   7.081  0.0047 -0.0662  0.0089
  325loPI    C1 5185  18.251   6.651  10.013  0.1248  0.0792 -0.0142
  325loPI    C2 5186  18.373   6.347   9.782  0.2094  0.1355 -0.0442
  325loPI    C3 5187  18.351   6.300  10.179 -0.4206 -0.1257 -0.0987
  325loPI   PO4 5188  18.236   6.837   9.718  0.2739  0.2463  0.1744
  325loPI   GL1 5189  18.461   6.815   9.358 -0.1055  0.0104 -0.2136
  325loPI   GL2 5190  18.719   7.094   9.342  0.0014 -0.0177  0.0011
  325loPI   C1A 5191  18.547   6.724   8.936 -0.2920  0.1393 -0.2268
  325loPI   C2A 5192  18.645   6.997   8.706 -0.0251 -0.2989  0.1849
  325loPI   C3A 5193  18.550   6.915   8.268  0.1561  0.1290  0.1262
  325loPI   C4A 5194  18.553   7.064   7.923  0.0188 -0.1743 -0.0256
  325loPI   C5A 5195  18.537   7.202   7.487 -0.1817  0.0893  0.0441
  325loPI   C6A 5196  18.674   7.361   7.038 -0.2092 -0.1737  0.2782
  325loPI   C1B 5197  18.577   7.403   8.989 -0.2091  0.1565 -0.1253
  325loPI   C2B 5198  18.337   7.376   8.629 -0.0480 -0.0491  0.1307
  325loPI   C3B 5199  18.125   7.343   8.308 -0.3211  0.0744  0.1315
  325loPI   C4B 5200  17.945   7.357   7.951  0.2994  0.0507 -0.0631
  326loPI    C1 5201   6.561  11.415  10.348 -0.0216 -0.1958 -0.4699
  326loPI    C2 5202   6.858  11.412  10.616 -0.2814  0.1686 -0.1683
  326loPI    C3 5203   6.736  11.070  10.449  0.0576 -0.0296 -0.0185
  326loPI   PO4 5204   6.593  11.659  10.200  0.0522  0.0774  0.1760
  326loPI   GL1 5205   6.565  11.651   9.643 -0.1025 -0.0457  0.1777
  326loPI   GL2 5206   6.725  11.371   9.439 -0.0315 -0.0128  0.1439
  326loPI   C1A 5207   6.581  11.807   9.184  0.1534 -0.2172  0.0690
  326loPI   C2A 5208   6.622  11.795   8.783  0.4972  0.1017  0.2157
  326loPI   C3A 5209   6.512  11.887   8.451  0.0552 -0.0270  0.2963
  326loPI   C4A 5210   6.363  11.971   8.175  0.1448  0.1570  0.1586
  326loPI   C5A 5211   6.082  12.078   7.717 -0.3444  0.1376 -0.3123
  326loPI   C6A 5212   5.739  12.288   7.425  0.2812  0.0931 -0.1149
  326loPI   C1B 5213   6.725  11.299   8.999 -0.0415  0.1626 -0.1398
  326loPI   C2B 5214   6.722  11.296   8.650  0.2344  0.1625  0.2377
  326loPI   C3B 5215   6.560  11.343   8.225 -0.3625 -0.0847  0.1549
  326loPI   C4B 5216   6.544  11.343   7.775 -0.1577  0.0169 -0.1523
  327loPI    C1 5217   2.104   6.968  10.025  0.0275 -0.1086 -0.0137
  327loPI    C2 5218   2.123   7.216  10.338 -0.0939  0.1066 -0.1733
  327loPI    C3 5219   1.991   6.841  10.387 -0.0515  0.1182  0.0428
  327loPI   PO4 5220   2.121   7.150   9.801 -0.1779  0.1620 -0.0633
  327loPI   GL1 5221   2.181   7.213   9.366 -0.0466 -0.0934 -0.3048
  327loPI   GL2 5222   2.013   7.088   9.219 -0.1541  0.2434  0.0169
  327loPI   C1A 5223   2.461   7.113   9.094 -0.2200 -0.0106  0.2094
  327loPI   C2A 5224   2.512   7.069   8.582  0.0728  0.0538  0.4196
  327loPI   C3A 5225   2.528   7.329   8.244  0.1136 -0.0652 -0.1665
  327loPI   C4A 5226   2.665   7.493   7.828 -0.1696 -0.1361  0.0022
  327loPI   C5A 5227   2.672   7.684   7.454  0.0803 -0.0227 -0.1472
  327loPI   C6A 5228   2.922   7.719   7.095  0.0463  0.1970  0.0935
  327loPI   C1B 5229   1.989   7.155   8.777 -0.1680  0.0565  0.3384
  327loPI   C2B 5230   1.988   7.268   8.334  0.1766 -0.0292  0.4230
  327loPI   C3B 5231   2.111   7.243   8.002 -0.1088  0.0785 -0.0316
  327loPI   C4B 5232   2.260   7.354   7.584 -0.4074  0.2962 -0.3447
  328loPI    C1 5233  15.210   6.699   9.702 -0.0029 -0.0285  0.3269
  328loPI    C2 5234  15.087   6.323   9.763  0.1263 -0.1964 -0.3627
  328loPI    C3 5235  15.469   6.423   9.831  0.0624 -0.1525 -0.0556
  328loPI   PO4 5236  14.965   6.803   9.579 -0.0845  0.1110 -0.0005
  328loPI   GL1 5237  14.778   6.843   9.148  0.0970  0.1477  0.2266
  328loPI   GL2 5238  15.035   7.018   9.163  0.4026 -0.1209  0.2859
  328loPI   C1A 5239  14.637   6.797   8.681 -0.1238 -0.0619 -0.0197
  328loPI   C2A 5240  14.726   6.691   8.251  0.2515  0.1375  0.1486
  328loPI   C3A 5241  14.908   6.788   7.833  0.0476  0.3642  0.1234
  328loPI   C4A 5242  14.960   6.695   7.415  0.0670 -0.1063  0.0092
  328loPI   C5A 5243  14.963   6.465   7.053  0.1515  0.0569  0.0759
  328loPI   C6A 5244  15.162   6.503   6.753 -0.1593  0.0322 -0.0747
  328loPI   C1B 5245  14.921   7.241   8.810 -0.2245 -0.2776  0.4840
  328loPI   C2B 5246  14.903   7.463   8.430  0.0920 -0.0201  0.1690
  328loPI   C3B 5247  14.437   7.620   8.225  0.0630 -0.0692  0.1063
  328loPI   C4B 5248  14.032   7.735   8.037 -0.1782  0.0057  0.3940
  329loPI    C1 5249   9.795  16.428   9.622 -0.0664  0.0912 -0.0179
  329loPI    C2 5250   9.448  16.330   9.796 -0.0142 -0.0781 -0.0070
  329loPI    C3 5251   9.454  16.597   9.498 -0.1481 -0.0445  0.0194
  329loPI   PO4 5252   9.960  16.135   9.473  0.0238 -0.1141 -0.0795
  329loPI   GL1 5253  10.151  16.019   9.081  0.1091  0.4277 -0.1819
  329loPI   GL2 5254  10.246  15.816   8.962 -0.0566  0.1552  0.0726
  329loPI   C1A 5255  10.249  16.197   8.647 -0.0519  0.1182  0.0833
  329loPI   C2A 5256  10.268  16.131   8.292  0.2010  0.0943  0.0607
  329loPI   C3A 5257  10.324  15.925   7.883  0.0291 -0.1601 -0.1165
  329loPI   C4A 5258  10.478  15.915   7.495  0.1175 -0.1137 -0.2129
  329loPI   C5A 5259  10.733  15.993   7.151 -0.0204  0.1759 -0.0493
  329loPI   C6A 5260  10.965  16.374   7.026 -0.3042 -0.4727  0.1818
  329loPI   C1B 5261  10.306  15.664   8.570  0.0612  0.0501 -0.1151
  329loPI   C2B 5262  10.503  15.475   8.228  0.0642 -0.3806  0.0161
  329loPI   C3B 5263  10.765  15.261   7.937 -0.2336 -0.1458  0.0602
  329loPI   C4B 5264  10.983  15.362   7.582 -0.1028  0.1162  0.1598
  330loPI    C1 5265  16.488  11.810  10.246 -0.1486  0.1475  0.1062
  330loPI    C2 5266  16.874  11.903  10.196 -0.1780  0.1543 -0.1172
  330loPI    C3 5267  16.712  11.911  10.561  0.1211 -0.1880  0.0290
  330loPI   PO4 5268  16.362  11.779   9.994 -0.1327  0.0377 -0.0302
  330loPI   GL1 5269  16.247  11.924   9.634  0.1077 -0.0045  0.0305
  330loPI   GL2 5270  16.219  12.242   9.527 -0.2053  0.1846  0.1489
  330loPI   C1A 5271  16.108  11.945   9.140  0.0046 -0.0019  0.0234
  330loPI   C2A 5272  16.180  11.955   8.750 -0.1902  0.1330 -0.1236
  330loPI   C3A 5273  16.254  12.116   8.389 -0.0535  0.0210 -0.0284
  330loPI   C4A 5274  15.955  12.201   8.060 -0.0470  0.4197 -0.1769
  330loPI   C5A 5275  15.591  12.203   7.845  0.2036  0.0527  0.0568
  330loPI   C6A 5276  15.269  12.439   7.608 -0.0561 -0.0724  0.1338
  330loPI   C1B 5277  16.359  12.419   9.038  0.0386  0.2064  0.0086
  330loPI   C2B 5278  16.417  12.486   8.623  0.0311 -0.0524 -0.0496
  330loPI   C3B 5279  16.409  12.558   8.150  0.1970 -0.3143 -0.2138
  330loPI   C4B 5280  16.396  12.321   7.834  0.0621 -0.0252 -0.2021
  331loPI    C1 5281  17.756   5.802   9.781 -0.0503  0.2050 -0.2523
  331loPI    C2 5282  17.894   5.632  10.116 -0.0519  0.3406 -0.1823
  331loPI    C3 5283  18.150   5.787   9.850 -0.0554  0.3241 -0.1952
  331loPI   PO4 5284  17.677   5.570   9.555  0.1146  0.0279  0.1365
  331loPI   GL1 5285  17.535   5.665   9.149  0.2179 -0.2256  0.3434
  331loPI   GL2 5286  17.312   5.855   9.178  0.1731  0.5097 -0.1005
  331loPI   C1A 5287  17.715   5.534   8.742  0.2126 -0.0500 -0.0570
  331loPI   C2A 5288  17.994   5.519   8.449  0.2856 -0.2483  0.0960
  331loPI   C3A 5289  18.150   5.399   7.971 -0.1565  0.0575 -0.0084
  331loPI   C4A 5290  18.281   4.976   7.950 -0.4377 -0.0239 -0.1731
  331loPI   C5A 5291  18.575   4.672   8.041  0.1274  0.2489 -0.0494
  331loPI   C6A 5292  19.018   4.755   8.031  0.2686  0.2323  0.3066
  331loPI   C1B 5293  17.246   5.799   8.745  0.2886  0.2756 -0.0455
  331loPI   C2B 5294  17.071   5.815   8.388  0.1015  0.0511 -0.0227
  331loPI   C3B 5295  17.020   6.050   7.952 -0.0244 -0.3588 -0.2106
  331loPI   C4B 5296  16.949   6.194   7.589 -0.0470 -0.0196 -0.0714
  332loPI    C1 5297  12.172  10.770   9.915 -0.0396 -0.0066 -0.0953
  332loPI    C2 5298  12.255  10.461  10.155 -0.1467  0.0262 -0.0151
  332loPI    C3 5299  12.135  10.808  10.312 -0.0999  0.0854 -0.1096
  332loPI   PO4 5300  12.356  10.686   9.762 -0.3176  0.0338  0.3063
  332loPI   GL1 5301  12.660  10.771   9.400 -0.2255 -0.1868  0.0738
  332loPI   GL2 5302  13.020  10.767   9.500  0.2620  0.0150  0.0235
  332loPI   C1A 5303  12.822  10.671   9.009 -0.3735 -0.2328 -0.2952
  332loPI   C2A 5304  13.136  10.701   8.710  0.2984  0.2478 -0.1221
  332loPI   C3A 5305  13.272  10.383   8.354  0.1275  0.0993 -0.0722
  332loPI   C4A 5306  13.383  10.171   8.069  0.1740 -0.0048  0.0316
  332loPI   C5A 5307  13.678  10.086   7.752  0.1460  0.3648 -0.2281
  332loPI   C6A 5308  14.083  10.142   7.516 -0.0842  0.0048 -0.0746
  332loPI   C1B 5309  13.057  11.035   9.277  0.0196  0.1483  0.4468
  332loPI   C2B 5310  13.039  11.321   8.928  0.0890  0.0695  0.0016
  332loPI   C3B 5311  13.101  11.647   8.652 -0.0854  0.0270  0.0111
  332loPI   C4B 5312  13.135  11.692   8.244 -0.2254 -0.4102  0.0923
  333loPI    C1 5313  11.360  16.490   9.591  0.0585 -0.1436  0.0634
  333loPI    C2 5314  11.434  16.648   9.951  0.1513 -0.0674  0.0117
  333loPI    C3 5315  11.404  16.251   9.909  0.2025 -0.0800  0.0923
  333loPI   PO4 5316  11.472  16.508   9.410 -0.2568 -0.2728  0.0881
  333loPI   GL1 5317  11.512  16.718   8.881  0.1519  0.1383 -0.2794
  333loPI   GL2 5318  11.180  16.676   8.963  0.2344  0.3752  0.0883
  333loPI   C1A 5319  11.517  16.510   8.549 -0.4396 -0.1012  0.0362
  333loPI   C2A 5320  11.533  16.503   8.091 -0.1042  0.2077 -0.3523
  333loPI   C3A 5321  11.058  16.577   7.847 -0.0643 -0.3392 -0.0458
  333loPI   C4A 5322  10.723  16.841   7.822 -0.1453 -0.3690  0.0572
  333loPI   C5A 5323  10.462  17.157   7.561  0.3136 -0.1042 -0.1485
  333loPI   C6A 5324  10.494  17.619   7.341 -0.2485  0.0270  0.0985
  333loPI   C1B 5325  10.902  16.654   8.660  0.0774 -0.1422 -0.3085
  333loPI   C2B 5326  10.616  16.522   8.393  0.0785 -0.1628  0.1192
  333loPI   C3B 5327  10.619  16.325   7.969  0.0604  0.1217 -0.0143
  333loPI   C4B 5328  10.347  16.389   7.640  0.1823  0.4615  0.0933
  334loPI    C1 5329   2.984  14.150  10.038  0.3125  0.0209  0.0127
  334loPI    C2 5330   3.260  14.227  10.317  0.2248 -0.1794  0.1576
  334loPI    C3 5331   2.962  13.972  10.395  0.0366 -0.0192 -0.0215
  334loPI   PO4 5332   3.103  14.306   9.823 -0.0453  0.0577 -0.1560
  334loPI   GL1 5333   3.035  14.732   9.695 -0.0747 -0.1938  0.0281
  334loPI   GL2 5334   2.795  14.894   9.701  0.2978 -0.1030  0.0138
  334loPI   C1A 5335   3.140  14.797   9.217 -0.1500  0.1495 -0.0009
  334loPI   C2A 5336   3.036  14.921   8.823  0.1954  0.0537  0.0919
  334loPI   C3A 5337   3.107  14.989   8.408  0.0325  0.2472 -0.1084
  334loPI   C4A 5338   3.155  14.967   8.008 -0.0885  0.1688  0.0020
  334loPI   C5A 5339   3.132  15.208   7.600  0.0537  0.1173  0.0541
  334loPI   C6A 5340   2.855  15.289   7.236 -0.2988 -0.0855 -0.1478
  334loPI   C1B 5341   2.698  14.622   9.295 -0.2070 -0.1762 -0.0557
  334loPI   C2B 5342   2.647  14.562   8.913  0.0640  0.0669 -0.0113
  334loPI   C3B 5343   2.590  14.552   8.404  0.0512  0.1826  0.0468
  334loPI   C4B 5344   2.653  14.780   8.186  0.3244  0.0034 -0.2025
  335loPI    C1 5345   9.885   6.333   9.537  0.1472  0.1167  0.1075
  335loPI    C2 5346   9.914   5.997   9.752 -0.0166 -0.1532 -0.2812
  335loPI    C3 5347   9.944   6.352   9.933  0.2336 -0.3727  0.1251
  335loPI   PO4 5348   9.964   6.165   9.191 -0.2424  0.0286  0.1659
  335loPI   GL1 5349  10.052   6.321   8.810  0.1598 -0.2073  0.0753
  335loPI   GL2 5350   9.988   6.669   8.565 -0.0939 -0.0157 -0.2864
  335loPI   C1A 5351   9.942   6.174   8.379  0.1025  0.0194 -0.0014
  335loPI   C2A 5352   9.805   6.236   7.948  0.0342  0.2182  0.0770
  335loPI   C3A 5353   9.792   6.438   7.539  0.2031 -0.2571 -0.3479
  335loPI   C4A 5354   9.746   6.794   7.275  0.0294  0.3296 -0.2230
  335loPI   C5A 5355   9.308   6.884   7.009 -0.1045  0.1720  0.0074
  335loPI   C6A 5356   8.943   7.063   6.752  0.3235 -0.0723 -0.3630
  335loPI   C1B 5357  10.182   6.597   8.251  0.0333 -0.2917 -0.1499
  335loPI   C2B 5358  10.283   6.591   7.833  0.1671 -0.0215  0.0215
  335loPI   C3B 5359  10.221   6.716   7.454 -0.1598  0.2329 -0.0421
  335loPI   C4B 5360  10.443   6.932   7.215  0.1350  0.0251 -0.2064
  336loPI    C1 5361   1.937  13.527   9.904 -0.0875 -0.0770 -0.0103
  336loPI    C2 5362   2.209  13.752  10.092  0.1674 -0.2376 -0.1811
  336loPI    C3 5363   2.262  13.356  10.063 -0.1037 -0.2754 -0.1852
  336loPI   PO4 5364   1.715  13.774   9.907 -0.5523 -0.4062  0.2507
  336loPI   GL1 5365   1.744  14.016   9.578 -0.3118 -0.1932 -0.1166
  336loPI   GL2 5366   2.158  14.006   9.591 -0.5106 -0.2918 -0.0724
  336loPI   C1A 5367   1.756  13.795   9.290 -0.1142  0.0861 -0.0563
  336loPI   C2A 5368   1.893  13.874   8.976 -0.2292  0.1999 -0.2986
  336loPI   C3A 5369   1.787  13.980   8.571 -0.1465  0.2218 -0.1432
  336loPI   C4A 5370   1.683  14.114   8.107  0.1309  0.0838 -0.2572
  336loPI   C5A 5371   1.830  14.257   7.711  0.4286 -0.0895 -0.5270
  336loPI   C6A 5372   2.284  14.363   7.641  0.2922 -0.0814 -0.1769
  336loPI   C1B 5373   2.197  14.194   9.259 -0.2352 -0.2101  0.0586
  336loPI   C2B 5374   2.109  14.374   8.814  0.0228  0.1064  0.0452
  336loPI   C3B 5375   1.960  14.377   8.405  0.2985  0.1247  0.1531
  336loPI   C4B 5376   2.149  14.520   8.099 -0.0564 -0.1413  0.1344
  337loPI    C1 5377  15.550   7.190   9.512  0.5789 -0.0998 -0.0875
  337loPI    C2 5378  15.691   6.849   9.668 -0.0797 -0.3609 -0.0327
  337loPI    C3 5379  15.478   7.101   9.895  0.2825  0.0278 -0.1110
  337loPI   PO4 5380  15.469   7.157   9.302 -0.1828  0.1622  0.1238
  337loPI   GL1 5381  15.571   7.179   8.955 -0.0970  0.2103  0.2731
  337loPI   GL2 5382  15.716   6.875   8.915  0.1713  0.2076  0.0612
  337loPI   C1A 5383  15.427   7.301   8.557 -0.1802 -0.2097  0.0282
  337loPI   C2A 5384  15.408   7.410   8.129  0.0443 -0.0357 -0.0829
  337loPI   C3A 5385  15.398   7.488   7.710  0.1153 -0.0663  0.0679
  337loPI   C4A 5386  15.460   7.583   7.243  0.1208 -0.1021  0.2174
  337loPI   C5A 5387  15.687   7.489   6.952  0.0001 -0.0942  0.2701
  337loPI   C6A 5388  15.854   7.610   6.565 -0.1047 -0.3355  0.1166
  337loPI   C1B 5389  15.580   6.882   8.398 -0.2458 -0.0443  0.0651
  337loPI   C2B 5390  15.463   6.928   7.999  0.3120  0.0777  0.1112
  337loPI   C3B 5391  15.208   7.083   7.583 -0.0561  0.2285 -0.2787
  337loPI   C4B 5392  14.830   7.218   7.444  0.2265 -0.2088  0.1495
  338loPI    C1 5393   2.301   7.845   9.762  0.1276 -0.1267 -0.3300
  338loPI    C2 5394   2.649   7.736   9.926  0.0027 -0.0666 -0.0180
  338loPI    C3 5395   2.304   7.626  10.097 -0.1300  0.1170 -0.1632
  338loPI   PO4 5396   2.300   7.830   9.483  0.1455 -0.4644  0.1365
  338loPI   GL1 5397   2.482   7.718   9.107  0.1533 -0.0495  0.1995
  338loPI   GL2 5398   2.443   8.134   9.161  0.0440  0.1987  0.2599
  338loPI   C1A 5399   2.678   7.605   8.685  0.2124  0.1263  0.0894
  338loPI   C2A 5400   2.712   7.801   8.261 -0.0978  0.1342  0.0484
  338loPI   C3A 5401   2.755   8.000   7.855  0.0902 -0.0613 -0.0598
  338loPI   C4A 5402   3.074   7.975   7.591  0.0642  0.2092 -0.1720
  338loPI   C5A 5403   3.498   7.911   7.324  0.1561 -0.2342 -0.1328
  338loPI   C6A 5404   3.945   7.821   7.339 -0.0469 -0.3643  0.0693
  338loPI   C1B 5405   2.149   8.173   8.863 -0.1795  0.1115  0.0905
  338loPI   C2B 5406   1.964   8.141   8.447  0.2424 -0.0030 -0.0296
  338loPI   C3B 5407   1.832   8.140   8.032  0.1295  0.1113  0.2423
  338loPI   C4B 5408   1.599   7.994   7.762 -0.0965 -0.0781  0.1138
  339loPI    C1 5409   8.107  14.557   9.691 -0.0320 -0.3122 -0.0837
  339loPI    C2 5410   8.028  14.295   9.983 -0.2400  0.1479  0.2865
  339loPI    C3 5411   8.331  14.554  10.023  0.0444 -0.1091 -0.1314
  339loPI   PO4 5412   7.871  14.373   9.522 -0.0874 -0.3314  0.1799
  339loPI   GL1 5413   7.857  14.082   9.240 -0.1234 -0.2033  0.0975
  339loPI   GL2 5414   8.126  13.865   9.074  0.2964  0.0975 -0.2413
  339loPI   C1A 5415   7.869  14.205   8.775  0.1912 -0.0334 -0.1697
  339loPI   C2A 5416   7.780  14.248   8.375 -0.0636  0.1264  0.0752
  339loPI   C3A 5417   7.922  14.387   7.961  0.0532 -0.1839  0.3048
  339loPI   C4A 5418   7.922  13.937   7.826 -0.1468  0.2428  0.1345
  339loPI   C5A 5419   8.112  13.552   7.614  0.1521 -0.3864  0.1959
  339loPI   C6A 5420   8.382  13.220   7.564  0.4462 -0.0713 -0.2305
  339loPI   C1B 5421   8.178  13.728   8.700 -0.0162 -0.2572 -0.0294
  339loPI   C2B 5422   8.282  13.412   8.366 -0.0423  0.1704 -0.0002
  339loPI   C3B 5423   8.084  13.248   8.053  0.1180 -0.0879 -0.0851
  339loPI   C4B 5424   7.904  13.063   7.769  0.1496 -0.1129 -0.1563
  340loPI    C1 5425   2.809  18.105  10.012  0.2324  0.0868  0.0439
  340loPI    C2 5426   2.602  17.770   9.941 -0.2606  0.3917 -0.0098
  340loPI    C3 5427   2.838  17.795  10.264 -0.2728  0.0218  0.0329
  340loPI   PO4 5428   2.910  18.135   9.850 -0.2000  0.0304 -0.0287
  340loPI   GL1 5429   2.660  18.169   9.493  0.1469  0.0186  0.1437
  340loPI   GL2 5430   2.657  17.934   9.433  0.2274 -0.2170 -0.5157
  340loPI   C1A 5431   2.379  18.407   9.196  0.2427  0.0952  0.4587
  340loPI   C2A 5432   2.291  18.431   8.748  0.0243  0.1573 -0.0433
  340loPI   C3A 5433   2.256  18.711   8.397  0.0397 -0.3261  0.0410
  340loPI   C4A 5434   2.466  18.626   7.979 -0.1542  0.0243 -0.2843
  340loPI   C5A 5435   2.726  18.572   7.625  0.1538 -0.0924  0.0654
  340loPI   C6A 5436   2.905  18.279   7.268 -0.0176  0.2115  0.2028
  340loPI   C1B 5437   2.714  18.006   8.983 -0.0774 -0.0910 -0.3048
  340loPI   C2B 5438   2.596  18.050   8.550  0.3204 -0.2986  0.2189
  340loPI   C3B 5439   2.291  18.226   8.267  0.0108  0.0956 -0.1862
  340loPI   C4B 5440   1.984  18.421   8.059 -0.1772 -0.1251 -0.1647
  341loPI    C1 5441   4.714  12.530   9.939  0.1473 -0.1116  0.1958
  341loPI    C2 5442   4.475  12.841  10.015  0.2934  0.0542 -0.0091
  341loPI    C3 5443   4.492  12.535  10.271 -0.0899  0.0675  0.0381
  341loPI   PO4 5444   4.902  12.600   9.920 -0.1687  0.1051  0.0044
  341loPI   GL1 5445   5.105  12.618   9.579  0.1542 -0.2392 -0.2035
  341loPI   GL2 5446   4.985  12.885   9.461 -0.0126  0.2460  0.0223
  341loPI   C1A 5447   5.337  12.475   9.400 -0.2968 -0.1563  0.0264
  341loPI   C2A 5448   5.366  12.256   9.041  0.5363 -0.0955 -0.2211
  341loPI   C3A 5449   5.119  12.304   8.545  0.2314  0.0494  0.0553
  341loPI   C4A 5450   4.798  12.351   8.151 -0.1150 -0.2887  0.0169
  341loPI   C5A 5451   4.344  12.342   8.174 -0.1317  0.0494 -0.2742
  341loPI   C6A 5452   3.971  12.160   7.945  0.1824  0.2475 -0.0789
  341loPI   C1B 5453   5.161  12.774   9.090 -0.1930  0.0105  0.0423
  341loPI   C2B 5454   5.379  12.850   8.711  0.1428  0.1233 -0.0203
  341loPI   C3B 5455   5.391  13.103   8.399  0.0379 -0.2165  0.2321
  341loPI   C4B 5456   5.663  13.401   8.230 -0.1220 -0.0219 -0.0237
  342loPI    C1 5457   4.349  17.253   9.814  0.0599  0.0695 -0.1068
  342loPI    C2 5458   4.551  17.459  10.092 -0.1425  0.3045 -0.1297
  342loPI    C3 5459   4.168  17.362  10.154 -0.0120 -0.1945 -0.0582
  342loPI   PO4 5460   4.549  17.328   9.470  0.3381 -0.1126 -0.2951
  342loPI   GL1 5461   4.705  17.304   9.116  0.1194 -0.1865  0.0217
  342loPI   GL2 5462   4.504  17.519   9.007 -0.0252  0.0556  0.0350
  342loPI   C1A 5463   4.653  17.056   8.736 -0.2697 -0.2682 -0.0657
  342loPI   C2A 5464   4.748  17.014   8.311  0.1536 -0.2220  0.0639
  342loPI   C3A 5465   5.061  17.135   7.931  0.0150 -0.0707  0.1163
  342loPI   C4A 5466   4.960  16.931   7.528 -0.1715 -0.1701 -0.0185
  342loPI   C5A 5467   4.781  16.988   7.190 -0.2922  0.0475 -0.3128
  342loPI   C6A 5468   4.402  17.161   6.941 -0.1188  0.0024 -0.2206
  342loPI   C1B 5469   4.474  17.588   8.593 -0.2338 -0.0062 -0.0177
  342loPI   C2B 5470   4.578  17.512   8.126 -0.1629  0.0793 -0.1629
  342loPI   C3B 5471   4.677  17.460   7.727  0.2104  0.0156  0.1173
  342loPI   C4B 5472   4.874  17.428   7.343  0.1673 -0.2043  0.4030
  343loPI    C1 5473  13.052  16.696  10.178 -0.1678 -0.0014  0.2328
  343loPI    C2 5474  12.734  16.473  10.083  0.0025 -0.0414 -0.2752
  343loPI    C3 5475  13.030  16.316  10.303 -0.2516 -0.0527  0.0658
  343loPI   PO4 5476  13.036  16.885   9.896  0.3194 -0.2648  0.3342
  343loPI   GL1 5477  13.143  16.957   9.551  0.1078 -0.0840  0.0386
  343loPI   GL2 5478  13.032  17.128   9.396  0.2159  0.0361 -0.0068
  343loPI   C1A 5479  12.992  16.506   9.345 -0.0213  0.1462 -0.1923
  343loPI   C2A 5480  13.194  16.127   9.094 -0.5328  0.0712 -0.3852
  343loPI   C3A 5481  13.284  15.686   8.999  0.2601 -0.0978 -0.0619
  343loPI   C4A 5482  13.482  15.455   8.736 -0.0056  0.1323 -0.0916
  343loPI   C5A 5483  13.597  15.287   8.362  0.0529  0.1241  0.0880
  343loPI   C6A 5484  13.793  15.530   8.132  0.0367  0.2492 -0.3320
  343loPI   C1B 5485  13.150  16.844   9.074  0.1359  0.0640  0.3978
  343loPI   C2B 5486  13.272  16.695   8.563 -0.1483 -0.1288 -0.2623
  343loPI   C3B 5487  13.355  16.727   8.040 -0.0985 -0.4218  0.2276
  343loPI   C4B 5488  13.077  16.577   7.726  0.1337  0.1815 -0.0604
  344loPI    C1 5489  10.885   8.691   9.644  0.0337  0.0035 -0.0354
  344loPI    C2 5490  10.560   8.872   9.791  0.0423  0.0151 -0.0306
  344loPI    C3 5491  10.763   8.612  10.017  0.0779  0.0621 -0.0082
  344loPI   PO4 5492  11.036   8.870   9.586  0.0437 -0.1420 -0.2872
  344loPI   GL1 5493  11.135   9.059   9.260  0.2153 -0.0802 -0.1595
  344loPI   GL2 5494  11.378   8.808   9.121 -0.0550 -0.2727  0.1975
  344loPI   C1A 5495  11.428   9.282   9.010  0.3180 -0.2014  0.0727
  344loPI   C2A 5496  11.458   9.248   8.510 -0.1529  0.1072  0.2264
  344loPI   C3A 5497  11.586   9.293   8.109  0.0463 -0.1810  0.1406
  344loPI   C4A 5498  11.764   9.352   7.743  0.3359 -0.0162 -0.0682
  344loPI   C5A 5499  11.741   9.472   7.337 -0.0169 -0.2014  0.1453
  344loPI   C6A 5500  11.588   9.278   7.012  0.2208 -0.2967  0.3874
  344loPI   C1B 5501  11.175   8.786   8.752  0.1018 -0.1229  0.0325
  344loPI   C2B 5502  11.292   8.792   8.351  0.1189 -0.0153  0.3999
  344loPI   C3B 5503  11.455   8.921   7.863 -0.0636 -0.0401  0.2635
  344loPI   C4B 5504  11.336   8.617   7.512  0.2485  0.0057 -0.1501
  345loPI    C1 5505   6.349   8.517   9.326 -0.1891  0.0320 -0.1706
  345loPI    C2 5506   6.156   8.167   9.331  0.0409 -0.0954  0.2039
  345loPI    C3 5507   6.534   8.185   9.201 -0.0523  0.0623 -0.0518
  345loPI   PO4 5508   6.167   8.697   9.261 -0.2628  0.0424  0.1384
  345loPI   GL1 5509   5.878   8.716   8.814 -0.0228 -0.1320 -0.0198
  345loPI   GL2 5510   6.093   8.393   8.891 -0.1222 -0.0346 -0.3221
  345loPI   C1A 5511   5.598   8.632   8.484 -0.0202 -0.1071 -0.0781
  345loPI   C2A 5512   5.615   8.635   7.984  0.0200 -0.0516  0.2044
  345loPI   C3A 5513   5.526   8.638   7.571  0.2318  0.0417 -0.0014
  345loPI   C4A 5514   5.364   8.577   7.202  0.2160  0.0867  0.3303
  345loPI   C5A 5515   5.053   8.518   6.939  0.0639  0.1362  0.1226
  345loPI   C6A 5516   4.702   8.497   6.725  0.0079  0.0532 -0.0082
  345loPI   C1B 5517   6.283   8.050   8.744  0.1840  0.2305  0.0985
  345loPI   C2B 5518   6.285   7.699   8.411 -0.0045 -0.1978 -0.0267
  345loPI   C3B 5519   6.219   7.569   8.029  0.2339 -0.0527  0.0585
  345loPI   C4B 5520   5.828   7.653   7.780  0.1382  0.0936 -0.1818
  346loPI    C1 5521  14.014  14.921   9.979  0.1607 -0.1791 -0.1358
  346loPI    C2 5522  13.762  15.148  10.190  0.0858 -0.3156 -0.0773
  346loPI    C3 5523  14.155  15.165  10.262  0.1177  0.0551 -0.3132
  346loPI   PO4 5524  13.827  14.728   9.903 -0.1843  0.1569  0.0319
  346loPI   GL1 5525  13.921  14.429   9.558 -0.3265 -0.3052  0.0084
  346loPI   GL2 5526  14.033  14.108   9.540  0.1107  0.1223  0.1270
  346loPI   C1A 5527  13.972  14.390   9.068  0.2822 -0.2219  0.2341
  346loPI   C2A 5528  13.755  14.286   8.684 -0.3211  0.0863  0.0009
  346loPI   C3A 5529  13.920  13.889   8.285 -0.1232  0.2632 -0.0185
  346loPI   C4A 5530  14.101  13.589   7.997  0.5468  0.2301 -0.3648
  346loPI   C5A 5531  14.343  13.205   8.028  0.0932  0.1329  0.3657
  346loPI   C6A 5532  14.575  12.842   7.785  0.3091  0.0863 -0.2662
  346loPI   C1B 5533  14.342  13.984   9.323  0.2433  0.1755  0.3915
  346loPI   C2B 5534  14.633  13.805   8.987 -0.1530 -0.2468 -0.2967
  346loPI   C3B 5535  14.872  13.900   8.561  0.0066  0.2044  0.3612
  346loPI   C4B 5536  15.062  13.659   8.204  0.1804  0.1221  0.3881
  347loPI    C1 5537   3.609  18.830   9.626  0.0651 -0.0755  0.1608
  347loPI    C2 5538   3.430  18.916   9.973  0.2551  0.3510  0.1602
  347loPI    C3 5539   3.827  18.876   9.958  0.2376  0.2230  0.0101
  347loPI   PO4 5540   3.372  18.977   9.431  0.0588 -0.2248 -0.0458
  347loPI   GL1 5541   3.309  19.150   8.955 -0.1869  0.5701  0.0221
  347loPI   GL2 5542   3.003  19.160   9.060  0.0762 -0.3127 -0.1167
  347loPI   C1A 5543   3.127  19.186   8.413 -0.4584  0.0410 -0.2868
  347loPI   C2A 5544   3.204  19.368   7.968  0.0128  0.0272  0.0599
  347loPI   C3A 5545   3.485  19.457   7.653 -0.1966  0.4421 -0.0777
  347loPI   C4A 5546   3.882  19.452   7.509 -0.1954  0.1838  0.0027
  347loPI   C5A 5547   4.324  19.599   7.470  0.0489 -0.1858 -0.2015
  347loPI   C6A 5548   4.710  19.926   7.395  0.4664 -0.0016 -0.1024
  347loPI   C1B 5549   2.995  19.536   8.786 -0.2513  0.3416 -0.2197
  347loPI   C2B 5550   3.128  19.713   8.419 -0.1643 -0.2341  0.0971
  347loPI   C3B 5551   2.858  19.917   8.128  0.0839 -0.1590 -0.2922
  347loPI   C4B 5552   2.862  20.205   7.762  0.1440  0.3320 -0.0643
  348loPI    C1 5553   5.809  17.440   9.790 -0.2195  0.4306  0.1018
  348loPI    C2 5554   5.535  17.283  10.036 -0.1042  0.1598  0.0607
  348loPI    C3 5555   5.444  17.353   9.653 -0.0739 -0.0672  0.0107
  348loPI   PO4 5556   6.039  17.307   9.687  0.2172  0.3435  0.0400
  348loPI   GL1 5557   6.306  17.329   9.318 -0.2748 -0.0213  0.1726
  348loPI   GL2 5558   6.313  17.530   9.100  0.1853 -0.0417 -0.1272
  348loPI   C1A 5559   6.320  17.102   8.836  0.1342  0.1377 -0.3176
  348loPI   C2A 5560   6.074  17.184   8.421 -0.3077  0.0088  0.2124
  348loPI   C3A 5561   6.033  16.915   8.053 -0.2299  0.0245 -0.1535
  348loPI   C4A 5562   6.154  16.837   7.574  0.2697 -0.3059 -0.0465
  348loPI   C5A 5563   6.033  16.713   7.194  0.1574 -0.1432  0.0634
  348loPI   C6A 5564   5.695  16.578   6.950  0.0083 -0.2053 -0.1576
  348loPI   C1B 5565   5.965  17.528   8.724 -0.0686 -0.1985  0.0237
  348loPI   C2B 5566   5.650  17.453   8.483  0.0144  0.1861  0.2115
  348loPI   C3B 5567   5.468  17.145   8.213 -0.0453 -0.0503 -0.0082
  348loPI   C4B 5568   5.560  16.904   7.851  0.4672 -0.3497  0.0815
  349loPI    C1 5569   3.135   1.633  10.131 -0.0281  0.2429  0.0365
  349loPI    C2 5570   2.744   1.555  10.157  0.0257  0.0114  0.1834
  349loPI    C3 5571   2.930   1.745  10.456  0.0400  0.0601  0.1437
  349loPI   PO4 5572   3.325   1.477  10.054  0.0914  0.2209  0.2743
  349loPI   GL1 5573   3.455   1.629   9.612 -0.1025 -0.1737  0.3139
  349loPI   GL2 5574   3.253   1.326   9.580 -0.0883 -0.1146 -0.0510
  349loPI   C1A 5575   3.514   1.459   9.213  0.1927  0.2900 -0.2728
  349loPI   C2A 5576   3.490   1.243   8.814  0.1437 -0.1509  0.1169
  349loPI   C3A 5577   3.605   1.195   8.442  0.3195 -0.0728 -0.2079
  349loPI   C4A 5578   3.718   0.989   7.981 -0.0498 -0.1248  0.3358
  349loPI   C5A 5579   3.886   1.179   7.614  0.0423 -0.0222  0.1244
  349loPI   C6A 5580   3.760   1.284   7.236  0.1126 -0.0136  0.0264
  349loPI   C1B 5581   3.019   1.475   9.238  0.0524 -0.1577 -0.3749
  349loPI   C2B 5582   2.939   1.128   8.864  0.2871  0.1957 -0.5749
  349loPI   C3B 5583   2.947   1.035   8.464  0.1916 -0.0726 -0.0111
  349loPI   C4B 5584   3.223   1.112   8.083 -0.0981 -0.0662 -0.1273
  350loPI    C1 5585   9.608   8.799   9.490 -0.2519 -0.0105 -0.1146
  350loPI    C2 5586   9.243   8.782   9.651 -0.1663 -0.0005  0.0839
  350loPI    C3 5587   9.556   8.634   9.850 -0.0736 -0.0856 -0.1222
  350loPI   PO4 5588   9.577   8.778   9.265  0.0806 -0.1323 -0.0331
  350loPI   GL1 5589   9.475   8.995   8.923  0.2103 -0.1455 -0.3554
  350loPI   GL2 5590   9.197   8.879   8.965 -0.1104  0.2625 -0.1256
  350loPI   C1A 5591   9.672   9.389   8.713  0.1262  0.2537 -0.1721
  350loPI   C2A 5592   9.718   9.448   8.262  0.1522  0.0658 -0.0058
  350loPI   C3A 5593   9.748   9.573   7.822 -0.2056  0.2574  0.0903
  350loPI   C4A 5594   9.605   9.821   7.519  0.1098 -0.0652  0.0586
  350loPI   C5A 5595   9.582  10.077   7.131 -0.0286  0.2412  0.2385
  350loPI   C6A 5596   9.450  10.129   6.737 -0.0096 -0.1699 -0.0814
  350loPI   C1B 5597   9.249   8.983   8.470  0.0253 -0.1515  0.0465
  350loPI   C2B 5598   9.207   9.337   8.112  0.2107  0.0417  0.2694
  350loPI   C3B 5599   9.271   9.349   7.691  0.1356  0.0599  0.0850
  350loPI   C4B 5600   9.501   9.374   7.287 -0.0401 -0.0543  0.1396
  351loPI    C1 5601  18.952  13.806  10.234 -0.0335 -0.0201 -0.3121
  351loPI    C2 5602  19.180  14.058  10.444 -0.0198  0.1375 -0.5128
  351loPI    C3 5603  19.340  13.727  10.288 -0.0586 -0.0479 -0.1696
  351loPI   PO4 5604  18.862  14.008  10.077  0.0913  0.1403  0.0278
  351loPI   GL1 5605  18.903  14.178   9.625  0.0937 -0.1785 -0.1452
  351loPI   GL2 5606  18.588  14.053   9.517 -0.1024  0.2324 -0.0931
  351loPI   C1A 5607  18.939  14.049   9.180  0.0883  0.0297 -0.1579
  351loPI   C2A 5608  19.175  14.068   8.721 -0.1279 -0.1903  0.0701
  351loPI   C3A 5609  19.120  14.044   8.255 -0.0424 -0.1431  0.0289
  351loPI   C4A 5610  18.859  13.776   7.950 -0.3121  0.1169  0.0408
  351loPI   C5A 5611  18.556  13.532   7.732  0.2076 -0.0406  0.0565
  351loPI   C6A 5612  18.272  13.265   7.605 -0.1833  0.1181 -0.2911
  351loPI   C1B 5613  18.409  14.126   9.045  0.0860 -0.2237 -0.0835
  351loPI   C2B 5614  18.176  13.868   8.867  0.0121  0.2154 -0.3228
  351loPI   C3B 5615  18.236  13.553   8.525 -0.0945 -0.0339 -0.2380
  351loPI   C4B 5616  18.555  13.506   8.246  0.1943 -0.1117  0.1711
  352loPI    C1 5617   3.784   0.923   9.944  0.2090  0.0258  0.0454
  352loPI    C2 5618   3.388   0.973   9.922  0.1927 -0.1679 -0.1419
  352loPI    C3 5619   3.587   1.089  10.249  0.0100  0.1074 -0.1249
  352loPI   PO4 5620   3.856   0.992   9.752  0.2351 -0.1782 -0.1933
  352loPI   GL1 5621   3.806   1.018   9.305 -0.1545 -0.2262 -0.4063
  352loPI   GL2 5622   3.901   0.762   9.310  0.1564  0.2031 -0.4835
  352loPI   C1A 5623   3.981   1.213   9.087 -0.1639  0.0858 -0.1837
  352loPI   C2A 5624   4.034   1.183   8.680  0.2422 -0.1929 -0.2207
  352loPI   C3A 5625   4.139   1.199   8.353  0.2806  0.1060 -0.1530
  352loPI   C4A 5626   4.262   1.315   7.942 -0.0575  0.3251 -0.1254
  352loPI   C5A 5627   4.435   1.491   7.581 -0.0543  0.1613 -0.0247
  352loPI   C6A 5628   4.576   1.608   7.330  0.0596 -0.2541  0.0725
  352loPI   C1B 5629   3.885   0.729   8.881  0.1462  0.1021 -0.1350
  352loPI   C2B 5630   3.984   0.326   8.716  0.5424 -0.1614 -0.1476
  352loPI   C3B 5631   3.951   0.040   8.421 -0.0384  0.0232 -0.1052
  352loPI   C4B 5632   4.067  -0.065   7.972  0.1492  0.1259 -0.1655
  353loPI    C1 5633  10.354   6.500   9.637 -0.1150 -0.1041  0.2563
  353loPI    C2 5634  10.438   6.890   9.663  0.0992 -0.1317  0.0137
  353loPI    C3 5635  10.678   6.621   9.837  0.0098 -0.1620  0.0909
  353loPI   PO4 5636  10.334   6.512   9.339 -0.3202  0.0778 -0.1737
  353loPI   GL1 5637  10.451   6.781   9.039  0.1332  0.1770 -0.2722
  353loPI   GL2 5638  10.475   7.096   8.859 -0.2102 -0.2227  0.4836
  353loPI   C1A 5639  10.528   6.550   8.646  0.2017  0.1498  0.0228
  353loPI   C2A 5640  10.744   6.467   8.314  0.2410 -0.2016 -0.1075
  353loPI   C3A 5641  10.757   6.489   8.033 -0.2738 -0.1229 -0.1787
  353loPI   C4A 5642  11.031   6.782   7.822  0.4637 -0.2841 -0.3561
  353loPI   C5A 5643  11.314   6.768   7.582  0.1503 -0.3025 -0.3301
  353loPI   C6A 5644  11.534   6.659   7.231 -0.0720 -0.1471 -0.2883
  353loPI   C1B 5645  10.379   6.985   8.501 -0.3090  0.1872 -0.0063
  353loPI   C2B 5646  10.219   7.237   8.183  0.0472  0.1282  0.1425
  353loPI   C3B 5647  10.021   7.499   7.871  0.0808  0.2244 -0.1765
  353loPI   C4B 5648   9.899   7.844   7.632 -0.1885  0.4545 -0.3263
  354loPI    C1 5649  15.595   1.125   9.423  0.1672  0.0049  0.1362
  354loPI    C2 5650  15.501   1.251   9.056 -0.1423  0.0873  0.2405
  354loPI    C3 5651  15.847   1.363   9.223 -0.0215  0.0880 -0.0052
  354loPI   PO4 5652  15.418   0.916   9.399 -0.0220  0.0280 -0.0987
  354loPI   GL1 5653  15.052   0.927   9.265  0.0222  0.0316 -0.1008
  354loPI   GL2 5654  14.806   0.687   9.178 -0.1708  0.1866  0.1880
  354loPI   C1A 5655  14.946   1.078   8.926  0.3143  0.0815 -0.1046
  354loPI   C2A 5656  14.891   1.145   8.486  0.0266  0.0155  0.1978
  354loPI   C3A 5657  14.844   1.232   7.964 -0.0980 -0.2555 -0.0676
  354loPI   C4A 5658  14.838   1.502   7.559 -0.1946 -0.1346  0.1078
  354loPI   C5A 5659  14.889   1.417   7.122 -0.1292 -0.3642  0.0745
  354loPI   C6A 5660  14.930   1.336   6.732  0.1001  0.1287  0.0892
  354loPI   C1B 5661  14.818   0.615   8.613  0.0537  0.1071 -0.1435
  354loPI   C2B 5662  14.827   0.689   8.190  0.0702  0.1331 -0.0713
  354loPI   C3B 5663  14.683   0.635   7.862  0.3301  0.3594 -0.2825
  354loPI   C4B 5664  14.717   0.973   7.570  0.2329 -0.1573 -0.3444
  355loPI    C1 5665   8.672   6.881   9.526  0.2106  0.1717 -0.1733
  355loPI    C2 5666   8.605   7.246   9.675  0.0783 -0.0902  0.4359
  355loPI    C3 5667   8.332   7.073   9.440  0.1205  0.1796  0.1840
  355loPI   PO4 5668   8.962   6.956   9.496 -0.1337 -0.2197  0.1822
  355loPI   GL1 5669   9.250   6.994   9.153 -0.0053 -0.2391  0.0506
  355loPI   GL2 5670   9.433   6.827   9.003 -0.0152  0.1530  0.1291
  355loPI   C1A 5671   9.188   7.234   8.834  0.4446  0.0786 -0.0372
  355loPI   C2A 5672   9.188   7.298   8.383 -0.0515 -0.3151 -0.0021
  355loPI   C3A 5673   9.331   7.357   7.855 -0.0135  0.0216 -0.0189
  355loPI   C4A 5674   9.547   7.493   7.445  0.2364 -0.2599 -0.1527
  355loPI   C5A 5675   9.690   7.284   7.015  0.1602  0.1919  0.3386
  355loPI   C6A 5676   9.518   7.129   6.611  0.0133  0.0133  0.3055
  355loPI   C1B 5677   9.579   6.921   8.541  0.3077 -0.0443  0.2129
  355loPI   C2B 5678   9.725   7.056   8.100 -0.1391 -0.4341  0.1148
  355loPI   C3B 5679   9.974   6.992   7.743  0.2327 -0.1027 -0.1499
  355loPI   C4B 5680  10.035   7.197   7.372 -0.3131 -0.1901 -0.2939
  356loPI    C1 5681   0.506  13.036  10.339 -0.1397 -0.1067  0.1150
  356loPI    C2 5682   0.165  13.244  10.326  0.0527  0.2121  0.0646
  356loPI    C3 5683   0.282  13.072  10.668 -0.1182  0.1680  0.1015
  356loPI   PO4 5684   0.609  13.002  10.030 -0.1128  0.0143 -0.3384
  356loPI   GL1 5685   0.692  12.896   9.688 -0.2227  0.1578  0.0176
  356loPI   GL2 5686   0.843  13.222   9.606 -0.2911  0.0655 -0.4407
  356loPI   C1A 5687   0.811  12.928   9.185 -0.1008 -0.1486 -0.3775
  356loPI   C2A 5688   1.013  13.154   8.827  0.0963 -0.1092 -0.0515
  356loPI   C3A 5689   0.975  13.178   8.334  0.0148  0.1697 -0.0368
  356loPI   C4A 5690   1.013  13.094   8.037 -0.1000  0.0825 -0.1851
  356loPI   C5A 5691   1.282  13.192   7.592 -0.1649  0.0790  0.1251
  356loPI   C6A 5692   1.473  12.788   7.413  0.1934 -0.0678 -0.0556
  356loPI   C1B 5693   1.231  13.418   9.318  0.1059  0.3222  0.0524
  356loPI   C2B 5694   1.419  13.517   8.970 -0.0912  0.2106  0.1828
  356loPI   C3B 5695   1.501  13.508   8.593  0.1736 -0.0912 -0.0573
  356loPI   C4B 5696   1.395  13.420   8.135  0.2531  0.0942  0.2187
  357loPI    C1 5697  17.900  14.112  10.006 -0.0702  0.1923  0.1188
  357loPI    C2 5698  17.526  14.014  10.107  0.0405 -0.1026  0.2510
  357loPI    C3 5699  17.767  14.186  10.376 -0.0105  0.1234  0.1542
  357loPI   PO4 5700  17.820  14.259   9.782  0.4146 -0.0507 -0.0125
  357loPI   GL1 5701  17.540  14.220   9.506 -0.0161  0.1198  0.1335
  357loPI   GL2 5702  17.604  13.917   9.464  0.1482 -0.6023 -0.3827
  357loPI   C1A 5703  17.525  14.267   9.094 -0.0050  0.1313  0.1075
  357loPI   C2A 5704  17.531  14.401   8.713 -0.0274 -0.0180 -0.3031
  357loPI   C3A 5705  17.746  14.640   8.526  0.1348  0.1074  0.1136
  357loPI   C4A 5706  17.581  14.916   8.156 -0.0361  0.4819  0.0759
  357loPI   C5A 5707  17.643  15.058   7.718 -0.2244 -0.0741  0.3393
  357loPI   C6A 5708  17.742  15.153   7.245  0.0606  0.2129 -0.1274
  357loPI   C1B 5709  17.661  13.805   9.035 -0.0514  0.0288  0.2089
  357loPI   C2B 5710  17.676  13.951   8.567  0.3208 -0.0290 -0.0773
  357loPI   C3B 5711  17.684  14.217   8.254 -0.0161  0.1199 -0.1071
  357loPI   C4B 5712  17.875  14.481   7.948 -0.2645 -0.0243 -0.0284
  358loPI    C1 5713  17.617   3.702   9.935  0.1263  0.0446 -0.1403
  358loPI    C2 5714  17.864   3.431  10.095  0.0139 -0.1370 -0.2707
  358loPI    C3 5715  17.588   3.609  10.323  0.1786 -0.0284 -0.1536
  358loPI   PO4 5716  17.796   3.679   9.688  0.2221  0.3684  0.1710
  358loPI   GL1 5717  18.092   3.521   9.510 -0.1167  0.1945  0.1049
  358loPI   GL2 5718  17.884   3.519   9.265  0.2940 -0.1242  0.1009
  358loPI   C1A 5719  18.356   3.587   9.136  0.1622  0.1241  0.2921
  358loPI   C2A 5720  18.419   3.567   8.638  0.0118 -0.0730 -0.2058
  358loPI   C3A 5721  18.311   3.472   8.225 -0.2419 -0.1182  0.0834
  358loPI   C4A 5722  18.114   3.398   7.734  0.1062  0.1639 -0.1564
  358loPI   C5A 5723  18.402   3.477   7.419 -0.2895  0.0887 -0.0130
  358loPI   C6A 5724  18.522   3.290   7.012  0.1403  0.1244  0.2029
  358loPI   C1B 5725  17.935   3.622   8.846 -0.1470  0.0439 -0.0266
  358loPI   C2B 5726  17.874   3.438   8.422  0.1666 -0.0866  0.0085
  358loPI   C3B 5727  17.449   3.272   8.326 -0.3354 -0.0550 -0.0340
  358loPI   C4B 5728  17.165   3.104   8.079  0.0119  0.3429  0.2226
  359loPI    C1 5729   2.332   0.501  10.164  0.2420 -0.0803 -0.1532
  359loPI    C2 5730   2.025   0.310   9.993  0.1037  0.0778 -0.0838
  359loPI    C3 5731   2.336   0.102  10.135 -0.0505 -0.0968  0.0022
  359loPI   PO4 5732   2.400   0.638  10.087 -0.0544  0.1197 -0.0362
  359loPI   GL1 5733   2.382   0.728   9.672 -0.1916  0.2128  0.3338
  359loPI   GL2 5734   2.630   0.973   9.687 -0.4298  0.3111  0.0950
  359loPI   C1A 5735   2.501   0.853   9.230 -0.2213  0.2847 -0.0744
  359loPI   C2A 5736   2.357   1.061   8.880  0.2135 -0.1835 -0.0344
  359loPI   C3A 5737   2.253   1.352   8.558  0.2895  0.1246 -0.0766
  359loPI   C4A 5738   2.300   1.665   8.195  0.2558  0.0829 -0.0072
  359loPI   C5A 5739   2.363   1.782   7.787 -0.2033 -0.0030 -0.0235
  359loPI   C6A 5740   2.269   2.075   7.553  0.1852  0.0398 -0.0982
  359loPI   C1B 5741   2.866   1.075   9.424 -0.3103 -0.3842  0.0154
  359loPI   C2B 5742   3.267   0.859   9.145 -0.2456 -0.1436 -0.2138
  359loPI   C3B 5743   3.321   0.749   8.789  0.2805 -0.0492 -0.2926
  359loPI   C4B 5744   3.581   0.749   8.452 -0.2261  0.2138  0.0242
  360loPI    C1 5745   0.841   2.318   9.625  0.7422  0.3550 -0.0104
  360loPI    C2 5746   1.012   1.956   9.620  0.2394  0.1042  0.1876
  360loPI    C3 5747   0.733   2.050   9.348  0.3048  0.3133  0.1910
  360loPI   PO4 5748   0.956   2.489   9.615  0.1760  0.0965  0.0356
  360loPI   GL1 5749   1.291   2.703   9.314  0.0672 -0.4013 -0.2005
  360loPI   GL2 5750   1.474   2.857   9.476  0.2745 -0.0596  0.1105
  360loPI   C1A 5751   1.135   2.799   8.874 -0.0950 -0.3280  0.3320
  360loPI   C2A 5752   0.966   2.914   8.529 -0.1128  0.0214  0.0575
  360loPI   C3A 5753   0.954   3.089   8.072 -0.2036  0.1649 -0.0013
  360loPI   C4A 5754   0.695   3.179   7.662 -0.4903  0.2637 -0.0960
  360loPI   C5A 5755   0.382   2.837   7.342 -0.1393  0.2023  0.0818
  360loPI   C6A 5756   0.292   2.813   6.895  0.4013  0.1864  0.0951
  360loPI   C1B 5757   1.224   3.196   9.118  0.4384 -0.4039  0.0057
  360loPI   C2B 5758   1.327   3.279   8.663  0.2345  0.0159 -0.3333
  360loPI   C3B 5759   1.700   3.423   8.582  0.2831  0.3477  0.0638
  360loPI   C4B 5760   1.762   3.397   8.215 -0.0546 -0.0885 -0.3742
  361loPI    C1 5761   0.186  16.336  10.420 -0.0674 -0.1159 -0.3717
  361loPI    C2 5762  -0.127  16.088  10.411 -0.0494 -0.1560 -0.0283
  361loPI    C3 5763  -0.036  16.283  10.749  0.0300  0.2012 -0.2502
  361loPI   PO4 5764   0.182  16.320  10.128  0.0577 -0.0614 -0.0324
  361loPI   GL1 5765  -0.090  16.405   9.925 -0.0836  0.0896 -0.1854
  361loPI   GL2 5766  -0.251  16.788   9.891 -0.1960 -0.0584 -0.2506
  361loPI   C1A 5767  -0.291  16.276   9.560  0.0276 -0.1117 -0.0587
  361loPI   C2A 5768  -0.320  16.229   9.127  0.1753 -0.0236  0.1042
  361loPI   C3A 5769  -0.549  16.139   8.748 -0.2956 -0.3123  0.3088
  361loPI   C4A 5770  -0.750  15.875   8.498  0.1189  0.0987 -0.1465
  361loPI   C5A 5771  -0.715  15.695   8.097  0.0874 -0.0134  0.1100
  361loPI   C6A 5772  -0.443  15.924   7.798 -0.0707  0.2389  0.3259
  361loPI   C1B 5773  -0.509  16.753   9.480  0.1505 -0.1054 -0.2932
  361loPI   C2B 5774  -0.879  16.886   9.461  0.1436  0.2181 -0.2732
  361loPI   C3B 5775  -1.322  16.791   9.501  0.4107 -0.0418  0.2748
  361loPI   C4B 5776  -1.716  16.508   9.516  0.0381  0.0925  0.1248
  362loPI    C1 5777  18.449  15.352  10.384  0.0396  0.1855 -0.4371
  362loPI    C2 5778  18.486  14.953  10.385  0.0353  0.1802  0.0260
  362loPI    C3 5779  18.127  15.120  10.438  0.0793  0.2454  0.1214
  362loPI   PO4 5780  18.513  15.430  10.128 -0.2154 -0.0312 -0.0607
  362loPI   GL1 5781  18.829  15.507   9.847 -0.0939 -0.2517 -0.3224
  362loPI   GL2 5782  18.672  15.847   9.878 -0.1639  0.0537  0.1017
  362loPI   C1A 5783  18.749  15.389   9.346 -0.0133  0.3508  0.2067
  362loPI   C2A 5784  18.603  15.104   8.961 -0.0288  0.2101 -0.0230
  362loPI   C3A 5785  18.723  14.988   8.536  0.0271  0.3085 -0.1541
  362loPI   C4A 5786  18.607  14.871   8.199 -0.0372  0.2395  0.1261
  362loPI   C5A 5787  18.853  14.771   7.737  0.1298 -0.3325 -0.2332
  362loPI   C6A 5788  19.015  15.058   7.375  0.0242 -0.1466  0.2093
  362loPI   C1B 5789  18.487  15.795   9.504 -0.1683  0.1145 -0.1082
  362loPI   C2B 5790  18.301  15.951   9.042  0.0609  0.1173  0.2417
  362loPI   C3B 5791  18.153  16.219   8.754 -0.0415 -0.0285  0.0568
  362loPI   C4B 5792  18.342  16.326   8.358 -0.2126 -0.0625  0.0939
  363loPI    C1 5793   3.943  16.667   9.584 -0.3243 -0.0196  0.2474
  363loPI    C2 5794   3.815  16.513   9.237 -0.2687  0.0449  0.1980
  363loPI    C3 5795   3.929  16.270   9.534 -0.1275 -0.0098  0.1006
  363loPI   PO4 5796   4.090  16.833   9.539 -0.0352  0.1136 -0.0601
  363loPI   GL1 5797   4.145  17.090   9.210  0.3483  0.1748  0.0634
  363loPI   GL2 5798   3.856  17.148   9.225  0.0960 -0.1701  0.1298
  363loPI   C1A 5799   4.208  17.188   8.804 -0.0116 -0.2857 -0.0118
  363loPI   C2A 5800   4.301  17.175   8.388  0.0186 -0.0428  0.0863
  363loPI   C3A 5801   4.392  17.028   8.020 -0.1405 -0.0710  0.2889
  363loPI   C4A 5802   4.396  17.037   7.570 -0.0357 -0.1833  0.0562
  363loPI   C5A 5803   4.356  16.738   7.206 -0.0742  0.2938 -0.0382
  363loPI   C6A 5804   4.335  16.583   6.765  0.3225  0.0135  0.0971
  363loPI   C1B 5805   3.723  17.096   8.798  0.0172  0.0613 -0.1305
  363loPI   C2B 5806   3.793  17.109   8.433  0.0858  0.3263 -0.0572
  363loPI   C3B 5807   3.817  17.008   8.035 -0.1361 -0.0027 -0.2717
  363loPI   C4B 5808   3.916  17.104   7.694  0.0111  0.1538 -0.1519
  364loPI    C1 5809  10.515   4.579   9.492 -0.2031 -0.1277  0.1566
  364loPI    C2 5810  10.653   4.337   9.779 -0.2884 -0.1231  0.2018
  364loPI    C3 5811  10.302   4.523   9.826 -0.0784  0.2558  0.3062
  364loPI   PO4 5812  10.753   4.662   9.354 -0.0306  0.0214  0.0350
  364loPI   GL1 5813  11.143   4.619   9.098 -0.2774  0.2246 -0.1395
  364loPI   GL2 5814  11.501   4.482   8.976  0.3347  0.1721  0.1018
  364loPI   C1A 5815  11.062   4.301   8.751 -0.3825  0.1843 -0.0452
  364loPI   C2A 5816  10.848   4.147   8.442 -0.1690  0.5342  0.1637
  364loPI   C3A 5817  10.615   4.064   8.019  0.1669 -0.3048  0.1687
  364loPI   C4A 5818  10.672   4.074   7.617 -0.1792 -0.1045 -0.0851
  364loPI   C5A 5819  10.500   4.310   7.339  0.0953  0.0623 -0.1062
  364loPI   C6A 5820  10.265   4.627   7.036  0.0514  0.0352 -0.0476
  364loPI   C1B 5821  11.676   4.569   8.604 -0.1669 -0.1587  0.4299
  364loPI   C2B 5822  12.070   4.565   8.406 -0.2310  0.0661  0.2186
  364loPI   C3B 5823  12.164   4.594   8.028  0.2629 -0.2507  0.2462
  364loPI   C4B 5824  12.205   4.603   7.605 -0.2381  0.1179 -0.0564
  365loPI    C1 5825  15.936   7.316   9.815 -0.1267 -0.2717 -0.0936
  365loPI    C2 5826  16.087   6.958   9.911  0.1464 -0.1272  0.0302
  365loPI    C3 5827  16.010   7.225  10.198  0.5142  0.1329 -0.1061
  365loPI   PO4 5828  16.002   7.383   9.671 -0.0856  0.1808 -0.0759
  365loPI   GL1 5829  15.857   7.608   9.326 -0.0590  0.3805  0.0071
  365loPI   GL2 5830  15.691   7.632   9.251 -0.1768  0.3149 -0.2077
  365loPI   C1A 5831  15.967   8.037   9.010 -0.0368  0.5505 -0.1503
  365loPI   C2A 5832  16.091   7.995   8.523  0.1297  0.2326 -0.0447
  365loPI   C3A 5833  16.285   8.022   8.131 -0.0555 -0.0532 -0.0339
  365loPI   C4A 5834  16.461   8.113   7.806 -0.0053 -0.1988  0.0961
  365loPI   C5A 5835  16.273   8.004   7.426 -0.2102 -0.1116  0.0084
  365loPI   C6A 5836  16.419   8.017   7.067  0.3775  0.0437  0.5636
  365loPI   C1B 5837  15.650   7.661   8.812 -0.1773  0.0372  0.3095
  365loPI   C2B 5838  15.848   7.563   8.383  0.2247 -0.3496 -0.1368
  365loPI   C3B 5839  15.777   7.832   7.978 -0.3337 -0.1633 -0.1402
  365loPI   C4B 5840  15.964   8.106   7.782  0.1370  0.1629  0.0344
  366loPI    C1 5841   5.969  12.630   9.970  0.1436 -0.3338  0.2216
  366loPI    C2 5842   5.582  12.592   9.878  0.1586 -0.0838  0.0445
  366loPI    C3 5843   5.715  12.472  10.235 -0.0654 -0.2476  0.0755
  366loPI   PO4 5844   6.085  12.517   9.773  0.3100  0.2115 -0.1032
  366loPI   GL1 5845   5.942  12.438   9.433  0.1323 -0.1058  0.0479
  366loPI   GL2 5846   5.761  12.082   9.351 -0.0567  0.1220  0.1820
  366loPI   C1A 5847   5.808  12.498   9.059  0.0351 -0.0560 -0.0683
  366loPI   C2A 5848   5.664  12.453   8.657 -0.3183 -0.1837  0.0485
  366loPI   C3A 5849   5.397  12.574   8.224 -0.0048  0.2314  0.3937
  366loPI   C4A 5850   5.332  12.410   7.880  0.0586  0.1807  0.2949
  366loPI   C5A 5851   5.067  12.098   7.736  0.0366  0.3182  0.2400
  366loPI   C6A 5852   4.920  11.962   7.353  0.3103  0.1767 -0.1510
  366loPI   C1B 5853   5.726  11.979   8.842 -0.0440 -0.0946 -0.2329
  366loPI   C2B 5854   5.513  12.069   8.458  0.0075  0.1577 -0.0892
  366loPI   C3B 5855   5.320  11.851   8.166  0.1300 -0.1846 -0.0144
  366loPI   C4B 5856   5.285  11.555   7.822 -0.2346  0.1573 -0.1121
  367loPI    C1 5857   6.371   5.248   9.222 -0.0257  0.2313 -0.0658
  367loPI    C2 5858   6.419   5.593   9.419 -0.1741  0.3048 -0.1566
  367loPI    C3 5859   6.063   5.411   9.418 -0.0272  0.0067  0.1227
  367loPI   PO4 5860   6.522   5.221   9.045 -0.0766 -0.1521 -0.1180
  367loPI   GL1 5861   6.502   5.206   8.627  0.1157  0.0612 -0.0574
  367loPI   GL2 5862   6.158   5.263   8.665  0.0401  0.0697  0.0294
  367loPI   C1A 5863   6.568   5.078   8.183  0.1590  0.1613  0.0639
  367loPI   C2A 5864   6.781   5.201   7.881  0.0155  0.1119 -0.2712
  367loPI   C3A 5865   6.721   5.639   7.778 -0.0093 -0.4054 -0.0480
  367loPI   C4A 5866   6.768   5.800   7.280 -0.2302 -0.4577 -0.1012
  367loPI   C5A 5867   6.945   5.898   6.888  0.1859 -0.4259  0.1815
  367loPI   C6A 5868   7.031   6.215   6.494 -0.2533 -0.1537 -0.0064
  367loPI   C1B 5869   6.189   5.423   8.343  0.3047 -0.0759  0.0609
  367loPI   C2B 5870   6.319   5.310   7.843  0.1873  0.2465  0.3586
  367loPI   C3B 5871   6.439   5.266   7.403 -0.2214  0.0280  0.1051
  367loPI   C4B 5872   6.818   5.270   7.145 -0.1435  0.1217  0.0540
  368loPI    C1 5873   3.711  13.512   9.955  0.1730  0.1396  0.1541
  368loPI    C2 5874   3.554  13.248  10.212 -0.0507  0.2273  0.1103
  368loPI    C3 5875   3.912  13.410  10.285 -0.0144  0.0850  0.2531
  368loPI   PO4 5876   3.547  13.550   9.691 -0.1550 -0.2310 -0.0663
  368loPI   GL1 5877   3.587  13.400   9.300  0.0938  0.0105  0.0951
  368loPI   GL2 5878   3.694  13.067   9.291 -0.2005 -0.3845 -0.1192
  368loPI   C1A 5879   3.769  13.525   9.080  0.1577 -0.1710  0.0168
  368loPI   C2A 5880   3.661  13.667   8.718 -0.3350  0.1680  0.0026
  368loPI   C3A 5881   3.594  13.720   8.278 -0.4315  0.4506  0.4446
  368loPI   C4A 5882   3.483  13.840   7.923  0.2002 -0.0895  0.3520
  368loPI   C5A 5883   3.371  13.595   7.559  0.1826 -0.5198 -0.1265
  368loPI   C6A 5884   3.158  13.382   7.217  0.0444  0.0719  0.7083
  368loPI   C1B 5885   3.725  13.131   8.812  0.3150  0.0263 -0.0687
  368loPI   C2B 5886   3.911  13.177   8.349  0.1898  0.0624 -0.0384
  368loPI   C3B 5887   4.198  13.140   8.137 -0.1523  0.0406 -0.1380
  368loPI   C4B 5888   4.587  13.360   7.941 -0.4156 -0.3415 -0.2960
  369loPI    C1 5889   6.971  15.058  10.133  0.0046 -0.0896 -0.2083
  369loPI    C2 5890   7.039  14.818  10.445 -0.1525 -0.1099 -0.1888
  369loPI    C3 5891   7.340  14.921  10.203  0.0076  0.0575  0.0765
  369loPI   PO4 5892   6.838  14.988  10.003  0.2100  0.0793 -0.0947
  369loPI   GL1 5893   6.886  15.045   9.623  0.1886 -0.2753 -0.5964
  369loPI   GL2 5894   6.773  14.763   9.612 -0.0778  0.0627 -0.0956
  369loPI   C1A 5895   6.658  15.236   9.239  0.1242 -0.1336 -0.0703
  369loPI   C2A 5896   6.494  15.443   8.847 -0.1766  0.1779 -0.3459
  369loPI   C3A 5897   6.573  15.645   8.477  0.0560 -0.3315 -0.1398
  369loPI   C4A 5898   6.406  15.499   8.050 -0.1187  0.1996 -0.0189
  369loPI   C5A 5899   6.151  15.515   7.718  0.1553 -0.0109  0.2675
  369loPI   C6A 5900   6.100  15.195   7.460  0.1292 -0.2219  0.1559
  369loPI   C1B 5901   6.526  14.743   9.234 -0.1581  0.3374  0.0521
  369loPI   C2B 5902   6.419  14.887   8.862 -0.2278 -0.1139 -0.2293
  369loPI   C3B 5903   6.173  14.936   8.408  0.1931 -0.0607 -0.1533
  369loPI   C4B 5904   6.287  14.960   8.005  0.1681 -0.1924  0.0772
  370loPI    C1 5905  11.891   2.601  10.039  0.0100  0.1222  0.1935
  370loPI    C2 5906  12.139   2.820  10.264  0.0738 -0.0370  0.2795
  370loPI    C3 5907  12.021   2.459  10.390 -0.1860  0.0289  0.2298
  370loPI   PO4 5908  11.998   2.664   9.767  0.0610 -0.0075 -0.0029
  370loPI   GL1 5909  11.803   2.473   9.527 -0.0664  0.3379 -0.0229
  370loPI   GL2 5910  11.712   2.660   9.204  0.0020 -0.0425  0.1128
  370loPI   C1A 5911  12.101   2.348   9.192  0.0679 -0.0033 -0.3237
  370loPI   C2A 5912  12.178   2.106   8.775 -0.2524  0.2024 -0.0831
  370loPI   C3A 5913  12.158   1.948   8.339 -0.0657 -0.1435 -0.2468
  370loPI   C4A 5914  11.994   2.045   7.938 -0.1392  0.1495  0.1512
  370loPI   C5A 5915  11.966   1.693   7.543 -0.1655 -0.2552  0.0326
  370loPI   C6A 5916  12.133   1.343   7.510  0.0139 -0.0748  0.2495
  370loPI   C1B 5917  11.721   2.322   8.835 -0.1285  0.2255  0.0746
  370loPI   C2B 5918  11.615   1.990   8.533  0.0260 -0.0210 -0.4390
  370loPI   C3B 5919  11.511   1.775   8.250 -0.1297  0.2275 -0.3962
  370loPI   C4B 5920  11.715   1.560   7.906 -0.1219 -0.2329  0.1722
  371loPI    C1 5921   2.789   4.682   9.690 -0.0664  0.0367  0.1555
  371loPI    C2 5922   2.619   4.389   9.476  0.1729 -0.0724  0.1105
  371loPI    C3 5923   2.941   4.312   9.699  0.2412  0.1588  0.0948
  371loPI   PO4 5924   2.806   4.893   9.483  0.0151 -0.3094  0.2655
  371loPI   GL1 5925   2.750   4.744   9.115 -0.0031 -0.0564  0.0395
  371loPI   GL2 5926   2.648   5.153   9.078 -0.1961 -0.2593 -0.1596
  371loPI   C1A 5927   2.391   4.866   8.753  0.1084  0.1071  0.1974
  371loPI   C2A 5928   2.025   4.665   8.489 -0.1512  0.0331 -0.3133
  371loPI   C3A 5929   1.939   4.784   8.160  0.0201  0.3210 -0.0915
  371loPI   C4A 5930   2.054   4.777   7.730 -0.0334 -0.2751 -0.1805
  371loPI   C5A 5931   2.110   4.896   7.315  0.3451 -0.0545  0.1847
  371loPI   C6A 5932   1.827   4.795   6.985  0.1150  0.2277  0.1170
  371loPI   C1B 5933   2.523   5.367   8.718  0.0483  0.0863  0.2574
  371loPI   C2B 5934   2.529   5.632   8.410 -0.0777 -0.2617 -0.2378
  371loPI   C3B 5935   2.437   5.734   8.092 -0.2589  0.2760  0.0214
  371loPI   C4B 5936   2.212   5.709   7.780 -0.2217  0.0396 -0.0324
  372loPI    C1 5937   3.447   0.201   9.942 -0.1962 -0.0015  0.1930
  372loPI    C2 5938   3.778   0.232  10.165 -0.0538  0.3108 -0.0534
  372loPI    C3 5939   3.551   0.555  10.097 -0.2274  0.1680 -0.1622
  372loPI   PO4 5940   3.577   0.129   9.745 -0.0128  0.0844  0.0386
  372loPI   GL1 5941   3.654   0.193   9.257 -0.1469  0.1469 -0.2326
  372loPI   GL2 5942   3.441   0.375   9.086  0.1677 -0.2240 -0.2233
  372loPI   C1A 5943   4.065   0.272   9.199 -0.0473 -0.3193  0.4088
  372loPI   C2A 5944   4.295  -0.027   9.034  0.0092  0.2678  0.5313
  372loPI   C3A 5945   4.330  -0.211   8.650  0.0750 -0.2321 -0.2096
  372loPI   C4A 5946   4.469  -0.322   8.168  0.0921 -0.1435  0.0099
  372loPI   C5A 5947   4.495  -0.251   7.723  0.0033 -0.0190  0.3664
  372loPI   C6A 5948   4.209  -0.205   7.406 -0.2522 -0.0054 -0.0052
  372loPI   C1B 5949   3.536   0.266   8.650 -0.0416 -0.1498 -0.0683
  372loPI   C2B 5950   3.595   0.307   8.225 -0.0226 -0.1729  0.0899
  372loPI   C3B 5951   3.365   0.605   7.907 -0.0572  0.0585  0.0446
  372loPI   C4B 5952   3.591   0.680   7.507 -0.0271 -0.2632 -0.1396
  373loPI    C1 5953  11.358  10.701  10.020  0.1447  0.1418  0.0102
  373loPI    C2 5954  11.402  10.340  10.186  0.0314  0.2119  0.1953
  373loPI    C3 5955  11.717  10.583  10.152  0.2076 -0.0767 -0.3435
  373loPI   PO4 5956  11.206  10.685   9.807 -0.1370 -0.0906  0.2618
  373loPI   GL1 5957  11.325  10.946   9.308  0.0346  0.1214 -0.1877
  373loPI   GL2 5958  11.213  10.582   9.251 -0.2072 -0.1882  0.1680
  373loPI   C1A 5959  11.694  10.876   9.000  0.2372 -0.2011  0.4754
  373loPI   C2A 5960  11.804  11.176   8.645 -0.0233 -0.1416  0.1097
  373loPI   C3A 5961  11.553  11.314   8.325  0.0366 -0.0015  0.0718
  373loPI   C4A 5962  11.480  11.657   8.019 -0.2944 -0.4609  0.1106
  373loPI   C5A 5963  11.256  12.003   8.161  0.2529  0.0439  0.1078
  373loPI   C6A 5964  10.768  12.178   8.020  0.0724 -0.3089  0.2990
  373loPI   C1B 5965  11.230  10.623   8.853 -0.0789  0.2134  0.4280
  373loPI   C2B 5966  11.418  10.756   8.420 -0.1962  0.2080 -0.1462
  373loPI   C3B 5967  11.440  10.663   7.932  0.1606 -0.1112 -0.1494
  373loPI   C4B 5968  11.465  10.752   7.579 -0.1785  0.0091  0.0619
  374loPI    C1 5969   8.802  12.569   9.897  0.0490  0.1574  0.1216
  374loPI    C2 5970   8.864  12.195  10.025  0.0966  0.1272  0.0119
  374loPI    C3 5971   8.852  12.496  10.288  0.0280  0.0452  0.1038
  374loPI   PO4 5972   8.925  12.591   9.692  0.1658  0.2162  0.0524
  374loPI   GL1 5973   9.031  12.297   9.386  0.1653  0.0230 -0.0402
  374loPI   GL2 5974   8.762  12.435   9.175 -0.3462  0.0765  0.0035
  374loPI   C1A 5975   9.275  12.414   8.984 -0.1596 -0.0620 -0.0706
  374loPI   C2A 5976   9.472  12.374   8.608  0.1954  0.1490  0.1278
  374loPI   C3A 5977   9.517  12.347   8.173 -0.0183 -0.1114 -0.0415
  374loPI   C4A 5978   9.576  12.139   7.724  0.1790  0.1163 -0.1595
  374loPI   C5A 5979   9.662  11.997   7.367  0.0758 -0.2674 -0.0358
  374loPI   C6A 5980   9.688  11.563   7.109  0.1897  0.1174  0.0160
  374loPI   C1B 5981   8.751  12.183   8.862 -0.0031 -0.0419  0.1716
  374loPI   C2B 5982   8.802  12.053   8.503  0.1322  0.2043 -0.0160
  374loPI   C3B 5983   8.662  11.974   8.131 -0.0539 -0.2148 -0.0131
  374loPI   C4B 5984   8.559  11.942   7.633  0.0293 -0.1169 -0.1692
  375loPI    C1 5985  12.142   1.029   9.798  0.1231 -0.0751  0.0361
  375loPI    C2 5986  12.149   0.809   9.464  0.0062  0.0269 -0.0345
  375loPI    C3 5987  12.167   0.631   9.821 -0.2106 -0.1072 -0.0887
  375loPI   PO4 5988  12.030   1.213   9.745 -0.1292  0.1504 -0.1726
  375loPI   GL1 5989  11.954   1.325   9.317 -0.0041 -0.0426 -0.1826
  375loPI   GL2 5990  11.662   1.108   9.406  0.1460 -0.1182 -0.2152
  375loPI   C1A 5991  11.674   1.421   8.899 -0.0327 -0.1594 -0.1856
  375loPI   C2A 5992  11.548   1.310   8.497  0.1024 -0.2871 -0.0936
  375loPI   C3A 5993  11.275   1.315   8.137 -0.2171 -0.0065 -0.0730
  375loPI   C4A 5994  11.230   1.543   7.815  0.1369  0.2306  0.0236
  375loPI   C5A 5995  10.999   1.549   7.396  0.2522 -0.0232 -0.0086
  375loPI   C6A 5996  10.821   1.392   7.007 -0.0236  0.1694 -0.0354
  375loPI   C1B 5997  11.801   0.876   9.055  0.0403 -0.0129 -0.1056
  375loPI   C2B 5998  11.922   0.894   8.682  0.1984 -0.0962  0.3249
  375loPI   C3B 5999  12.161   0.834   8.322 -0.2879 -0.0243 -0.4652
  375loPI   C4B 6000  12.415   1.057   8.067  0.0114  0.2031  0.0168
  376loPI    C1 6001  15.244   1.442   9.480  0.1483  0.1457  0.0802
  376loPI    C2 6002  15.201   1.694   9.788 -0.1582 -0.0859  0.2338
  376loPI    C3 6003  15.388   1.344   9.840 -0.2815 -0.1608  0.1774
  376loPI   PO4 6004  14.967   1.571   9.321  0.1428  0.1194  0.1905
  376loPI   GL1 6005  14.647   1.724   9.125  0.1203  0.0372 -0.0387
  376loPI   GL2 6006  14.409   1.584   9.052  0.0511 -0.0100 -0.0255
  376loPI   C1A 6007  14.788   2.034   8.779  0.3208  0.1395  0.0149
  376loPI   C2A 6008  15.029   2.250   8.477  0.0181  0.2176 -0.0908
  376loPI   C3A 6009  15.235   1.999   8.078  0.0433 -0.5274 -0.4462
  376loPI   C4A 6010  15.085   1.921   7.740 -0.1363  0.1705 -0.0790
  376loPI   C5A 6011  14.865   1.927   7.316  0.3311  0.0193  0.3780
  376loPI   C6A 6012  14.772   1.987   6.845 -0.3281 -0.0281  0.3053
  376loPI   C1B 6013  14.566   1.553   8.621 -0.0895  0.1676  0.0653
  376loPI   C2B 6014  14.355   1.528   8.273  0.2487  0.0532  0.0375
  376loPI   C3B 6015  14.424   1.487   7.872  0.3893  0.0573  0.1498
  376loPI   C4B 6016  14.351   1.416   7.406  0.1588  0.1273 -0.1317
  377loPI    C1 6017  16.976  14.774  10.152 -0.2054 -0.0957 -0.0842
  377loPI    C2 6018  16.988  15.105  10.376 -0.5033 -0.1364 -0.0047
  377loPI    C3 6019  17.305  14.862  10.361 -0.2757  0.1602 -0.0783
  377loPI   PO4 6020  16.914  14.856   9.975 -0.0820  0.0672 -0.0198
  377loPI   GL1 6021  16.572  15.027   9.628  0.0272 -0.1124  0.2252
  377loPI   GL2 6022  16.266  15.084   9.610 -0.0786  0.0648 -0.3951
  377loPI   C1A 6023  16.690  15.410   9.334 -0.1532 -0.0340 -0.3864
  377loPI   C2A 6024  16.544  15.302   8.848 -0.2616  0.3793  0.1114
  377loPI   C3A 6025  16.693  15.301   8.420  0.1062  0.2807 -0.2082
  377loPI   C4A 6026  16.630  15.359   7.926  0.1826 -0.1979 -0.4101
  377loPI   C5A 6027  16.298  15.367   7.686 -0.1081  0.2919  0.0848
  377loPI   C6A 6028  15.989  15.517   7.394  0.1529 -0.2841 -0.1101
  377loPI   C1B 6029  16.279  15.048   9.194  0.2228 -0.2882  0.0022
  377loPI   C2B 6030  16.105  14.985   8.847  0.0134 -0.1102  0.1777
  377loPI   C3B 6031  16.054  14.802   8.394  0.3173 -0.0214 -0.0756
  377loPI   C4B 6032  16.187  14.969   7.951 -0.4388  0.3520 -0.0730
  378loPI    C1 6033   4.174  14.393  10.407 -0.0220  0.1272 -0.0631
  378loPI    C2 6034   4.440  14.602  10.621 -0.1062  0.1069  0.0625
  378loPI    C3 6035   4.099  14.479  10.791 -0.0318 -0.1836  0.0074
  378loPI   PO4 6036   4.044  14.615  10.176 -0.1153  0.0236  0.0058
  378loPI   GL1 6037   3.874  14.504   9.718 -0.0598 -0.1745 -0.1089
  378loPI   GL2 6038   4.156  14.687   9.720 -0.1360 -0.0462 -0.0803
  378loPI   C1A 6039   4.048  14.401   9.304 -0.2561  0.1609  0.1061
  378loPI   C2A 6040   3.986  14.461   8.890 -0.0499 -0.0630  0.1485
  378loPI   C3A 6041   3.977  14.548   8.570 -0.0160 -0.0008  0.0123
  378loPI   C4A 6042   4.143  14.822   8.211  0.1083 -0.1012  0.0968
  378loPI   C5A 6043   4.291  15.237   8.066 -0.5552  0.1853  0.0676
  378loPI   C6A 6044   4.677  15.363   7.884  0.1054 -0.1596  0.0392
  378loPI   C1B 6045   3.995  14.968   9.477  0.2832 -0.2247  0.3188
  378loPI   C2B 6046   3.871  15.363   9.250 -0.0683  0.0378  0.1646
  378loPI   C3B 6047   3.493  15.641   9.119 -0.1046 -0.1440  0.1372
  378loPI   C4B 6048   3.553  16.138   9.006 -0.1510 -0.0539 -0.2995
  379loPI    C1 6049  13.509  11.309  10.108 -0.0477  0.0241 -0.2798
  379loPI    C2 6050  13.834  11.368  10.334 -0.0264  0.1734 -0.3478
  379loPI    C3 6051  13.510  11.193  10.491  0.0758  0.0509 -0.2715
  379loPI   PO4 6052  13.608  11.318   9.856 -0.0642 -0.0486 -0.2358
  379loPI   GL1 6053  13.612  11.043   9.593 -0.0001 -0.0425  0.0920
  379loPI   GL2 6054  14.006  11.058   9.469  0.1582 -0.3414 -0.3307
  379loPI   C1A 6055  13.501  11.191   9.226  0.2508 -0.1093  0.0571
  379loPI   C2A 6056  13.661  11.550   8.993 -0.3506  0.1473 -0.0811
  379loPI   C3A 6057  13.600  11.653   8.631 -0.2046 -0.0484  0.0082
  379loPI   C4A 6058  13.632  11.801   8.248  0.2007  0.0066 -0.0861
  379loPI   C5A 6059  13.756  11.666   7.789  0.0005  0.2442 -0.1872
  379loPI   C6A 6060  13.746  11.229   7.607  0.0165  0.0066 -0.3066
  379loPI   C1B 6061  13.993  10.983   9.100  0.0121  0.0205  0.0349
  379loPI   C2B 6062  13.873  11.154   8.701  0.0051 -0.2011 -0.0150
  379loPI   C3B 6063  13.524  11.261   8.477 -0.2296  0.1777 -0.2094
  379loPI   C4B 6064  13.363  11.348   7.986 -0.0399  0.0326 -0.1260
  380loPI    C1 6065   7.862   3.981   9.386  0.0651  0.0019  0.0192
  380loPI    C2 6066   7.674   4.198   9.108  0.0111 -0.1314 -0.0488
  380loPI    C3 6067   7.709   4.339   9.480 -0.0616 -0.0249 -0.0816
  380loPI   PO4 6068   7.882   3.715   9.236  0.0482  0.1438 -0.2001
  380loPI   GL1 6069   8.060   3.516   8.882  0.0045 -0.1530 -0.1564
  380loPI   GL2 6070   8.357   3.402   8.704  0.1432 -0.2449  0.1685
  380loPI   C1A 6071   7.767   3.499   8.507  0.1346 -0.0761  0.0890
  380loPI   C2A 6072   7.492   3.702   8.395 -0.2335 -0.0257  0.1893
  380loPI   C3A 6073   7.455   4.102   8.264  0.2031 -0.0264 -0.1938
  380loPI   C4A 6074   7.465   4.505   7.914  0.2532 -0.0496 -0.1345
  380loPI   C5A 6075   7.428   4.761   7.535 -0.1714 -0.0514 -0.0859
  380loPI   C6A 6076   7.334   4.982   7.145 -0.1875  0.0347 -0.1233
  380loPI   C1B 6077   8.204   3.324   8.360  0.1353 -0.0360  0.0484
  380loPI   C2B 6078   8.126   3.302   7.995  0.1063  0.0457 -0.2560
  380loPI   C3B 6079   7.913   3.341   7.614  0.0519 -0.2603  0.3971
  380loPI   C4B 6080   7.533   3.326   7.426  0.1880  0.1375  0.0457
  381loPI    C1 6081   8.067  11.669   9.674 -0.0005 -0.1210  0.0730
  381loPI    C2 6082   7.848  11.832   9.966  0.2167 -0.2575  0.3169
  381loPI    C3 6083   8.002  11.466  10.012  0.2297 -0.2926  0.0171
  381loPI   PO4 6084   8.137  11.932   9.620  0.1764 -0.0321 -0.1009
  381loPI   GL1 6085   7.852  12.244   9.345  0.1864  0.3162  0.3505
  381loPI   GL2 6086   7.895  12.551   9.410 -0.0913 -0.0720 -0.1888
  381loPI   C1A 6087   7.539  12.095   9.062 -0.0311 -0.1494  0.0297
  381loPI   C2A 6088   7.383  11.981   8.662 -0.1817  0.0999  0.0683
  381loPI   C3A 6089   7.435  12.042   8.256  0.1751 -0.1982  0.4715
  381loPI   C4A 6090   7.451  12.115   7.859  0.2253  0.0630  0.3091
  381loPI   C5A 6091   7.473  11.750   7.487 -0.0726  0.0782 -0.0463
  381loPI   C6A 6092   7.619  11.886   7.090 -0.0714  0.1264  0.1542
  381loPI   C1B 6093   7.677  12.789   9.083  0.3484 -0.3901 -0.1461
  381loPI   C2B 6094   7.649  12.976   8.695 -0.0382 -0.3329 -0.0495
  381loPI   C3B 6095   7.575  13.046   8.276 -0.1933  0.0168  0.1900
  381loPI   C4B 6096   7.445  13.121   7.868 -0.0536 -0.0523 -0.0389
  382loPI    C1 6097   8.056   4.589   9.134 -0.0771 -0.1471 -0.1173
  382loPI    C2 6098   8.229   4.386   9.433  0.1207  0.2289  0.0301
  382loPI    C3 6099   8.011   4.712   9.512  0.0444  0.2421 -0.2251
  382loPI   PO4 6100   8.284   4.643   8.994 -0.0959  0.2125  0.1612
  382loPI   GL1 6101   8.450   4.379   8.714 -0.0829 -0.3053 -0.2106
  382loPI   GL2 6102   8.710   4.441   8.544  0.1602 -0.0045  0.2639
  382loPI   C1A 6103   8.344   4.244   8.280  0.1398  0.0992 -0.4094
  382loPI   C2A 6104   8.451   4.214   7.848 -0.0370  0.0173  0.1474
  382loPI   C3A 6105   8.319   4.184   7.403 -0.0187  0.0817  0.0992
  382loPI   C4A 6106   8.157   4.354   6.928 -0.0296 -0.4332 -0.1620
  382loPI   C5A 6107   8.270   4.445   6.537 -0.3186 -0.1800  0.0960
  382loPI   C6A 6108   8.333   4.279   6.240  0.0482 -0.2691 -0.3670
  382loPI   C1B 6109   8.773   4.498   8.202  0.1251  0.2498  0.0724
  382loPI   C2B 6110   8.816   4.592   7.752 -0.1782  0.0115 -0.2177
  382loPI   C3B 6111   8.657   4.524   7.261  0.0725 -0.0905 -0.2922
  382loPI   C4B 6112   8.557   4.822   6.763 -0.0190  0.0529  0.3280
  383loPI    C1 6113  13.086  13.449  10.043 -0.2509 -0.0492  0.4694
  383loPI    C2 6114  13.319  13.151  10.172  0.0133  0.0333  0.1950
  383loPI    C3 6115  13.361  13.518  10.325 -0.1310 -0.0110  0.3440
  383loPI   PO4 6116  13.066  13.312   9.710  0.2641  0.0079  0.2686
  383loPI   GL1 6117  13.234  13.349   9.330 -0.3617  0.0156 -0.0510
  383loPI   GL2 6118  13.358  13.704   9.433 -0.1277 -0.1663  0.2830
  383loPI   C1A 6119  13.367  13.291   8.745  0.0943  0.0663 -0.0450
  383loPI   C2A 6120  13.330  13.008   8.349 -0.2502  0.0833  0.0894
  383loPI   C3A 6121  13.242  13.153   7.985  0.0026  0.0717  0.1248
  383loPI   C4A 6122  13.064  13.471   7.951  0.3066  0.0840 -0.1405
  383loPI   C5A 6123  12.941  13.786   7.598 -0.1237  0.0166  0.1291
  383loPI   C6A 6124  12.559  13.898   7.490  0.2131 -0.2197  0.0455
  383loPI   C1B 6125  13.226  13.776   9.053 -0.2671  0.1113 -0.1872
  383loPI   C2B 6126  13.259  14.174   8.799  0.4018  0.2798 -0.4113
  383loPI   C3B 6127  13.375  14.532   8.492  0.3390  0.5269  0.0027
  383loPI   C4B 6128  13.377  14.875   8.140  0.4413  0.0829 -0.1725
  384loPI    C1 6129   0.472   5.326  10.134 -0.1360 -0.3690  0.0201
  384loPI    C2 6130   0.144   5.413  10.346 -0.0819 -0.1888  0.0319
  384loPI    C3 6131   0.429   5.183  10.505  0.0090  0.0359  0.1994
  384loPI   PO4 6132   0.391   5.517   9.775 -0.3942  0.0053 -0.4852
  384loPI   GL1 6133   0.134   5.709   9.512  0.3590  0.1851  0.0451
  384loPI   GL2 6134  -0.275   5.660   9.488 -0.3619 -0.2805  0.0875
  384loPI   C1A 6135  -0.003   5.552   9.058 -0.1547  0.1991 -0.5202
  384loPI   C2A 6136   0.107   5.382   8.668 -0.3543 -0.1113  0.1437
  384loPI   C3A 6137  -0.076   5.083   8.371  0.5225 -0.1546  0.1416
  384loPI   C4A 6138  -0.468   5.171   8.235  0.3867 -0.0063  0.0065
  384loPI   C5A 6139  -0.856   5.190   8.407 -0.4629 -0.3204  0.0658
  384loPI   C6A 6140  -0.981   5.339   8.854  0.2545  0.0824 -0.2063
  384loPI   C1B 6141  -0.220   5.241   9.416 -0.3897 -0.1093  0.0604
  384loPI   C2B 6142  -0.134   5.041   9.095 -0.1653 -0.0041 -0.2529
  384loPI   C3B 6143  -0.227   4.948   8.802 -0.3064 -0.0241  0.1616
  384loPI   C4B 6144  -0.557   4.774   8.515 -0.0488  0.0410  0.3528
  385loPI    C1 6145  18.112   2.691  10.226 -0.1711  0.0189  0.3623
  385loPI    C2 6146  18.151   3.081  10.303 -0.0588  0.0832 -0.0017
  385loPI    C3 6147  18.233   2.812  10.587 -0.2712  0.3255  0.2960
  385loPI   PO4 6148  18.277   2.581   9.974 -0.0703  0.0379 -0.0226
  385loPI   GL1 6149  18.276   2.617   9.547 -0.3290  0.0472  0.0317
  385loPI   GL2 6150  18.564   2.520   9.518  0.5486 -0.0654  0.3216
  385loPI   C1A 6151  18.290   2.519   9.099  0.1356 -0.0286  0.1839
  385loPI   C2A 6152  18.326   2.353   8.671 -0.1388  0.1232 -0.1669
  385loPI   C3A 6153  18.535   2.394   8.279 -0.0153  0.2208  0.1093
  385loPI   C4A 6154  18.838   2.318   7.952 -0.0906 -0.2358 -0.1666
  385loPI   C5A 6155  19.140   2.247   7.626  0.2459  0.1754  0.0540
  385loPI   C6A 6156  19.248   2.098   7.206 -0.5846 -0.1145  0.2372
  385loPI   C1B 6157  18.872   2.694   9.237 -0.0199 -0.1029  0.1366
  385loPI   C2B 6158  19.229   2.565   8.912  0.2241 -0.3569 -0.0826
  385loPI   C3B 6159  19.596   2.477   8.822 -0.0329  0.1628 -0.4532
  385loPI   C4B 6160  20.057   2.415   8.622  0.2393  0.2766  0.2509
  386loPI    C1 6161   4.553  12.060  10.041  0.0431  0.2134 -0.0385
  386loPI    C2 6162   4.285  11.769  10.105  0.2493 -0.0144 -0.1932
  386loPI    C3 6163   4.374  12.027  10.397 -0.2354  0.1490 -0.1814
  386loPI   PO4 6164   4.600  11.952   9.707 -0.1258  0.1137  0.2830
  386loPI   GL1 6165   4.608  11.993   9.329  0.3673 -0.1670  0.3614
  386loPI   GL2 6166   4.649  12.340   9.427  0.4311  0.1583  0.1313
  386loPI   C1A 6167   4.834  12.026   8.958 -0.0879  0.0896 -0.2204
  386loPI   C2A 6168   4.731  11.862   8.576  0.1230  0.1623 -0.0249
  386loPI   C3A 6169   4.865  11.815   8.164 -0.0994  0.0576  0.0320
  386loPI   C4A 6170   4.750  11.567   7.746 -0.3030  0.0753 -0.0839
  386loPI   C5A 6171   4.937  11.257   7.591 -0.2049  0.1893 -0.0919
  386loPI   C6A 6172   4.993  10.980   7.271  0.0497 -0.0191 -0.1505
  386loPI   C1B 6173   4.767  12.472   9.066  0.2820 -0.3497 -0.1388
  386loPI   C2B 6174   4.898  12.770   8.666  0.1997 -0.0653 -0.0706
  386loPI   C3B 6175   4.992  13.119   8.650  0.2394 -0.0656  0.0942
  386loPI   C4B 6176   4.784  13.391   8.934  0.3604  0.0047 -0.0917
  387loPI    C1 6177  11.897   7.164   9.574  0.0405 -0.1050  0.0077
  387loPI    C2 6178  11.991   7.077   9.953 -0.0708 -0.2251  0.0083
  387loPI    C3 6179  11.744   6.838   9.748 -0.0113 -0.1604 -0.1402
  387loPI   PO4 6180  11.888   7.401   9.472 -0.0755 -0.2508  0.1684
  387loPI   GL1 6181  12.020   7.565   9.101 -0.1379 -0.0249 -0.0048
  387loPI   GL2 6182  12.219   7.836   9.241 -0.2851 -0.3070  0.3158
  387loPI   C1A 6183  12.335   7.417   8.754 -0.1211 -0.4302 -0.0477
  387loPI   C2A 6184  12.350   7.454   8.406 -0.0635  0.0685  0.1710
  387loPI   C3A 6185  12.276   7.511   8.039  0.1900 -0.0454  0.0967
  387loPI   C4A 6186  12.190   7.418   7.606 -0.3027  0.1730 -0.1900
  387loPI   C5A 6187  12.363   7.698   7.241 -0.5144 -0.3338  0.1346
  387loPI   C6A 6188  12.690   7.768   6.856 -0.2033  0.1040 -0.4006
  387loPI   C1B 6189  12.465   7.932   8.837  0.0393  0.0407 -0.1620
  387loPI   C2B 6190  12.751   7.703   8.558 -0.2445  0.2140 -0.0630
  387loPI   C3B 6191  12.870   7.304   8.371 -0.0212  0.1977  0.1240
  387loPI   C4B 6192  12.985   6.934   8.274 -0.1459 -0.2112 -0.0456
  388loPI    C1 6193   8.056   6.351   9.135  0.1890 -0.0321  0.3340
  388loPI    C2 6194   8.101   5.972   9.255 -0.0392 -0.1766 -0.0180
  388loPI    C3 6195   7.861   6.219   9.458 -0.0740 -0.2875  0.0772
  388loPI   PO4 6196   8.034   6.383   8.874  0.1447  0.3608 -0.5203
  388loPI   GL1 6197   8.232   6.062   8.643  0.0581  0.0247 -0.0309
  388loPI   GL2 6198   8.517   5.881   8.686 -0.1233 -0.0701 -0.0179
  388loPI   C1A 6199   8.360   6.141   8.273 -0.2040 -0.0397  0.1750
  388loPI   C2A 6200   8.258   6.445   7.902 -0.1833  0.4335  0.1342
  388loPI   C3A 6201   8.116   6.726   7.648 -0.0452  0.2309  0.0092
  388loPI   C4A 6202   7.643   6.613   7.656  0.2703 -0.2053  0.1334
  388loPI   C5A 6203   7.322   6.403   7.907 -0.0981 -0.2749 -0.1357
  388loPI   C6A 6204   7.243   6.147   8.302  0.0519  0.1495 -0.1470
  388loPI   C1B 6205   8.935   5.713   8.718 -0.0834 -0.2560  0.3091
  388loPI   C2B 6206   9.157   5.662   8.346  0.1956 -0.1998 -0.0726
  388loPI   C3B 6207   9.134   5.495   7.966  0.0429 -0.2520 -0.0150
  388loPI   C4B 6208   9.337   5.441   7.562 -0.1983  0.1698 -0.2643
  389loPI    C1 6209  18.223   9.417   9.463  0.1419  0.1193 -0.0174
  389loPI    C2 6210  18.394   9.524   9.808 -0.0271 -0.0693  0.1273
  389loPI    C3 6211  18.275   9.146   9.753 -0.0442 -0.0290 -0.1206
  389loPI   PO4 6212  18.241   9.768   9.349 -0.3420 -0.0832  0.2815
  389loPI   GL1 6213  18.049   9.711   9.041 -0.1550  0.0214 -0.2518
  389loPI   GL2 6214  17.667   9.592   9.022 -0.1441 -0.2129  0.2577
  389loPI   C1A 6215  18.236   9.553   8.664  0.3190  0.0088  0.4327
  389loPI   C2A 6216  18.637   9.499   8.448  0.2309 -0.0289 -0.0676
  389loPI   C3A 6217  18.946   9.663   8.234 -0.1757 -0.0257  0.2977
  389loPI   C4A 6218  18.896   9.898   7.875  0.1072  0.0765  0.2979
  389loPI   C5A 6219  18.926  10.145   7.455  0.1154 -0.0322  0.0620
  389loPI   C6A 6220  19.117  10.444   7.416 -0.1011 -0.0023  0.0342
  389loPI   C1B 6221  17.318   9.375   8.888  0.1570  0.0235  0.2099
  389loPI   C2B 6222  17.275   9.151   8.632  0.0804 -0.2443  0.1407
  389loPI   C3B 6223  17.298   9.121   8.157  0.0434  0.0692 -0.2133
  389loPI   C4B 6224  17.342   9.372   7.780  0.1277  0.0176  0.2584
  390loPI    C1 6225   1.827  17.846  10.009  0.0545 -0.1092  0.0515
  390loPI    C2 6226   1.517  17.740  10.237  0.2535 -0.1105  0.3268
  390loPI    C3 6227   1.742  17.459  10.063 -0.0186 -0.1068 -0.0437
  390loPI   PO4 6228   1.700  18.111   9.862  0.0752 -0.0463  0.1869
  390loPI   GL1 6229   1.871  18.360   9.613 -0.0095 -0.0176  0.2506
  390loPI   GL2 6230   1.464  18.271   9.498 -0.0363  0.2939 -0.3411
  390loPI   C1A 6231   1.827  18.301   9.077 -0.0615 -0.0105 -0.1345
  390loPI   C2A 6232   1.830  18.317   8.643  0.1525  0.0750  0.3812
  390loPI   C3A 6233   1.633  18.131   8.236 -0.0121  0.0573 -0.1588
  390loPI   C4A 6234   1.620  17.952   7.849  0.0291 -0.3777 -0.0161
  390loPI   C5A 6235   1.490  17.939   7.361  0.0261  0.2524 -0.1037
  390loPI   C6A 6236   1.218  17.598   7.004 -0.0793  0.0648 -0.0382
  390loPI   C1B 6237   1.404  17.987   9.158 -0.0273 -0.0843  0.0073
  390loPI   C2B 6238   1.366  17.989   8.639 -0.2412  0.0724 -0.1219
  390loPI   C3B 6239   1.337  17.731   8.266 -0.1446  0.1239 -0.2291
  390loPI   C4B 6240   1.119  17.348   7.975  0.0619 -0.1521  0.2396
  391loPI    C1 6241   1.470   3.772   9.784 -0.1161  0.0555  0.1412
  391loPI    C2 6242   1.651   4.108   9.903  0.1039 -0.0269  0.0442
  391loPI    C3 6243   1.640   3.789  10.146  0.0960 -0.0247  0.0467
  391loPI   PO4 6244   1.261   3.859   9.746  0.2015 -0.1831  0.2427
  391loPI   GL1 6245   1.108   3.935   9.323  0.0279  0.2767 -0.2581
  391loPI   GL2 6246   1.401   3.761   9.270 -0.2340  0.5302 -0.1153
  391loPI   C1A 6247   1.079   3.977   8.904  0.1207 -0.0860 -0.3450
  391loPI   C2A 6248   1.057   4.121   8.529  0.4548  0.0509 -0.0328
  391loPI   C3A 6249   1.199   4.094   8.087  0.4151  0.1059  0.0660
  391loPI   C4A 6250   1.051   3.939   7.724 -0.0325 -0.1099 -0.1700
  391loPI   C5A 6251   1.113   3.466   7.528  0.4904 -0.2944 -0.0288
  391loPI   C6A 6252   1.026   3.137   7.329 -0.1990  0.2200 -0.1352
  391loPI   C1B 6253   1.596   3.873   8.881 -0.2328 -0.1791  0.1813
  391loPI   C2B 6254   1.378   3.800   8.425 -0.0123 -0.0057  0.1500
  391loPI   C3B 6255   1.314   3.541   8.156  0.2822 -0.0161 -0.0016
  391loPI   C4B 6256   1.505   3.705   7.669  0.1170  0.2482  0.2654
  392loPI    C1 6257   1.308  11.663  10.132 -0.4475 -0.1177 -0.2175
  392loPI    C2 6258   1.103  11.988  10.245  0.0041  0.0901  0.0315
  392loPI    C3 6259   1.421  11.868  10.456 -0.0313 -0.3979 -0.1777
  392loPI   PO4 6260   1.151  11.576   9.947  0.3107 -0.1510  0.1444
  392loPI   GL1 6261   1.152  11.332   9.608 -0.0783  0.2340  0.4574
  392loPI   GL2 6262   1.181  11.047   9.496 -0.1094  0.1305  0.0261
  392loPI   C1A 6263   0.961  11.482   9.190 -0.0512 -0.2950 -0.0498
  392loPI   C2A 6264   0.587  11.546   8.846  0.0435  0.0400  0.0857
  392loPI   C3A 6265   0.254  11.612   8.545  0.3270  0.4448  0.3801
  392loPI   C4A 6266   0.071  11.660   8.225 -0.1455  0.0519  0.2884
  392loPI   C5A 6267  -0.215  11.775   7.849 -0.0850 -0.0565 -0.1695
  392loPI   C6A 6268  -0.195  12.172   7.550  0.2287  0.0778 -0.0200
  392loPI   C1B 6269   1.430  11.006   9.179 -0.1791 -0.2095 -0.0138
  392loPI   C2B 6270   1.387  11.109   8.798  0.0569  0.1181 -0.1662
  392loPI   C3B 6271   1.193  11.003   8.352 -0.0499 -0.0469  0.0788
  392loPI   C4B 6272   1.287  10.856   7.939  0.1533  0.0614 -0.0727
  393loPI    C1 6273   3.848  14.110  10.147 -0.0855 -0.1581 -0.0267
  393loPI    C2 6274   4.104  13.805  10.113  0.1124  0.0240 -0.2071
  393loPI    C3 6275   3.981  13.923  10.475  0.4317  0.0549 -0.1050
  393loPI   PO4 6276   3.538  14.057   9.906  0.2837 -0.3642 -0.0201
  393loPI   GL1 6277   3.479  14.035   9.468 -0.0160 -0.1390 -0.3602
  393loPI   GL2 6278   3.439  14.415   9.361  0.2877 -0.0431  0.2593
  393loPI   C1A 6279   3.672  14.037   9.112  0.2446  0.0097 -0.4413
  393loPI   C2A 6280   3.569  14.258   8.676  0.3177  0.0713  0.3349
  393loPI   C3A 6281   3.534  14.276   8.273 -0.0354 -0.0262  0.0813
  393loPI   C4A 6282   3.572  14.346   7.889 -0.0453  0.0481  0.0840
  393loPI   C5A 6283   3.791  14.500   7.506  0.0630  0.0569 -0.0257
  393loPI   C6A 6284   3.668  14.269   7.032  0.1005 -0.0577  0.0272
  393loPI   C1B 6285   3.177  14.304   9.050  0.1635 -0.1326 -0.1400
  393loPI   C2B 6286   3.037  14.350   8.596 -0.2760 -0.1433  0.1055
  393loPI   C3B 6287   3.127  14.497   8.177 -0.2015 -0.2885  0.1793
  393loPI   C4B 6288   3.106  14.521   7.748  0.3875  0.4652  0.0602
  394loPI    C1 6289   1.255  12.656  10.081  0.2809 -0.1566  0.2353
  394loPI    C2 6290   1.012  12.845  10.336  0.1428  0.0948 -0.0753
  394loPI    C3 6291   1.181  12.497  10.441 -0.2297 -0.0095  0.2023
  394loPI   PO4 6292   1.214  12.887   9.861 -0.1773 -0.0181 -0.3026
  394loPI   GL1 6293   1.413  12.915   9.464  0.0906 -0.0484  0.3364
  394loPI   GL2 6294   1.295  12.608   9.439  0.1009 -0.1482  0.0199
  394loPI   C1A 6295   1.436  13.002   9.028 -0.0500  0.0315  0.2789
  394loPI   C2A 6296   1.474  13.050   8.493 -0.1832  0.1302 -0.3862
  394loPI   C3A 6297   1.791  13.250   8.308  0.2683  0.3780  0.0653
  394loPI   C4A 6298   1.805  13.580   7.967 -0.0983  0.2007 -0.0004
  394loPI   C5A 6299   2.072  13.722   7.628 -0.0403  0.1036  0.2404
  394loPI   C6A 6300   2.313  13.375   7.390  0.2102 -0.1353 -0.4011
  394loPI   C1B 6301   1.242  12.470   9.025  0.1117 -0.1085  0.1857
  394loPI   C2B 6302   1.054  12.643   8.644 -0.2119 -0.0056 -0.0851
  394loPI   C3B 6303   1.178  12.674   8.217 -0.2677 -0.2135  0.3240
  394loPI   C4B 6304   0.934  12.550   7.812  0.4046 -0.1676  0.2884
  395loPI    C1 6305  19.209  10.687   9.603 -0.0531  0.0629 -0.1616
  395loPI    C2 6306  18.843  10.547   9.684 -0.0587  0.0693 -0.1753
  395loPI    C3 6307  18.949  10.912   9.807  0.0362 -0.0381  0.0670
  395loPI   PO4 6308  19.247  10.655   9.347  0.0220  0.0376 -0.1498
  395loPI   GL1 6309  19.575  10.954   9.043  0.1087 -0.0324  0.2291
  395loPI   GL2 6310  19.241  10.956   8.915 -0.0590  0.0942 -0.1150
  395loPI   C1A 6311  19.679  11.034   8.638 -0.0901  0.0874 -0.1371
  395loPI   C2A 6312  19.519  11.225   8.281  0.1793  0.1310  0.1090
  395loPI   C3A 6313  19.535  11.362   7.803  0.0096 -0.4725  0.1426
  395loPI   C4A 6314  19.857  11.341   7.504 -0.0658  0.1024  0.0235
  395loPI   C5A 6315  20.109  11.284   7.139 -0.1584 -0.0606 -0.1780
  395loPI   C6A 6316  20.070  11.411   6.672 -0.1210 -0.0555 -0.0591
  395loPI   C1B 6317  19.096  11.276   8.526 -0.3563  0.2708  0.3564
  395loPI   C2B 6318  18.991  11.344   8.047  0.0491  0.0848 -0.1925
  395loPI   C3B 6319  18.983  11.337   7.631  0.0997 -0.1679 -0.0845
  395loPI   C4B 6320  18.936  11.676   7.338 -0.0608 -0.0257  0.0557
  396loPI    C1 6321  12.928   2.194   9.873  0.0444  0.2487 -0.1886
  396loPI    C2 6322  12.596   1.978   9.812  0.0358  0.2111 -0.0145
  396loPI    C3 6323  12.875   1.848  10.067  0.1479  0.2825 -0.0995
  396loPI   PO4 6324  12.969   2.242   9.566 -0.1448  0.1355  0.1123
  396loPI   GL1 6325  13.137   2.217   9.189 -0.0259  0.1147 -0.0303
  396loPI   GL2 6326  13.356   2.336   9.076  0.2617 -0.0511 -0.0038
  396loPI   C1A 6327  13.099   1.882   8.937  0.0687 -0.3772 -0.0649
  396loPI   C2A 6328  13.043   1.694   8.499 -0.0773 -0.1040 -0.3782
  396loPI   C3A 6329  12.933   1.538   8.066  0.0385  0.0365  0.0268
  396loPI   C4A 6330  12.683   1.439   7.798 -0.2286  0.1864 -0.0581
  396loPI   C5A 6331  12.595   1.096   7.514 -0.3534  0.3631  0.0422
  396loPI   C6A 6332  12.704   0.597   7.546 -0.0139  0.1733 -0.0167
  396loPI   C1B 6333  13.130   2.364   8.697  0.1110  0.5444 -0.3766
  396loPI   C2B 6334  13.199   2.260   8.359  0.1083 -0.2081  0.2437
  396loPI   C3B 6335  13.077   1.991   7.995  0.1452 -0.3231 -0.2849
  396loPI   C4B 6336  13.035   1.862   7.652  0.1564  0.1411  0.3410
  397loPI    C1 6337  12.755  17.874   9.929 -0.0606  0.0043 -0.2495
  397loPI    C2 6338  12.425  17.649   9.926 -0.2302  0.2447 -0.0260
  397loPI    C3 6339  12.703  17.592  10.208 -0.0486  0.0021 -0.2494
  397loPI   PO4 6340  12.760  17.870   9.651  0.0266  0.1014  0.0954
  397loPI   GL1 6341  12.955  17.630   9.279  0.1550  0.1958 -0.1411
  397loPI   GL2 6342  13.222  17.923   9.212 -0.0261  0.1425 -0.1917
  397loPI   C1A 6343  13.177  17.441   9.023 -0.0922  0.3693 -0.0851
  397loPI   C2A 6344  13.177  17.239   8.699 -0.1157  0.0861  0.1049
  397loPI   C3A 6345  13.166  17.204   8.336 -0.3019 -0.0017  0.0809
  397loPI   C4A 6346  13.272  17.260   7.970 -0.3661  0.1342 -0.0073
  397loPI   C5A 6347  13.594  17.104   7.835 -0.0121  0.1904 -0.0564
  397loPI   C6A 6348  13.676  16.780   7.554 -0.2996 -0.1047 -0.1586
  397loPI   C1B 6349  13.407  18.072   8.841  0.0220  0.0552 -0.3473
  397loPI   C2B 6350  13.671  18.080   8.528  0.1219  0.1879 -0.0792
  397loPI   C3B 6351  13.554  18.102   8.021  0.0704 -0.2300  0.1167
  397loPI   C4B 6352  13.619  18.131   7.638 -0.3506 -0.2789 -0.0994
  398loPI    C1 6353  13.085  10.516  10.365 -0.2080 -0.0696  0.1145
  398loPI    C2 6354  13.041  10.911  10.414 -0.0527 -0.0150 -0.1627
  398loPI    C3 6355  13.202  10.689  10.706  0.1023  0.1689 -0.1065
  398loPI   PO4 6356  13.231  10.405  10.110  0.0826  0.2072 -0.2130
  398loPI   GL1 6357  13.498  10.554   9.838 -0.3385  0.2978  0.1647
  398loPI   GL2 6358  13.769  10.442   9.693  0.0244  0.1921 -0.2994
  398loPI   C1A 6359  13.448  10.601   9.312 -0.1225  0.0359  0.2190
  398loPI   C2A 6360  13.568  10.774   8.899 -0.0681  0.0472  0.0955
  398loPI   C3A 6361  13.560  10.765   8.489 -0.0237  0.2376 -0.1601
  398loPI   C4A 6362  13.590  10.906   7.985  0.0496  0.0260  0.0383
  398loPI   C5A 6363  13.386  10.580   7.708  0.0406 -0.0623  0.0470
  398loPI   C6A 6364  13.123  10.198   7.537 -0.0761  0.1574  0.1817
  398loPI   C1B 6365  13.989  10.394   9.254  0.1718  0.0006 -0.1183
  398loPI   C2B 6366  14.056  10.493   8.907 -0.0656 -0.0065  0.1549
  398loPI   C3B 6367  14.240  10.837   8.590 -0.2494 -0.3011  0.3888
  398loPI   C4B 6368  14.012  10.919   8.274 -0.4096  0.3372  0.1227
  399loPI    C1 6369  10.658  10.061   9.588  0.1092 -0.1179  0.0769
  399loPI    C2 6370  10.308   9.887   9.673  0.0505  0.0312  0.1451
  399loPI    C3 6371  10.638   9.778   9.870 -0.0116  0.0942  0.2852
  399loPI   PO4 6372  10.691  10.099   9.391  0.2982 -0.0684  0.0206
  399loPI   GL1 6373  11.015  10.049   9.189  0.2590 -0.0926 -0.0837
  399loPI   GL2 6374  11.109   9.729   8.889 -0.1675 -0.1637  0.0197
  399loPI   C1A 6375  10.988  10.164   8.693 -0.0451  0.0760  0.2094
  399loPI   C2A 6376  10.895  10.160   8.225  0.1255  0.0125  0.0019
  399loPI   C3A 6377  11.171  10.230   7.954  0.3010 -0.1554 -0.0333
  399loPI   C4A 6378  11.385  10.264   7.584  0.0242 -0.1940  0.0158
  399loPI   C5A 6379  11.182  10.099   7.258 -0.0318 -0.0281 -0.3731
  399loPI   C6A 6380  11.313   9.660   7.065  0.0636  0.1752  0.0583
  399loPI   C1B 6381  11.160   9.714   8.498 -0.0217  0.1327 -0.2445
  399loPI   C2B 6382  11.358   9.756   8.214  0.0241  0.2436 -0.2036
  399loPI   C3B 6383  11.423   9.759   7.731  0.1310 -0.1251  0.0855
  399loPI   C4B 6384  11.826   9.959   7.430 -0.2067  0.0698 -0.2722
  400loPI    C1 6385   1.756   3.243   9.753 -0.1259 -0.0482  0.0441
  400loPI    C2 6386   2.137   3.193   9.865 -0.0647 -0.0147 -0.1457
  400loPI    C3 6387   1.867   3.329  10.127  0.0934  0.1431 -0.0626
  400loPI   PO4 6388   1.719   3.373   9.540  0.0090 -0.2167  0.0438
  400loPI   GL1 6389   1.896   3.697   9.271 -0.0680 -0.1887  0.2825
  400loPI   GL2 6390   1.675   3.427   9.052  0.1872 -0.0110  0.0249
  400loPI   C1A 6391   2.120   3.792   8.931  0.2022  0.0498 -0.1179
  400loPI   C2A 6392   2.280   3.396   8.618  0.2693 -0.0619 -0.1055
  400loPI   C3A 6393   2.243   3.469   8.211 -0.0502 -0.1202  0.0467
  400loPI   C4A 6394   2.162   3.608   7.813  0.0482  0.2117 -0.2616
  400loPI   C5A 6395   2.054   3.993   7.624 -0.0681  0.1777  0.0381
  400loPI   C6A 6396   1.956   4.425   7.394 -0.0514  0.1730 -0.2234
  400loPI   C1B 6397   1.960   3.102   8.868  0.1894  0.0443 -0.0933
  400loPI   C2B 6398   2.018   3.000   8.370  0.0394 -0.1087  0.2609
  400loPI   C3B 6399   2.124   2.977   8.006 -0.1781 -0.1886 -0.1364
  400loPI   C4B 6400   2.338   3.195   7.630  0.0200 -0.2157  0.1142
  401loPI    C1 6401  12.343   5.420   9.276 -0.0009 -0.0050  0.0438
  401loPI    C2 6402  12.518   5.261   9.599 -0.1711  0.0916  0.1849
  401loPI    C3 6403  12.246   5.050   9.395 -0.1216  0.0604  0.1511
  401loPI   PO4 6404  12.498   5.588   9.207 -0.1625  0.0524  0.3203
  401loPI   GL1 6405  12.413   5.958   8.871  0.1141  0.0734  0.0612
  401loPI   GL2 6406  12.736   5.956   8.868 -0.2248  0.0077 -0.3255
  401loPI   C1A 6407  12.325   5.891   8.422 -0.2066 -0.1675  0.3425
  401loPI   C2A 6408  12.205   6.055   8.009  0.1131  0.0778  0.3599
  401loPI   C3A 6409  12.333   6.360   7.691  0.2000  0.3461 -0.2843
  401loPI   C4A 6410  12.373   6.436   7.221 -0.0757 -0.0228 -0.0482
  401loPI   C5A 6411  12.050   6.844   6.990 -0.2752  0.0834  0.2167
  401loPI   C6A 6412  11.848   7.246   7.227  0.0403  0.0363  0.0085
  401loPI   C1B 6413  12.690   5.577   8.604  0.1883  0.3562  0.0312
  401loPI   C2B 6414  12.546   5.478   8.236 -0.0026 -0.0273  0.0123
  401loPI   C3B 6415  12.237   5.614   7.853 -0.1829  0.2258 -0.2756
  401loPI   C4B 6416  12.297   5.858   7.486  0.0757 -0.0181  0.3432
  402loPI    C1 6417   3.260  16.801   9.601 -0.2618 -0.3796  0.1200
  402loPI    C2 6418   3.470  16.685   9.920 -0.1914 -0.0328  0.2038
  402loPI    C3 6419   3.138  16.903   9.968 -0.2478 -0.0827  0.0450
  402loPI   PO4 6420   3.491  16.892   9.453 -0.2261  0.2306  0.2604
  402loPI   GL1 6421   3.453  16.766   9.090  0.0887 -0.1780 -0.1963
  402loPI   GL2 6422   3.067  16.645   9.091 -0.2602 -0.2100 -0.2454
  402loPI   C1A 6423   3.686  16.543   8.718 -0.0057  0.2785 -0.2209
  402loPI   C2A 6424   3.868  16.549   8.339 -0.2301 -0.0853 -0.2954
  402loPI   C3A 6425   4.053  16.196   8.164 -0.1255 -0.2679  0.3229
  402loPI   C4A 6426   4.475  16.098   7.950  0.1438  0.0464  0.1367
  402loPI   C5A 6427   4.475  15.785   7.624  0.4023  0.0642 -0.2962
  402loPI   C6A 6428   4.203  15.467   7.545  0.1292  0.4181  0.2637
  402loPI   C1B 6429   3.153  16.371   8.793 -0.1370  0.2123  0.0588
  402loPI   C2B 6430   3.257  16.148   8.501  0.0554  0.0495  0.3717
  402loPI   C3B 6431   3.622  15.917   8.454 -0.1691 -0.1693 -0.1207
  402loPI   C4B 6432   3.946  16.126   8.662  0.3293  0.2895  0.1669
  403loPI    C1 6433  17.400  17.182  10.372 -0.0783 -0.1220 -0.0036
  403loPI    C2 6434  17.035  17.145  10.214 -0.1706 -0.0985  0.1995
  403loPI    C3 6435  17.116  17.450  10.459  0.1073  0.1338 -0.1700
  403loPI   PO4 6436  17.508  17.003  10.208  0.4844  0.0485 -0.0842
  403loPI   GL1 6437  17.326  16.905   9.860 -0.1501 -0.3251  0.1290
  403loPI   GL2 6438  17.023  16.853   9.769  0.1087  0.1390 -0.0256
  403loPI   C1A 6439  17.471  17.077   9.462  0.1662 -0.1039 -0.1496
  403loPI   C2A 6440  17.592  16.883   9.142  0.1504 -0.3097 -0.0907
  403loPI   C3A 6441  17.233  16.759   8.940  0.0658  0.2659 -0.3249
  403loPI   C4A 6442  16.844  16.666   8.649  0.1524  0.1181  0.1717
  403loPI   C5A 6443  16.468  16.773   8.773  0.1578 -0.0537  0.1040
  403loPI   C6A 6444  16.256  16.518   8.516  0.2026 -0.2069  0.4449
  403loPI   C1B 6445  16.954  16.772   9.351  0.1972 -0.1299 -0.1024
  403loPI   C2B 6446  16.637  16.557   9.160 -0.4916  0.0237 -0.1014
  403loPI   C3B 6447  16.575  16.242   8.884  0.3787  0.0232  0.0414
  403loPI   C4B 6448  16.685  16.122   8.528  0.3110 -0.0407  0.1879
  404loPI    C1 6449  16.953  15.501  10.005  0.0353  0.0918 -0.2034
  404loPI    C2 6450  16.559  15.492   9.940  0.0030 -0.1460  0.0107
  404loPI    C3 6451  16.699  15.558  10.308  0.1641 -0.0662 -0.0638
  404loPI   PO4 6452  17.065  15.347   9.946  0.1624 -0.0871  0.3282
  404loPI   GL1 6453  17.138  15.214   9.566  0.3621 -0.0482  0.1273
  404loPI   GL2 6454  17.079  14.966   9.534 -0.0121  0.1130  0.0146
  404loPI   C1A 6455  17.417  15.434   9.269  0.2899 -0.0467 -0.2599
  404loPI   C2A 6456  17.375  15.554   8.842 -0.2665 -0.2881  0.0588
  404loPI   C3A 6457  17.402  15.749   8.487 -0.1455 -0.1312 -0.1765
  404loPI   C4A 6458  17.563  16.041   8.296  0.0516 -0.3922  0.0851
  404loPI   C5A 6459  17.886  16.287   8.059  0.0366 -0.2875  0.0417
  404loPI   C6A 6460  18.074  16.695   8.046  0.2801  0.0148  0.0353
  404loPI   C1B 6461  16.963  15.028   9.120 -0.3294 -0.4501  0.2815
  404loPI   C2B 6462  17.063  15.210   8.700  0.1184  0.0724  0.1861
  404loPI   C3B 6463  17.279  15.279   8.395  0.0614  0.0410 -0.1858
  404loPI   C4B 6464  17.175  15.346   7.937 -0.0629 -0.0452  0.0618
  405loPI    C1 6465  18.587   7.216   9.808  0.0396 -0.0716  0.0405
  405loPI    C2 6466  18.696   7.336  10.174  0.0253  0.0231  0.0138
  405loPI    C3 6467  18.370   7.109  10.127  0.0152  0.0281  0.0576
  405loPI   PO4 6468  18.619   7.456   9.657  0.0152 -0.1864  0.3224
  405loPI   GL1 6469  18.502   7.815   9.318  0.2390  0.3019 -0.1463
  405loPI   GL2 6470  18.067   7.805   9.317  0.4536  0.0987 -0.1423
  405loPI   C1A 6471  18.467   8.070   8.912 -0.1314 -0.3377 -0.2007
  405loPI   C2A 6472  18.386   8.093   8.553  0.0804  0.0175  0.0951
  405loPI   C3A 6473  18.439   8.099   8.140 -0.0320 -0.0154 -0.0602
  405loPI   C4A 6474  18.434   7.978   7.671 -0.0932  0.1637  0.1448
  405loPI   C5A 6475  18.718   7.772   7.484  0.1097  0.2443 -0.0734
  405loPI   C6A 6476  19.017   7.774   7.114  0.0878 -0.2606  0.0888
  405loPI   C1B 6477  18.030   7.948   8.898  0.1475  0.1084 -0.2290
  405loPI   C2B 6478  17.977   7.857   8.438  0.2405  0.0619 -0.1663
  405loPI   C3B 6479  17.990   7.840   8.015 -0.0462 -0.0890 -0.4264
  405loPI   C4B 6480  17.749   7.701   7.642  0.2344 -0.1268 -0.2044
  406loPI    C1 6481   8.593   3.945   9.635 -0.4521 -0.0870  0.1745
  406loPI    C2 6482   8.746   3.580   9.579  0.0737  0.1128  0.2465
  406loPI    C3 6483   8.530   3.658   9.907  0.1162 -0.0831  0.3231
  406loPI   PO4 6484   8.411   3.908   9.406 -0.0568  0.1975  0.1081
  406loPI   GL1 6485   8.393   3.969   9.045 -0.2107 -0.3429  0.0350
  406loPI   GL2 6486   8.127   4.114   8.976  0.1297 -0.3007  0.1786
  406loPI   C1A 6487   8.280   3.857   8.602 -0.1222 -0.0752 -0.0585
  406loPI   C2A 6488   8.087   3.836   8.204 -0.3133  0.0838  0.2223
  406loPI   C3A 6489   8.154   3.722   7.813  0.2017  0.2191 -0.1839
  406loPI   C4A 6490   7.918   3.766   7.385 -0.3503 -0.0921  0.0113
  406loPI   C5A 6491   7.907   3.935   7.044 -0.1221  0.0521  0.0273
  406loPI   C6A 6492   7.439   4.033   6.819  0.0433 -0.3465 -0.0209
  406loPI   C1B 6493   7.889   4.090   8.586  0.2490 -0.2712 -0.3582
  406loPI   C2B 6494   7.845   4.384   8.237  0.0676  0.3124 -0.1329
  406loPI   C3B 6495   7.998   4.432   7.851  0.4506  0.1112  0.3942
  406loPI   C4B 6496   8.024   4.572   7.495  0.2417  0.0094 -0.0641
  407loPI    C1 6497   9.948  14.308   9.847  0.2114  0.0618  0.0266
  407loPI    C2 6498   9.759  14.285  10.198  0.0268  0.0036 -0.0752
  407loPI    C3 6499  10.103  14.487  10.169  0.0252  0.0380  0.1307
  407loPI   PO4 6500   9.907  14.004   9.812  0.0927 -0.1350 -0.1062
  407loPI   GL1 6501   9.657  13.992   9.403 -0.0824  0.0582  0.0251
  407loPI   GL2 6502   9.727  14.356   9.407  0.3368 -0.0277  0.4695
  407loPI   C1A 6503   9.713  13.933   8.986 -0.0958  0.2314  0.0994
  407loPI   C2A 6504   9.806  14.031   8.605 -0.2197 -0.2865  0.1722
  407loPI   C3A 6505   9.879  14.058   8.191 -0.0521 -0.1562 -0.2968
  407loPI   C4A 6506   9.722  14.006   7.767 -0.1503 -0.0804  0.0136
  407loPI   C5A 6507   9.290  14.012   7.560 -0.0419  0.1700  0.3976
  407loPI   C6A 6508   8.943  14.120   7.358  0.2389 -0.1495  0.1408
  407loPI   C1B 6509  10.000  14.376   9.058  0.2806 -0.0217  0.1016
  407loPI   C2B 6510   9.937  14.580   8.699 -0.2096 -0.0168  0.1739
  407loPI   C3B 6511   9.907  14.540   8.300  0.1905 -0.0123  0.0419
  407loPI   C4B 6512  10.016  14.443   7.873 -0.2851 -0.0317  0.3082
  408loPI    C1 6513  13.822  15.909  10.540  0.1921 -0.0519 -0.1153
  408loPI    C2 6514  13.556  16.201  10.605  0.2412 -0.0304 -0.0079
  408loPI    C3 6515  13.525  15.854  10.801  0.3388  0.0017  0.0653
  408loPI   PO4 6516  13.973  16.170  10.324 -0.2004 -0.2085  0.0788
  408loPI   GL1 6517  13.946  16.106   9.890  0.0016 -0.3624  0.1713
  408loPI   GL2 6518  14.285  15.933   9.923  0.1721  0.1125  0.1773
  408loPI   C1A 6519  13.794  16.384   9.595  0.0640 -0.0496 -0.0251
  408loPI   C2A 6520  13.498  16.568   9.315 -0.0523 -0.1763 -0.2239
  408loPI   C3A 6521  13.492  16.441   8.984 -0.1828 -0.0465  0.3831
  408loPI   C4A 6522  13.346  16.158   8.606 -0.3446 -0.2375 -0.0159
  408loPI   C5A 6523  13.351  16.179   8.145 -0.1799 -0.0624  0.0011
  408loPI   C6A 6524  13.120  16.020   7.805  0.0969  0.1815 -0.1463
  408loPI   C1B 6525  14.534  15.841   9.495 -0.2982 -0.0304  0.0045
  408loPI   C2B 6526  14.812  15.679   9.225 -0.2266 -0.0741  0.2847
  408loPI   C3B 6527  15.119  15.357   9.356  0.3179 -0.1486  0.1605
  408loPI   C4B 6528  15.528  15.558   9.480 -0.1145  0.1421 -0.0351
  409loPI    C1 6529  11.549  10.021   9.833  0.1026  0.2442  0.0976
  409loPI    C2 6530  11.658   9.689  10.028 -0.0170  0.0141 -0.2178
  409loPI    C3 6531  11.813  10.043  10.132  0.2042 -0.1558  0.0433
  409loPI   PO4 6532  11.625   9.997   9.569 -0.0537 -0.0007 -0.0584
  409loPI   GL1 6533  11.924  10.110   9.333  0.2701  0.1871 -0.0396
  409loPI   GL2 6534  11.810  10.490   9.351  0.1318  0.1229 -0.0391
  409loPI   C1A 6535  11.515  10.162   8.913 -0.3209 -0.2508  0.0530
  409loPI   C2A 6536  11.612  10.182   8.423  0.1955  0.1953  0.2171
  409loPI   C3A 6537  11.767  10.307   7.991  0.2133  0.3513  0.1861
  409loPI   C4A 6538  11.930  10.442   7.610  0.0236  0.2169  0.2168
  409loPI   C5A 6539  12.264  10.692   7.347 -0.3064 -0.0787  0.1217
  409loPI   C6A 6540  12.517  11.062   7.564  0.3826  0.1504 -0.0663
  409loPI   C1B 6541  11.983  10.447   8.962 -0.0492 -0.1037 -0.4604
  409loPI   C2B 6542  11.892  10.640   8.511  0.1216  0.5037 -0.1719
  409loPI   C3B 6543  11.983  10.751   8.047  0.0819  0.0299 -0.3258
  409loPI   C4B 6544  11.998  10.944   7.649  0.1315  0.0103 -0.0225
  410loPI    C1 6545   7.087   4.361   9.406 -0.1347 -0.1867  0.1379
  410loPI    C2 6546   7.360   4.650   9.366 -0.0950 -0.2360  0.0497
  410loPI    C3 6547   7.307   4.474   9.721 -0.1180 -0.1222  0.1032
  410loPI   PO4 6548   6.871   4.461   9.167 -0.1871 -0.2297 -0.0245
  410loPI   GL1 6549   6.749   4.275   8.839 -0.0478  0.1341 -0.0615
  410loPI   GL2 6550   6.485   4.391   8.681  0.0992 -0.0674 -0.1550
  410loPI   C1A 6551   6.977   4.194   8.469  0.0785 -0.2714 -0.0778
  410loPI   C2A 6552   6.884   4.144   8.041  0.0507 -0.2595 -0.1908
  410loPI   C3A 6553   7.026   4.258   7.643 -0.1427  0.0702  0.1172
  410loPI   C4A 6554   7.173   4.371   7.393 -0.3065 -0.0313 -0.1981
  410loPI   C5A 6555   7.189   4.471   6.902  0.0716  0.1018 -0.0776
  410loPI   C6A 6556   7.300   4.421   6.507  0.2154  0.3316 -0.0016
  410loPI   C1B 6557   6.435   4.254   8.343  0.2444  0.1113 -0.1879
  410loPI   C2B 6558   6.433   4.298   7.905  0.2746 -0.0919 -0.0134
  410loPI   C3B 6559   6.583   4.369   7.530 -0.1434 -0.0223 -0.4248
  410loPI   C4B 6560   6.750   4.339   7.064  0.1336 -0.0838 -0.4089
  411loPI    C1 6561  14.970   8.074   9.670  0.0275 -0.0895  0.3876
  411loPI    C2 6562  15.210   8.391   9.623  0.0730 -0.1520  0.1899
  411loPI    C3 6563  15.007   8.343   9.964 -0.1266  0.2218  0.1290
  411loPI   PO4 6564  15.116   7.877   9.529 -0.1679 -0.2484  0.0444
  411loPI   GL1 6565  15.220   8.043   9.171  0.1119 -0.2597 -0.0083
  411loPI   GL2 6566  15.221   7.621   9.115 -0.1508 -0.2612  0.0298
  411loPI   C1A 6567  14.875   8.139   8.983 -0.0443 -0.2465  0.0022
  411loPI   C2A 6568  14.762   8.048   8.518  0.0733 -0.2203 -0.1136
  411loPI   C3A 6569  14.693   8.054   8.137  0.0335 -0.0385 -0.1823
  411loPI   C4A 6570  14.530   7.800   7.683  0.1220 -0.0126 -0.2627
  411loPI   C5A 6571  14.180   7.818   7.411  0.0158  0.2176  0.3244
  411loPI   C6A 6572  13.804   7.668   7.201  0.2311 -0.1303 -0.1086
  411loPI   C1B 6573  15.151   7.787   8.751  0.2224 -0.1973 -0.1356
  411loPI   C2B 6574  15.388   7.893   8.366  0.2410 -0.2615  0.2406
  411loPI   C3B 6575  15.274   7.927   7.963  0.1821  0.0820 -0.0520
  411loPI   C4B 6576  15.511   7.980   7.502 -0.2741 -0.0927  0.1267
  412loPI    C1 6577  10.354   8.035   9.461  0.1144 -0.0018 -0.1687
  412loPI    C2 6578  10.552   8.196   9.769 -0.0379 -0.2370  0.0558
  412loPI    C3 6579  10.388   8.433   9.492  0.1850 -0.0267  0.0997
  412loPI   PO4 6580  10.498   7.914   9.368 -0.0800 -0.2211 -0.3549
  412loPI   GL1 6581  10.599   8.031   8.874 -0.1580  0.1375 -0.1196
  412loPI   GL2 6582  10.552   8.322   9.016 -0.1701  0.0429 -0.0130
  412loPI   C1A 6583  10.620   8.080   8.379 -0.0143  0.0232 -0.2498
  412loPI   C2A 6584  10.681   8.310   8.007 -0.1049  0.4079  0.0514
  412loPI   C3A 6585  10.791   8.343   7.544  0.0242 -0.0174  0.2263
  412loPI   C4A 6586  10.471   8.444   7.181  0.1402  0.0044  0.0879
  412loPI   C5A 6587  10.204   8.256   6.838  0.0321 -0.2352  0.5478
  412loPI   C6A 6588   9.828   8.428   6.588 -0.2145  0.2766 -0.3421
  412loPI   C1B 6589  10.742   8.495   8.593 -0.2097 -0.3331 -0.0129
  412loPI   C2B 6590  10.792   8.765   8.194 -0.1247 -0.0092  0.0496
  412loPI   C3B 6591  10.873   8.837   7.839 -0.1541 -0.1740  0.3311
  412loPI   C4B 6592  10.890   8.851   7.402 -0.3066  0.0316 -0.0786
  413loPI    C1 6593   8.629   1.526   9.737 -0.1351  0.1941  0.1376
  413loPI    C2 6594   8.334   1.410   9.981 -0.0374 -0.1712  0.0879
  413loPI    C3 6595   8.694   1.237  10.005  0.0793  0.0435 -0.0728
  413loPI   PO4 6596   8.532   1.430   9.446  0.0502 -0.0111 -0.0127
  413loPI   GL1 6597   8.393   1.073   9.212  0.0608 -0.2419 -0.1956
  413loPI   GL2 6598   8.433   0.743   9.137  0.0022  0.2259  0.1415
  413loPI   C1A 6599   8.442   1.210   8.834  0.1034 -0.0261  0.0288
  413loPI   C2A 6600   8.466   1.275   8.379  0.0490  0.1980 -0.0732
  413loPI   C3A 6601   8.148   1.278   8.269  0.0822  0.0491  0.0202
  413loPI   C4A 6602   8.034   1.264   7.992  0.0584  0.0478 -0.1595
  413loPI   C5A 6603   7.727   1.267   7.728  0.3465 -0.2530 -0.0298
  413loPI   C6A 6604   7.721   1.044   7.405 -0.0203  0.0514  0.3332
  413loPI   C1B 6605   8.201   0.417   9.025 -0.1590 -0.0786 -0.2519
  413loPI   C2B 6606   7.803   0.338   8.687 -0.0751  0.1465 -0.0020
  413loPI   C3B 6607   7.638   0.387   8.264 -0.1998  0.2401  0.0801
  413loPI   C4B 6608   7.503   0.190   7.988 -0.0521  0.0690 -0.0488
  414loPI    C1 6609  12.943  11.693  10.057 -0.1875 -0.1624 -0.2333
  414loPI    C2 6610  12.958  11.307  10.161  0.0902 -0.0987 -0.0247
  414loPI    C3 6611  12.635  11.526  10.251 -0.0173 -0.2506 -0.0361
  414loPI   PO4 6612  13.185  11.757   9.981  0.0140  0.1156  0.1598
  414loPI   GL1 6613  13.374  11.833   9.557  0.2131 -0.1416  0.2322
  414loPI   GL2 6614  13.571  12.092   9.507  0.2097 -0.1108 -0.1264
  414loPI   C1A 6615  13.259  11.749   9.203  0.0719 -0.1079 -0.4677
  414loPI   C2A 6616  13.375  12.020   8.910 -0.2203  0.2786 -0.0394
  414loPI   C3A 6617  13.271  12.082   8.496 -0.0969 -0.2450  0.2300
  414loPI   C4A 6618  13.304  12.161   8.057 -0.2363 -0.1443  0.0219
  414loPI   C5A 6619  13.256  11.756   7.769  0.3493  0.1464  0.1834
  414loPI   C6A 6620  13.243  11.633   7.376  0.0900 -0.4791 -0.3901
  414loPI   C1B 6621  13.829  11.942   9.202  0.0246 -0.0773  0.0775
  414loPI   C2B 6622  13.936  12.045   8.821 -0.0379  0.0030  0.0042
  414loPI   C3B 6623  14.077  12.156   8.372 -0.1410  0.2785  0.0430
  414loPI   C4B 6624  13.852  12.183   8.026 -0.0501  0.0433 -0.0641
  415loPI    C1 6625   0.739   3.621   9.868  0.3477 -0.0737 -0.0714
  415loPI    C2 6626   0.711   4.018   9.830  0.1172 -0.0950 -0.1438
  415loPI    C3 6627   0.935   3.860  10.122 -0.0955  0.0921  0.1261
  415loPI   PO4 6628   0.802   3.586   9.532 -0.0898  0.1580 -0.1458
  415loPI   GL1 6629   0.569   3.454   9.092 -0.1585 -0.0116  0.2244
  415loPI   GL2 6630   0.896   3.539   9.043 -0.0693 -0.0115 -0.2498
  415loPI   C1A 6631   0.679   3.056   8.903 -0.4177  0.2434 -0.1996
  415loPI   C2A 6632   0.447   2.880   8.529  0.2700  0.1312 -0.1049
  415loPI   C3A 6633   0.580   2.771   8.183 -0.0497 -0.1610 -0.2513
  415loPI   C4A 6634   0.704   2.689   7.826  0.4453  0.2997 -0.1523
  415loPI   C5A 6635   0.934   2.512   7.410  0.0930 -0.3036  0.1320
  415loPI   C6A 6636   1.311   2.652   7.206 -0.0626 -0.0385 -0.2698
  415loPI   C1B 6637   0.882   3.536   8.588 -0.2333 -0.4274 -0.0022
  415loPI   C2B 6638   0.553   3.331   8.411 -0.0033 -0.0603  0.3468
  415loPI   C3B 6639   0.269   3.147   7.979 -0.1044  0.0738  0.0534
  415loPI   C4B 6640   0.153   3.220   7.493 -0.0341  0.1671 -0.4227
  416loPI    C1 6641   9.561  12.399  10.251  0.1591  0.2300  0.0191
  416loPI    C2 6642   9.656  12.040  10.102 -0.1190  0.1011  0.1466
  416loPI    C3 6643   9.701  12.114  10.493 -0.1389  0.1784  0.1347
  416loPI   PO4 6644   9.709  12.484   9.963 -0.4018 -0.2625  0.0156
  416loPI   GL1 6645   9.893  12.192   9.605 -0.0348  0.3879 -0.1588
  416loPI   GL2 6646   9.699  12.238   9.437  0.0788 -0.3204 -0.0687
  416loPI   C1A 6647  10.142  12.263   9.267 -0.0423  0.0113 -0.1351
  416loPI   C2A 6648  10.255  12.329   8.842 -0.0582  0.1856 -0.1881
  416loPI   C3A 6649  10.399  12.100   8.545  0.0786  0.2346 -0.1948
  416loPI   C4A 6650  10.351  11.829   8.165  0.0726  0.3318 -0.0703
  416loPI   C5A 6651  10.532  11.792   7.874  0.0130  0.1575  0.1512
  416loPI   C6A 6652  10.901  11.844   7.630 -0.1805 -0.2990 -0.0869
  416loPI   C1B 6653   9.709  12.138   8.999 -0.1379  0.0831  0.2588
  416loPI   C2B 6654   9.866  12.086   8.585  0.0642 -0.1378 -0.1078
  416loPI   C3B 6655   9.916  12.074   8.101  0.1573 -0.1859  0.0728
  416loPI   C4B 6656  10.030  11.870   7.660 -0.2404 -0.2458  0.3779
  417loPI    C1 6657   8.301  14.046   9.664  0.2524 -0.4330 -0.1876
  417loPI    C2 6658   8.650  14.096   9.852  0.1296 -0.1016 -0.0401
  417loPI    C3 6659   8.403  13.802   9.964  0.0985  0.0350  0.2597
  417loPI   PO4 6660   8.342  14.050   9.461 -0.5230  0.0612 -0.1203
  417loPI   GL1 6661   8.383  14.286   9.142 -0.1277  0.0696 -0.1850
  417loPI   GL2 6662   8.216  14.530   9.195  0.1844  0.0771 -0.0427
  417loPI   C1A 6663   8.604  14.009   8.914  0.0360  0.1278  0.0389
  417loPI   C2A 6664   8.507  14.070   8.490  0.2420  0.3717 -0.0264
  417loPI   C3A 6665   8.329  14.080   8.156 -0.1267 -0.2613  0.2508
  417loPI   C4A 6666   8.506  14.487   7.841  0.3934 -0.1768  0.2650
  417loPI   C5A 6667   8.681  14.920   7.594  0.0087 -0.0304 -0.0730
  417loPI   C6A 6668   8.927  15.208   7.564 -0.1505  0.2931  0.0979
  417loPI   C1B 6669   7.986  14.847   9.085 -0.1419 -0.2777 -0.2076
  417loPI   C2B 6670   7.817  14.850   8.639 -0.2580 -0.1397 -0.4868
  417loPI   C3B 6671   7.686  14.747   8.199  0.0458 -0.4167  0.1300
  417loPI   C4B 6672   7.706  14.833   7.666  0.0372  0.0363 -0.2659
  418loPI    C1 6673  18.782   6.531  10.181 -0.1557  0.0570  0.0698
  418loPI    C2 6674  18.812   6.876  10.380 -0.1718  0.0770  0.0375
  418loPI    C3 6675  18.841   6.529  10.577 -0.1577  0.0968  0.0703
  418loPI   PO4 6676  18.761   6.638   9.938 -0.0552 -0.2338  0.0955
  418loPI   GL1 6677  18.908   6.466   9.629  0.0064 -0.1701  0.3360
  418loPI   GL2 6678  19.052   6.187   9.499  0.0386  0.4933 -0.0661
  418loPI   C1A 6679  18.690   6.386   9.245 -0.3900 -0.1135  0.4645
  418loPI   C2A 6680  18.761   6.357   8.672  0.0182  0.0735  0.0397
  418loPI   C3A 6681  18.728   6.260   8.327  0.0009 -0.3654  0.3617
  418loPI   C4A 6682  18.845   6.127   7.863  0.0971 -0.4167 -0.1218
  418loPI   C5A 6683  18.917   5.991   7.489  0.2361 -0.0775  0.0061
  418loPI   C6A 6684  19.090   5.653   7.367  0.0491  0.2000  0.0275
  418loPI   C1B 6685  19.176   6.353   9.131 -0.0956  0.0210  0.0709
  418loPI   C2B 6686  19.103   6.645   8.816 -0.1406 -0.0740 -0.0644
  418loPI   C3B 6687  19.071   6.715   8.469  0.1449 -0.1611  0.1386
  418loPI   C4B 6688  18.982   7.065   8.343 -0.1126 -0.0620 -0.3761
  419loPI    C1 6689  17.369  18.234  10.078 -0.0634 -0.2468 -0.1064
  419loPI    C2 6690  17.420  18.118  10.457  0.1321  0.1818  0.0052
  419loPI    C3 6691  17.545  17.884  10.157  0.1093 -0.0929  0.2059
  419loPI   PO4 6692  17.534  18.520   9.988 -0.0703 -0.1744  0.3190
  419loPI   GL1 6693  17.604  18.747   9.609 -0.1637 -0.5698  0.0269
  419loPI   GL2 6694  17.344  18.936   9.521  0.0323 -0.3089  0.2745
  419loPI   C1A 6695  17.452  18.388   9.280  0.1574  0.0346 -0.2015
  419loPI   C2A 6696  17.231  18.103   9.099 -0.0054 -0.3197 -0.0754
  419loPI   C3A 6697  17.213  17.892   8.741 -0.3382  0.0730 -0.1072
  419loPI   C4A 6698  17.239  17.988   8.356  0.2085 -0.0052 -0.1905
  419loPI   C5A 6699  17.128  18.188   7.983  0.2992 -0.2329 -0.0009
  419loPI   C6A 6700  17.323  18.557   7.882  0.0031 -0.4080 -0.1052
  419loPI   C1B 6701  17.409  19.144   9.144 -0.0886  0.1306  0.2544
  419loPI   C2B 6702  17.541  19.342   8.723 -0.0942  0.2119  0.0484
  419loPI   C3B 6703  17.356  19.184   8.330 -0.0533 -0.0651  0.1237
  419loPI   C4B 6704  17.479  19.009   8.012 -0.0532  0.1352 -0.1519
  420loPI    C1 6705  18.579  12.068  10.266 -0.0227  0.1293  0.0966
  420loPI    C2 6706  18.502  12.398  10.477 -0.2060  0.1902 -0.0624
  420loPI    C3 6707  18.343  12.048  10.588 -0.0898  0.1724  0.0502
  420loPI   PO4 6708  18.817  12.014  10.072  0.0567  0.1078 -0.0178
  420loPI   GL1 6709  18.975  11.879   9.701  0.0923 -0.0492 -0.2891
  420loPI   GL2 6710  19.250  12.029   9.602  0.0447 -0.0385  0.0580
  420loPI   C1A 6711  18.948  11.978   9.184 -0.2729  0.1306  0.0309
  420loPI   C2A 6712  18.928  12.200   8.768  0.0726 -0.0776 -0.3379
  420loPI   C3A 6713  19.155  12.172   8.220  0.0879  0.0931  0.0053
  420loPI   C4A 6714  19.330  12.473   7.895  0.1657  0.1092  0.0098
  420loPI   C5A 6715  19.428  12.906   7.670 -0.3542  0.3054  0.3554
  420loPI   C6A 6716  19.791  12.913   7.515 -0.1819 -0.1184 -0.2925
  420loPI   C1B 6717  19.349  12.391   9.312 -0.2882  0.0026  0.2381
  420loPI   C2B 6718  19.234  12.555   8.946  0.0497 -0.0824  0.1992
  420loPI   C3B 6719  19.292  12.945   8.651 -0.1424 -0.3182  0.1000
  420loPI   C4B 6720  19.339  12.923   8.217 -0.0465  0.2335 -0.0300
  421loPI    C1 6721   3.094   8.284   9.805  0.0265 -0.3041 -0.1101
  421loPI    C2 6722   3.107   7.897   9.905  0.2178 -0.2610  0.0382
  421loPI    C3 6723   2.822   8.133  10.057 -0.0139 -0.3822 -0.2000
  421loPI   PO4 6724   3.315   8.205   9.531 -0.0309 -0.1080 -0.2419
  421loPI   GL1 6725   3.227   8.190   9.094  0.6135 -0.2239  0.0753
  421loPI   GL2 6726   2.938   8.278   9.120  0.1177  0.1062 -0.1642
  421loPI   C1A 6727   3.659   8.374   8.916  0.1227 -0.3095 -0.3282
  421loPI   C2A 6728   3.964   8.344   8.636 -0.1201 -0.2475 -0.1556
  421loPI   C3A 6729   4.304   8.100   8.556 -0.1654 -0.1172  0.1905
  421loPI   C4A 6730   4.444   7.844   8.163  0.2336  0.2699  0.2291
  421loPI   C5A 6731   4.759   7.515   7.904 -0.0060 -0.0015 -0.3525
  421loPI   C6A 6732   4.890   7.202   7.649 -0.1654  0.1956  0.0118
  421loPI   C1B 6733   2.701   8.352   8.827 -0.4222  0.0493 -0.1744
  421loPI   C2B 6734   2.789   8.310   8.359 -0.0150  0.0302 -0.2177
  421loPI   C3B 6735   2.836   8.469   7.951 -0.0228 -0.0273 -0.0816
  421loPI   C4B 6736   2.995   8.519   7.574 -0.1883  0.5823 -0.1982
  422loPI    C1 6737  17.278   4.155  10.295 -0.2509  0.0545  0.3139
  422loPI    C2 6738  17.194   4.545  10.333 -0.1709  0.0616  0.4235
  422loPI    C3 6739  17.435   4.366  10.597 -0.1470 -0.0454  0.3301
  422loPI   PO4 6740  17.355   4.153   9.931  0.1402  0.3420 -0.2766
  422loPI   GL1 6741  17.425   3.933   9.577  0.1056 -0.1654  0.3537
  422loPI   GL2 6742  17.235   3.681   9.617 -0.0468 -0.0770 -0.0754
  422loPI   C1A 6743  17.278   4.039   9.144  0.2634  0.2385 -0.1069
  422loPI   C2A 6744  16.997   4.188   8.875 -0.1288  0.0638  0.1941
  422loPI   C3A 6745  17.036   4.486   8.634 -0.3988 -0.3601  0.4660
  422loPI   C4A 6746  17.109   4.409   8.186  0.0732  0.4323 -0.1545
  422loPI   C5A 6747  17.380   4.413   7.701  0.0022 -0.1288 -0.2406
  422loPI   C6A 6748  17.277   4.576   7.330  0.0325  0.2162  0.1926
  422loPI   C1B 6749  17.312   3.558   9.168 -0.2194  0.0805 -0.2149
  422loPI   C2B 6750  17.619   3.232   8.900 -0.4298 -0.1341 -0.3186
  422loPI   C3B 6751  17.428   2.900   8.605  0.1211 -0.1298 -0.2481
  422loPI   C4B 6752  17.454   2.728   8.230 -0.3153 -0.1389  0.1407
  423loPI    C1 6753  17.577   7.634   9.668 -0.0245 -0.2786 -0.1007
  423loPI    C2 6754  17.543   7.712  10.059  0.1680  0.0455 -0.1451
  423loPI    C3 6755  17.215   7.646   9.839  0.0567 -0.1048  0.0619
  423loPI   PO4 6756  17.747   7.467   9.588  0.0550  0.0423  0.1090
  423loPI   GL1 6757  17.939   7.141   9.378  0.1400  0.0153 -0.2835
  423loPI   GL2 6758  18.246   7.309   9.387 -0.2723 -0.0840 -0.2224
  423loPI   C1A 6759  18.044   6.968   8.982 -0.2382 -0.0703 -0.0514
  423loPI   C2A 6760  17.957   6.933   8.569 -0.1881  0.3685 -0.0852
  423loPI   C3A 6761  18.067   6.887   8.134 -0.0545 -0.0119 -0.0377
  423loPI   C4A 6762  18.122   6.970   7.673  0.0762 -0.2534 -0.0177
  423loPI   C5A 6763  18.247   6.728   7.298 -0.2279 -0.1780  0.0466
  423loPI   C6A 6764  18.635   6.867   7.095  0.0015  0.0781  0.0630
  423loPI   C1B 6765  18.078   7.494   8.978  0.0810  0.1786  0.1327
  423loPI   C2B 6766  17.808   7.414   8.670 -0.1667  0.2034  0.3880
  423loPI   C3B 6767  17.608   7.251   8.331 -0.0582 -0.2627  0.2420
  423loPI   C4B 6768  17.406   7.301   7.884  0.2648  0.0131 -0.0858
  424loPI    C1 6769   4.702   9.334  10.074 -0.0853 -0.1486 -0.1842
  424loPI    C2 6770   4.665   8.966  10.228 -0.0128  0.0057  0.2145
  424loPI    C3 6771   4.998   9.178  10.294  0.0260  0.0742 -0.1737
  424loPI   PO4 6772   4.644   9.321   9.769  0.1411  0.2406 -0.5519
  424loPI   GL1 6773   4.407   9.367   9.504  0.1099  0.0612  0.0500
  424loPI   GL2 6774   4.642   9.405   9.281 -0.0615  0.1641 -0.3138
  424loPI   C1A 6775   4.074   9.310   9.187 -0.1619  0.1185  0.2407
  424loPI   C2A 6776   4.020   9.198   8.843  0.2327 -0.0995  0.1117
  424loPI   C3A 6777   3.897   9.181   8.420  0.1390  0.2978 -0.2656
  424loPI   C4A 6778   4.054   9.112   8.077 -0.2262  0.1890  0.0044
  424loPI   C5A 6779   3.908   9.073   7.706 -0.1081 -0.1782  0.0018
  424loPI   C6A 6780   4.063   8.792   7.326  0.3448 -0.1471  0.0683
  424loPI   C1B 6781   4.486   9.277   8.986  0.1514 -0.0724 -0.0116
  424loPI   C2B 6782   4.509   9.145   8.602  0.0309  0.1492  0.0096
  424loPI   C3B 6783   4.775   8.929   8.418  0.2757 -0.0508  0.0455
  424loPI   C4B 6784   5.155   8.774   8.571  0.2936 -0.0120 -0.1802
  425loPI    C1 6785   7.579   5.098   9.168  0.0662  0.0979  0.1619
  425loPI    C2 6786   7.434   5.458   9.070 -0.1629  0.0299  0.2459
  425loPI    C3 6787   7.409   5.327   9.448 -0.0964 -0.0820  0.2121
  425loPI   PO4 6788   7.679   4.952   8.963  0.0577 -0.1079  0.1634
  425loPI   GL1 6789   7.997   5.007   8.721  0.0198 -0.0562  0.4181
  425loPI   GL2 6790   8.170   4.760   8.462 -0.0336  0.0379  0.1601
  425loPI   C1A 6791   8.097   5.191   8.304 -0.3357 -0.1637  0.2626
  425loPI   C2A 6792   8.206   5.320   7.923 -0.0546  0.1417 -0.0459
  425loPI   C3A 6793   8.210   5.331   7.572 -0.0289  0.0319 -0.0843
  425loPI   C4A 6794   8.162   5.415   7.086  0.0421  0.3653  0.1980
  425loPI   C5A 6795   8.163   5.513   6.681 -0.0835  0.1133 -0.0940
  425loPI   C6A 6796   8.174   5.529   6.277 -0.0420 -0.1792  0.1988
  425loPI   C1B 6797   8.312   4.756   8.081  0.0597 -0.0881 -0.2866
  425loPI   C2B 6798   8.432   4.880   7.703  0.3139  0.1477 -0.2569
  425loPI   C3B 6799   8.337   4.952   7.228 -0.0089 -0.1639  0.1173
  425loPI   C4B 6800   8.084   4.894   6.918 -0.2329 -0.0661 -0.1279
  426loPI    C1 6801   3.965  13.009   9.879 -0.0619  0.1221  0.0205
  426loPI    C2 6802   3.973  13.288   9.591  0.2094  0.0942 -0.0018
  426loPI    C3 6803   4.225  13.313   9.901  0.1153 -0.0321  0.0861
  426loPI   PO4 6804   3.927  12.803   9.720  0.2660 -0.2613  0.1208
  426loPI   GL1 6805   4.030  12.675   9.329  0.0995 -0.2981  0.0520
  426loPI   GL2 6806   4.200  12.532   9.303  0.0811  0.2057 -0.1224
  426loPI   C1A 6807   4.133  13.179   9.143 -0.4094 -0.2008  0.0142
  426loPI   C2A 6808   4.172  13.443   8.791  0.0774  0.1180  0.1214
  426loPI   C3A 6809   4.194  13.632   8.308  0.0811  0.3973 -0.0521
  426loPI   C4A 6810   4.490  13.828   7.990 -0.0780 -0.3336 -0.3063
  426loPI   C5A 6811   4.647  13.724   7.585 -0.3187  0.1110 -0.3346
  426loPI   C6A 6812   4.769  13.710   7.226  0.0340 -0.0749 -0.1887
  426loPI   C1B 6813   3.941  12.641   8.888 -0.0815  0.2677 -0.0332
  426loPI   C2B 6814   3.891  12.697   8.523  0.1642  0.1006  0.2513
  426loPI   C3B 6815   3.968  12.659   8.153  0.1529 -0.1208  0.2054
  426loPI   C4B 6816   3.876  12.874   7.677  0.0707 -0.2534 -0.1555
  427loPI    C1 6817  15.145  13.440  10.465 -0.0215  0.0254  0.2445
  427loPI    C2 6818  15.352  13.779  10.514 -0.0039  0.0605 -0.0532
  427loPI    C3 6819  15.491  13.436  10.666  0.1915  0.1131 -0.1111
  427loPI   PO4 6820  14.885  13.579  10.357 -0.4805  0.1478 -0.0094
  427loPI   GL1 6821  14.887  13.394   9.854 -0.0241 -0.2538  0.3044
  427loPI   GL2 6822  14.755  13.110   9.646  0.0381  0.0683 -0.2737
  427loPI   C1A 6823  14.890  13.507   9.417  0.2137 -0.0748 -0.0880
  427loPI   C2A 6824  14.831  13.315   8.923 -0.0928  0.4363 -0.1219
  427loPI   C3A 6825  14.649  13.466   8.607  0.2196  0.1924  0.0886
  427loPI   C4A 6826  14.592  13.564   8.252  0.4097  0.0588 -0.1475
  427loPI   C5A 6827  14.604  13.740   7.919  0.0548 -0.0839  0.0343
  427loPI   C6A 6828  14.328  13.803   7.570 -0.0351 -0.2291  0.0705
  427loPI   C1B 6829  14.439  12.930   9.415 -0.0986  0.2952  0.0288
  427loPI   C2B 6830  14.419  12.902   8.977 -0.4427  0.1602 -0.0529
  427loPI   C3B 6831  14.376  12.994   8.550  0.4112  0.1199 -0.0458
  427loPI   C4B 6832  14.596  12.888   8.273  0.1431  0.1221  0.3051
  428loPI    C1 6833  17.934   0.849   9.627  0.1285  0.4015 -0.0565
  428loPI    C2 6834  17.598   0.657   9.527  0.3198 -0.1239  0.2692
  428loPI    C3 6835  17.579   1.023   9.689 -0.0779 -0.0503  0.0676
  428loPI   PO4 6836  18.120   0.661   9.573 -0.1096 -0.1572  0.2664
  428loPI   GL1 6837  18.218   0.492   9.277 -0.1878 -0.0775  0.0673
  428loPI   GL2 6838  18.087   0.231   9.328 -0.3456 -0.1463  0.0285
  428loPI   C1A 6839  18.101   0.741   8.846  0.0119 -0.1496 -0.1492
  428loPI   C2A 6840  18.325   0.880   8.549  0.1135  0.2305  0.2719
  428loPI   C3A 6841  18.592   0.699   8.216 -0.3240  0.0373 -0.0859
  428loPI   C4A 6842  18.797   0.367   8.087  0.2343  0.2815 -0.0085
  428loPI   C5A 6843  18.903   0.167   7.748 -0.0682  0.1251  0.0545
  428loPI   C6A 6844  18.870  -0.182   7.474  0.1124  0.2426 -0.3744
  428loPI   C1B 6845  17.709   0.433   9.035 -0.2988 -0.1241 -0.3564
  428loPI   C2B 6846  17.710   0.530   8.580 -0.1522  0.1607  0.0372
  428loPI   C3B 6847  17.605   0.357   8.206 -0.1154 -0.3840  0.2231
  428loPI   C4B 6848  17.497   0.378   7.867 -0.3608 -0.3558  0.3560
  429loPI    C1 6849   1.459   7.829   9.875  0.1134  0.3760  0.2695
  429loPI    C2 6850   1.072   7.918   9.828  0.0619 -0.0826 -0.2839
  429loPI    C3 6851   1.185   7.664  10.116 -0.0367  0.0968 -0.0836
  429loPI   PO4 6852   1.543   7.901   9.621 -0.0270  0.1321 -0.1502
  429loPI   GL1 6853   1.831   7.838   9.219 -0.2257  0.0297 -0.1367
  429loPI   GL2 6854   1.959   7.578   9.090  0.4098  0.3181 -0.0620
  429loPI   C1A 6855   1.651   7.896   8.778 -0.1029  0.1107 -0.0678
  429loPI   C2A 6856   1.696   7.715   8.291 -0.0281 -0.6577 -0.0653
  429loPI   C3A 6857   1.815   7.602   7.897  0.0293 -0.0297 -0.0031
  429loPI   C4A 6858   1.781   7.308   7.544 -0.0007  0.2461  0.1235
  429loPI   C5A 6859   1.485   7.029   7.383  0.1210 -0.0593 -0.1389
  429loPI   C6A 6860   1.068   7.018   7.225  0.1569 -0.1370  0.0917
  429loPI   C1B 6861   2.095   7.717   8.661  0.0258  0.1766 -0.2677
  429loPI   C2B 6862   2.190   7.715   8.241 -0.1737 -0.0113 -0.0911
  429loPI   C3B 6863   2.290   7.834   7.875 -0.1195  0.4097 -0.0014
  429loPI   C4B 6864   2.095   7.890   7.460 -0.0835  0.2027  0.1800
  430loPI    C1 6865   8.190   1.839   9.676 -0.1065  0.0739  0.0557
  430loPI    C2 6866   7.837   2.000   9.576 -0.1912 -0.0327  0.1795
  430loPI    C3 6867   7.850   1.643   9.756 -0.0095 -0.1239 -0.0105
  430loPI   PO4 6868   8.358   1.899   9.451 -0.0302  0.0715 -0.1169
  430loPI   GL1 6869   8.390   1.696   9.046 -0.0667  0.0890  0.0063
  430loPI   GL2 6870   8.684   1.886   8.894 -0.1683  0.1331  0.0078
  430loPI   C1A 6871   8.150   1.754   8.702  0.1309  0.1384  0.3566
  430loPI   C2A 6872   7.974   1.718   8.269  0.0722  0.0044 -0.0930
  430loPI   C3A 6873   8.009   1.811   7.879 -0.0254 -0.0200  0.0867
  430loPI   C4A 6874   7.957   2.071   7.528  0.0226 -0.0825 -0.3245
  430loPI   C5A 6875   8.234   2.118   7.284 -0.2714 -0.0126 -0.0733
  430loPI   C6A 6876   8.569   2.086   7.007  0.1276 -0.1597 -0.2189
  430loPI   C1B 6877   8.634   1.748   8.559 -0.1531  0.3949  0.2770
  430loPI   C2B 6878   8.525   1.714   8.105  0.1268 -0.1162 -0.0728
  430loPI   C3B 6879   8.475   1.391   7.804  0.1913  0.1374  0.0623
  430loPI   C4B 6880   8.160   1.042   7.571 -0.1124  0.1238  0.3858
  431loPI    C1 6881   7.735  18.516   9.918  0.0032  0.1209  0.0526
  431loPI    C2 6882   7.862  18.879  10.027  0.1608  0.1025 -0.0667
  431loPI    C3 6883   8.099  18.561  10.076  0.0819  0.0376 -0.1026
  431loPI   PO4 6884   7.644  18.599   9.687  0.0024  0.0785  0.4390
  431loPI   GL1 6885   7.674  18.416   9.283  0.1357 -0.1703 -0.0563
  431loPI   GL2 6886   7.839  18.572   9.068 -0.3286 -0.0652  0.1062
  431loPI   C1A 6887   7.518  18.026   9.129  0.1044  0.2667 -0.1696
  431loPI   C2A 6888   7.263  17.817   8.726 -0.3041 -0.0579 -0.1583
  431loPI   C3A 6889   7.401  17.899   8.249 -0.1461 -0.4631 -0.0604
  431loPI   C4A 6890   7.448  17.553   7.926  0.0415 -0.0151 -0.1397
  431loPI   C5A 6891   7.486  17.450   7.455  0.0042 -0.2069 -0.0532
  431loPI   C6A 6892   7.839  17.208   7.308  0.1959  0.2556  0.1770
  431loPI   C1B 6893   7.912  18.594   8.634  0.1533 -0.1173 -0.3078
  431loPI   C2B 6894   8.148  18.601   8.230 -0.5476 -0.2343 -0.0538
  431loPI   C3B 6895   8.343  18.709   7.857 -0.0281 -0.2167 -0.0044
  431loPI   C4B 6896   8.192  18.513   7.489 -0.3020 -0.0295 -0.0294
  432loPI    C1 6897   9.461   6.828   9.568  0.1166 -0.0918 -0.0954
  432loPI    C2 6898   9.855   6.797   9.631  0.1174  0.4572  0.2419
  432loPI    C3 6899   9.637   7.046   9.854 -0.4198  0.1921  0.0304
  432loPI   PO4 6900   9.446   6.610   9.431 -0.1273 -0.0161 -0.0190
  432loPI   GL1 6901   9.487   6.279   9.093 -0.1799 -0.2770 -0.0822
  432loPI   GL2 6902   9.183   6.269   8.974 -0.5012 -0.0267  0.1683
  432loPI   C1A 6903   9.566   6.430   8.679  0.1135  0.0377  0.1899
  432loPI   C2A 6904   9.510   6.528   8.298  0.1982  0.0970 -0.0902
  432loPI   C3A 6905   9.284   6.501   7.859 -0.2338 -0.2141 -0.1107
  432loPI   C4A 6906   9.045   6.625   7.462  0.1942 -0.0051  0.0477
  432loPI   C5A 6907   8.902   6.639   7.059  0.0326  0.2654  0.1556
  432loPI   C6A 6908   8.967   6.239   6.852  0.0594  0.1802 -0.1647
  432loPI   C1B 6909   9.133   6.150   8.598  0.1746 -0.0042  0.0280
  432loPI   C2B 6910   8.911   6.221   8.178  0.1447 -0.1506 -0.1658
  432loPI   C3B 6911   8.692   6.236   7.785 -0.4792  0.5554  0.0318
  432loPI   C4B 6912   8.586   6.236   7.315 -0.3539 -0.1064  0.0718
  433loPI    C1 6913  17.029   6.680  10.109 -0.0431 -0.0354 -0.1175
  433loPI    C2 6914  16.937   6.292  10.076 -0.0635 -0.0430  0.0215
  433loPI    C3 6915  16.674   6.547  10.236  0.0490 -0.0165  0.1658
  433loPI   PO4 6916  17.089   6.712   9.806  0.2481  0.0943 -0.0712
  433loPI   GL1 6917  17.071   6.591   9.382  0.0989 -0.0985  0.0114
  433loPI   GL2 6918  17.428   6.504   9.293 -0.0572  0.0643  0.2207
  433loPI   C1A 6919  17.004   6.894   8.913 -0.1712  0.3071  0.1484
  433loPI   C2A 6920  17.010   7.007   8.611  0.1442  0.2069 -0.2357
  433loPI   C3A 6921  16.964   6.849   8.209 -0.1230 -0.0468 -0.1155
  433loPI   C4A 6922  17.128   6.810   7.722 -0.2469  0.0050  0.0154
  433loPI   C5A 6923  17.524   6.807   7.491  0.2036  0.1428 -0.0896
  433loPI   C6A 6924  17.813   6.759   7.177  0.1005 -0.0764  0.0241
  433loPI   C1B 6925  17.740   6.607   8.945  0.1445 -0.0912 -0.0022
  433loPI   C2B 6926  17.806   6.478   8.539 -0.0518 -0.0988  0.1762
  433loPI   C3B 6927  17.841   6.396   8.069  0.3269 -0.0745  0.4699
  433loPI   C4B 6928  17.908   6.561   7.624  0.0979  0.0114  0.1309
  434loPI    C1 6929   4.241   5.261   9.729 -0.0286  0.0613  0.0533
  434loPI    C2 6930   4.414   5.446  10.038  0.1263 -0.0142  0.0126
  434loPI    C3 6931   4.140   5.162  10.103 -0.0755  0.1919  0.0758
  434loPI   PO4 6932   4.067   5.384   9.585 -0.0093 -0.0156  0.2286
  434loPI   GL1 6933   3.841   5.270   9.267  0.1630  0.2891  0.1250
  434loPI   GL2 6934   4.055   4.930   9.308 -0.0977 -0.0216 -0.0783
  434loPI   C1A 6935   3.707   5.145   8.859  0.1295  0.1946  0.0287
  434loPI   C2A 6936   3.388   5.199   8.515 -0.2828 -0.4104  0.0291
  434loPI   C3A 6937   3.183   5.069   8.185 -0.0336  0.0667 -0.1479
  434loPI   C4A 6938   3.167   5.237   7.802  0.1721  0.2537  0.0124
  434loPI   C5A 6939   2.933   5.053   7.449  0.0279  0.1159 -0.4508
  434loPI   C6A 6940   2.591   4.713   7.474  0.1108 -0.2361 -0.1581
  434loPI   C1B 6941   3.970   4.658   8.994  0.0102  0.2463 -0.0118
  434loPI   C2B 6942   3.898   4.709   8.589 -0.1850  0.0207 -0.0751
  434loPI   C3B 6943   3.897   5.017   8.289 -0.0139  0.0391  0.1583
  434loPI   C4B 6944   3.906   5.299   8.009 -0.2470  0.2055  0.4029
  435loPI    C1 6945  15.977  15.062  10.345 -0.0830 -0.0627 -0.0596
  435loPI    C2 6946  16.095  14.927  10.702 -0.1352  0.0940  0.0176
  435loPI    C3 6947  15.707  14.996  10.633 -0.1061  0.2291 -0.0118
  435loPI   PO4 6948  16.040  14.838  10.148 -0.0369 -0.0301 -0.1796
  435loPI   GL1 6949  16.183  14.618   9.794 -0.0399  0.1835  0.2045
  435loPI   GL2 6950  16.480  14.599   9.883 -0.2569  0.1534 -0.1943
  435loPI   C1A 6951  16.163  14.516   9.293 -0.2113  0.0781  0.0074
  435loPI   C2A 6952  16.154  14.366   8.887  0.0451 -0.3220 -0.1261
  435loPI   C3A 6953  16.239  14.374   8.463  0.0713 -0.1060  0.0228
  435loPI   C4A 6954  16.260  14.375   8.092 -0.3512  0.0840 -0.0834
  435loPI   C5A 6955  16.411  14.535   7.735 -0.2018 -0.1889  0.1919
  435loPI   C6A 6956  16.628  14.844   7.701 -0.0660 -0.0349  0.1001
  435loPI   C1B 6957  16.659  14.644   9.395 -0.0344 -0.0801  0.1776
  435loPI   C2B 6958  16.554  14.697   9.034  0.1088  0.1987 -0.0599
  435loPI   C3B 6959  16.676  14.874   8.685  0.4702  0.0802  0.2170
  435loPI   C4B 6960  16.557  14.833   8.261  0.1279 -0.1336 -0.0593
  436loPI    C1 6961  11.625   6.127   9.379 -0.3340  0.1145  0.1061
  436loPI    C2 6962  11.684   5.852   9.664 -0.0802 -0.1089 -0.1551
  436loPI    C3 6963  11.331   6.037   9.635 -0.1594 -0.1953  0.2044
  436loPI   PO4 6964  11.648   6.029   9.177 -0.4732  0.3429 -0.1190
  436loPI   GL1 6965  11.355   5.994   8.871  0.0984 -0.0304  0.0595
  436loPI   GL2 6966  11.490   6.316   8.777 -0.0549 -0.1989  0.2436
  436loPI   C1A 6967  11.530   5.892   8.451 -0.0861  0.0616  0.1308
  436loPI   C2A 6968  11.804   5.835   8.238  0.0109  0.0320 -0.3085
  436loPI   C3A 6969  11.648   5.911   7.811  0.0337  0.1784  0.1460
  436loPI   C4A 6970  11.679   6.077   7.333 -0.0214 -0.0894  0.0574
  436loPI   C5A 6971  11.865   6.353   7.012 -0.0718 -0.2114  0.0020
  436loPI   C6A 6972  11.863   6.563   6.561 -0.4415  0.1647 -0.2222
  436loPI   C1B 6973  11.210   6.548   8.483  0.1323 -0.1101  0.2283
  436loPI   C2B 6974  11.093   6.899   8.309  0.2898 -0.2460  0.0612
  436loPI   C3B 6975  10.578   6.969   8.069 -0.1407  0.1048  0.2387
  436loPI   C4B 6976  10.456   7.125   7.681  0.0433  0.0563  0.0347
  437loPI    C1 6977  12.436  15.450   9.881 -0.0810  0.0982 -0.2089
  437loPI    C2 6978  12.492  15.384  10.272  0.0368  0.1764 -0.2122
  437loPI    C3 6979  12.295  15.710  10.151 -0.0732  0.1091 -0.2153
  437loPI   PO4 6980  12.724  15.470   9.752 -0.1660 -0.1628 -0.1987
  437loPI   GL1 6981  12.960  15.165   9.563 -0.2018 -0.1149 -0.1962
  437loPI   GL2 6982  12.917  15.330   9.294  0.0626 -0.0953  0.0409
  437loPI   C1A 6983  13.078  14.732   9.322  0.3412 -0.0190  0.2108
  437loPI   C2A 6984  13.393  14.353   9.248 -0.4032  0.3669  0.1714
  437loPI   C3A 6985  13.703  13.983   9.126  0.0152 -0.3741 -0.1083
  437loPI   C4A 6986  14.067  13.873   8.867 -0.0493  0.0308  0.0683
  437loPI   C5A 6987  14.359  13.871   8.551 -0.3027  0.0023  0.3420
  437loPI   C6A 6988  14.351  14.103   8.098  0.0596 -0.2504  0.1084
  437loPI   C1B 6989  12.744  15.677   9.145 -0.0483 -0.1111  0.4268
  437loPI   C2B 6990  12.909  15.889   8.721 -0.0063  0.1716  0.2276
  437loPI   C3B 6991  13.273  15.711   8.346  0.1554 -0.0468 -0.1936
  437loPI   C4B 6992  13.223  15.457   8.006 -0.0008 -0.0020  0.4075
  438loPI    C1 6993   9.703   2.457   9.741  0.0577  0.0505  0.1314
  438loPI    C2 6994   9.511   2.332  10.068  0.0347 -0.1218  0.0535
  438loPI    C3 6995   9.824   2.579  10.102 -0.1685  0.1230  0.1842
  438loPI   PO4 6996   9.533   2.493   9.555 -0.0458 -0.0562  0.0702
  438loPI   GL1 6997   9.613   2.392   9.055  0.1766 -0.0615 -0.1828
  438loPI   GL2 6998   9.350   2.447   8.806  0.0757  0.3573  0.1119
  438loPI   C1A 6999   9.951   2.177   8.961  0.2578 -0.2244  0.1719
  438loPI   C2A 7000  10.405   1.982   8.774 -0.0737 -0.0292 -0.1853
  438loPI   C3A 7001  10.606   1.723   8.473  0.1851 -0.1830  0.1009
  438loPI   C4A 7002  10.699   1.658   7.960 -0.0009  0.0698 -0.1650
  438loPI   C5A 7003  10.602   1.790   7.546 -0.1060  0.2475  0.0034
  438loPI   C6A 7004  10.395   1.368   7.274  0.2508 -0.0449 -0.1628
  438loPI   C1B 7005   9.198   2.455   8.497  0.2432  0.2895  0.0682
  438loPI   C2B 7006   9.230   2.219   8.110  0.1004  0.4599 -0.2528
  438loPI   C3B 7007   9.473   2.311   7.675  0.3091  0.0612 -0.2345
  438loPI   C4B 7008   9.806   2.279   7.385  0.1684  0.1207 -0.1737
  439loPI    C1 7009  10.190  12.121  10.087 -0.0116  0.1200  0.2005
  439loPI    C2 7010  10.464  12.406  10.152  0.0794  0.1389 -0.2364
  439loPI    C3 7011  10.126  12.400  10.366  0.2499  0.3418  0.0437
  439loPI   PO4 7012  10.390  11.923  10.015  0.2130  0.2156 -0.1002
  439loPI   GL1 7013  10.193  11.769   9.609  0.1313  0.1605 -0.2591
  439loPI   GL2 7014   9.935  11.767   9.330 -0.1843  0.2621 -0.1287
  439loPI   C1A 7015  10.542  11.855   9.300 -0.0571 -0.1870 -0.0367
  439loPI   C2A 7016  10.730  12.142   8.939  0.1357 -0.0881  0.0216
  439loPI   C3A 7017  10.894  12.089   8.494  0.0738  0.3199 -0.0440
  439loPI   C4A 7018  10.896  11.713   8.202 -0.2052  0.3066  0.0862
  439loPI   C5A 7019  10.946  11.433   7.887 -0.1760  0.2563  0.0160
  439loPI   C6A 7020  11.369  11.245   7.752  0.0788  0.1086 -0.2558
  439loPI   C1B 7021  10.151  11.888   8.946 -0.0614 -0.1500 -0.0977
  439loPI   C2B 7022  10.460  11.632   8.687  0.0648 -0.2062  0.1088
  439loPI   C3B 7023  10.548  11.372   8.262  0.1969 -0.0304 -0.2325
  439loPI   C4B 7024  10.532  11.011   8.210 -0.2925  0.2267  0.1443
  440loPI    C1 7025   4.024   8.571   9.981  0.0863  0.1506  0.1106
  440loPI    C2 7026   4.039   8.792  10.314 -0.1475  0.0358  0.1992
  440loPI    C3 7027   4.349   8.561  10.214 -0.0586  0.1049  0.3133
  440loPI   PO4 7028   3.976   8.596   9.785  0.4797  0.0290  0.2658
  440loPI   GL1 7029   3.758   8.674   9.419  0.2321 -0.0093  0.0243
  440loPI   GL2 7030   3.829   8.292   9.401 -0.1448  0.2720  0.4325
  440loPI   C1A 7031   4.000   8.717   9.016 -0.0249  0.1301  0.3879
  440loPI   C2A 7032   4.293   8.727   8.766 -0.2392  0.1429 -0.2961
  440loPI   C3A 7033   4.370   8.691   8.308 -0.1339  0.0621 -0.1728
  440loPI   C4A 7034   4.570   8.875   8.001  0.1019  0.3281 -0.0892
  440loPI   C5A 7035   4.569   9.010   7.596 -0.1101  0.3259 -0.1255
  440loPI   C6A 7036   4.895   9.162   7.309 -0.0478 -0.0627  0.2445
  440loPI   C1B 7037   3.979   8.009   8.976 -0.2518 -0.1238 -0.4642
  440loPI   C2B 7038   3.995   7.690   8.521  0.0941 -0.1118  0.0781
  440loPI   C3B 7039   4.326   7.402   8.373  0.2911  0.1484 -0.2387
  440loPI   C4B 7040   4.784   7.356   8.374  0.1567 -0.3330  0.2883
  441loPI    C1 7041  17.375   1.590  10.056 -0.1567 -0.2032 -0.1260
  441loPI    C2 7042  17.263   1.969  10.111 -0.0171 -0.1869  0.0574
  441loPI    C3 7043  17.223   1.704  10.407  0.0074 -0.2853 -0.0269
  441loPI   PO4 7044  17.673   1.701   9.937 -0.1350 -0.1188  0.2425
  441loPI   GL1 7045  17.808   1.678   9.617  0.0743 -0.3246  0.2585
  441loPI   GL2 7046  17.542   1.905   9.326 -0.0304 -0.0550  0.0519
  441loPI   C1A 7047  17.843   1.565   9.189 -0.0760 -0.0943  0.5834
  441loPI   C2A 7048  18.063   1.636   8.844 -0.1539  0.1562  0.3815
  441loPI   C3A 7049  18.225   1.429   8.473 -0.1140  0.2115  0.0164
  441loPI   C4A 7050  18.378   1.221   8.174  0.3241 -0.0504  0.0966
  441loPI   C5A 7051  18.536   1.184   7.969  0.0301  0.1808 -0.2399
  441loPI   C6A 7052  18.803   1.326   7.742 -0.4860  0.2116 -0.1192
  441loPI   C1B 7053  17.545   1.811   8.839  0.0583 -0.2737  0.1730
  441loPI   C2B 7054  17.783   1.815   8.429 -0.0904  0.3619  0.2369
  441loPI   C3B 7055  18.046   1.573   8.063  0.1011  0.4698 -0.1236
  441loPI   C4B 7056  18.035   1.242   7.772 -0.2300  0.1713  0.1689
  442loPI    C1 7057   2.609  14.044   9.723  0.1069 -0.0959  0.2044
  442loPI    C2 7058   2.479  14.241  10.046 -0.0051  0.1140  0.0344
  442loPI    C3 7059   2.637  14.443   9.738  0.2080 -0.0938  0.0043
  442loPI   PO4 7060   2.605  13.756   9.709 -0.2457  0.0400  0.3075
  442loPI   GL1 7061   2.332  13.466   9.566  0.1085 -0.0386  0.1612
  442loPI   GL2 7062   2.688  13.559   9.286 -0.0040  0.0634 -0.0802
  442loPI   C1A 7063   2.216  13.573   9.141 -0.0401  0.2487  0.0747
  442loPI   C2A 7064   2.019  13.457   8.709  0.1400 -0.1389 -0.2732
  442loPI   C3A 7065   2.288  13.530   8.265 -0.1115 -0.0606  0.3722
  442loPI   C4A 7066   2.496  13.492   7.869 -0.1779 -0.2859  0.3030
  442loPI   C5A 7067   2.744  13.557   7.521  0.0392 -0.1305  0.1298
  442loPI   C6A 7068   2.706  13.514   7.013 -0.2309 -0.2312  0.1751
  442loPI   C1B 7069   2.673  13.492   8.759 -0.0710  0.0194 -0.1433
  442loPI   C2B 7070   2.776  13.568   8.282 -0.2243  0.3171  0.0701
  442loPI   C3B 7071   3.013  13.500   7.934  0.5328  0.0026 -0.0365
  442loPI   C4B 7072   3.263  13.115   7.668  0.1790  0.1929 -0.2475
  443loPI    C1 7073   8.089   9.562   9.579 -0.0731 -0.5239  0.2101
  443loPI    C2 7074   8.080   9.867   9.837 -0.0998 -0.3520  0.0088
  443loPI    C3 7075   8.336   9.565   9.893  0.0727 -0.1921  0.0967
  443loPI   PO4 7076   8.157   9.625   9.377  0.1318  0.0192  0.0880
  443loPI   GL1 7077   8.124   9.979   9.169 -0.2583 -0.0054  0.4673
  443loPI   GL2 7078   8.363  10.124   9.116  0.0278 -0.2901 -0.3971
  443loPI   C1A 7079   7.787  10.138   8.847 -0.3038 -0.0909  0.2051
  443loPI   C2A 7080   7.770  10.200   8.387  0.1117 -0.1618  0.0988
  443loPI   C3A 7081   7.470  10.215   8.003 -0.0305  0.0871 -0.0715
  443loPI   C4A 7082   7.497  10.473   7.564  0.3142 -0.2070 -0.2498
  443loPI   C5A 7083   7.353  10.534   7.037 -0.3054 -0.2202 -0.0308
  443loPI   C6A 7084   7.194  10.621   6.566 -0.0981  0.1949  0.3149
  443loPI   C1B 7085   8.315  10.175   8.749 -0.1374  0.1655 -0.0026
  443loPI   C2B 7086   8.259  10.066   8.309 -0.1183 -0.0253  0.2473
  443loPI   C3B 7087   8.087  10.210   7.960  0.1865  0.3142  0.0024
  443loPI   C4B 7088   7.830  10.098   7.645  0.2383 -0.0473  0.2552
  444loPI    C1 7089   2.506   8.388   9.756 -0.0582 -0.3334  0.0159
  444loPI    C2 7090   2.214   8.276  10.005  0.1489 -0.2256  0.3134
  444loPI    C3 7091   2.449   8.586  10.099 -0.0945  0.1500 -0.2593
  444loPI   PO4 7092   2.465   8.392   9.561 -0.1782  0.1914 -0.1248
  444loPI   GL1 7093   2.613   8.629   9.288  0.2037 -0.0686 -0.0748
  444loPI   GL2 7094   2.921   8.665   9.381  0.2674 -0.2208  0.1641
  444loPI   C1A 7095   2.810   8.852   8.875 -0.0500 -0.0464 -0.3572
  444loPI   C2A 7096   2.910   8.786   8.395  0.0668  0.0508 -0.0788
  444loPI   C3A 7097   3.200   8.842   8.042 -0.2394  0.0251  0.3059
  444loPI   C4A 7098   3.111   9.035   7.697 -0.2015 -0.0722  0.1487
  444loPI   C5A 7099   2.873   9.314   7.519 -0.0020 -0.2491 -0.0154
  444loPI   C6A 7100   2.633   9.644   7.248  0.1095 -0.2410  0.2308
  444loPI   C1B 7101   3.240   8.666   9.109  0.1656 -0.2478  0.0266
  444loPI   C2B 7102   3.159   8.482   8.691  0.0113  0.2011  0.0411
  444loPI   C3B 7103   3.310   8.401   8.300  0.0349 -0.2466  0.0546
  444loPI   C4B 7104   3.609   8.529   7.854  0.1092  0.1946 -0.0693
  445loPI    C1 7105  16.703   1.630   9.666 -0.0555 -0.1759 -0.0445
  445loPI    C2 7106  16.647   1.367   9.962  0.0232 -0.0191  0.1116
  445loPI    C3 7107  16.880   1.687  10.021  0.0228  0.0238 -0.1141
  445loPI   PO4 7108  16.833   1.457   9.408  0.4242  0.2439 -0.1724
  445loPI   GL1 7109  16.632   1.427   8.964  0.1153  0.2943  0.0883
  445loPI   GL2 7110  16.573   1.151   9.059  0.3037  0.2235  0.4222
  445loPI   C1A 7111  16.508   1.345   8.462 -0.1336 -0.1168  0.2399
  445loPI   C2A 7112  16.546   1.476   8.084  0.0819 -0.2193 -0.1598
  445loPI   C3A 7113  16.415   1.359   7.763  0.1269 -0.3006  0.1479
  445loPI   C4A 7114  16.209   1.160   7.480  0.1004 -0.2487  0.3596
  445loPI   C5A 7115  15.928   0.976   7.142 -0.2760 -0.3794 -0.1520
  445loPI   C6A 7116  15.805   0.524   7.286 -0.0740 -0.0036  0.4028
  445loPI   C1B 7117  16.298   1.003   8.768  0.1104  0.1120 -0.1821
  445loPI   C2B 7118  16.314   0.724   8.327 -0.1932  0.2141 -0.0020
  445loPI   C3B 7119  16.607   0.472   7.991 -0.1464  0.0556  0.0076
  445loPI   C4B 7120  16.586   0.042   8.022 -0.4262  0.4658 -0.2458
  446loPI    C1 7121   7.815   0.265   9.768 -0.1902  0.2970  0.1248
  446loPI    C2 7122   8.093   0.423   9.527 -0.1307 -0.2029 -0.1482
  446loPI    C3 7123   8.097   0.506   9.918 -0.0688  0.4087 -0.2684
  446loPI   PO4 7124   7.546   0.266   9.612  0.1053 -0.1522  0.1483
  446loPI   GL1 7125   7.599   0.199   9.139  0.0558 -0.1075  0.5240
  446loPI   GL2 7126   7.295  -0.002   9.178 -0.0348 -0.1299 -0.0431
  446loPI   C1A 7127   7.600  -0.057   8.776 -0.1129  0.0581 -0.3451
  446loPI   C2A 7128   7.638  -0.156   8.311  0.2915 -0.0343 -0.0596
  446loPI   C3A 7129   7.813  -0.313   7.892 -0.2387  0.3483 -0.0584
  446loPI   C4A 7130   8.093  -0.146   7.569 -0.1523 -0.1067 -0.4529
  446loPI   C5A 7131   7.959  -0.110   7.112  0.0051 -0.1062 -0.1238
  446loPI   C6A 7132   8.024  -0.123   6.600 -0.2048 -0.3164 -0.1432
  446loPI   C1B 7133   7.205   0.240   8.787  0.1133  0.0306 -0.2711
  446loPI   C2B 7134   7.141   0.363   8.327  0.0059 -0.1671 -0.3655
  446loPI   C3B 7135   6.828   0.426   7.907  0.0760  0.1664 -0.0718
  446loPI   C4B 7136   6.789   0.591   7.584  0.1192  0.2048 -0.1614
  447loPI    C1 7137   9.970  18.936   9.840 -0.0608  0.1168  0.0084
  447loPI    C2 7138  10.118  19.302   9.908 -0.0866  0.1012  0.1514
  447loPI    C3 7139   9.837  19.151  10.150 -0.1151  0.0080  0.0613
  447loPI   PO4 7140   9.854  18.846   9.578  0.1669 -0.0374 -0.2557
  447loPI   GL1 7141   9.906  18.900   9.162 -0.0364 -0.0307  0.3552
  447loPI   GL2 7142   9.865  18.682   9.037 -0.0095  0.0939  0.3045
  447loPI   C1A 7143   9.565  19.258   9.051  0.1495  0.2487 -0.1581
  447loPI   C2A 7144   9.612  19.623   8.906  0.0086  0.2253  0.1959
  447loPI   C3A 7145   9.837  19.548   8.523  0.0862 -0.0335 -0.0974
  447loPI   C4A 7146   9.878  19.782   8.218 -0.2371  0.1709  0.3463
  447loPI   C5A 7147   9.796  19.656   7.892  0.0055  0.3552  0.1715
  447loPI   C6A 7148   9.519  19.677   7.503  0.1276 -0.1917  0.2470
  447loPI   C1B 7149   9.801  18.951   8.720 -0.1463  0.1445  0.0445
  447loPI   C2B 7150   9.518  19.183   8.523  0.1570  0.1281  0.0415
  447loPI   C3B 7151   9.437  19.456   8.188  0.1285  0.0637 -0.0006
  447loPI   C4B 7152   9.254  19.783   7.940 -0.0838 -0.4786 -0.0928
  448loPI    C1 7153   6.712  12.162  10.152  0.2642 -0.1087 -0.0472
  448loPI    C2 7154   6.536  12.511  10.067  0.1077 -0.1441  0.1232
  448loPI    C3 7155   6.755  12.474  10.400  0.0997 -0.2167  0.1204
  448loPI   PO4 7156   6.758  12.098   9.845  0.2038  0.3015  0.0271
  448loPI   GL1 7157   7.091  12.051   9.570  0.3559 -0.0102  0.2549
  448loPI   GL2 7158   7.063  11.721   9.372  0.1857 -0.2663 -0.0188
  448loPI   C1A 7159   7.240  12.453   9.343 -0.0830  0.0438 -0.4981
  448loPI   C2A 7160   7.230  12.474   8.849  0.3309  0.2646 -0.1010
  448loPI   C3A 7161   7.265  12.535   8.488 -0.0505  0.2448 -0.1018
  448loPI   C4A 7162   7.150  12.708   8.135  0.0715 -0.1224  0.3566
  448loPI   C5A 7163   6.935  12.728   7.802 -0.0882  0.1971 -0.2222
  448loPI   C6A 7164   6.680  12.621   7.404  0.1059 -0.3427  0.2150
  448loPI   C1B 7165   6.967  12.102   9.012  0.0210 -0.1822  0.0066
  448loPI   C2B 7166   6.888  12.175   8.550 -0.3954  0.0151  0.0149
  448loPI   C3B 7167   6.980  12.250   8.030  0.3173  0.2393 -0.0893
  448loPI   C4B 7168   7.109  12.181   7.499  0.2161 -0.1787 -0.0479
  449loPI    C1 7169   3.919  12.276  10.149 -0.0978  0.0478 -0.0260
  449loPI    C2 7170   4.026  12.649  10.244 -0.0641 -0.0139  0.1854
  449loPI    C3 7171   4.015  12.367  10.527 -0.0672 -0.1788  0.0225
  449loPI   PO4 7172   3.781  12.312   9.899 -0.0154 -0.2857  0.3443
  449loPI   GL1 7173   3.763  12.245   9.559  0.1398 -0.0070  0.1919
  449loPI   GL2 7174   3.601  11.890   9.458 -0.2503 -0.1698  0.1410
  449loPI   C1A 7175   3.631  12.204   9.106 -0.2027 -0.0712 -0.0648
  449loPI   C2A 7176   3.612  12.201   8.720 -0.1827 -0.0196 -0.1860
  449loPI   C3A 7177   3.946  12.172   8.436 -0.2237 -0.0285 -0.0405
  449loPI   C4A 7178   4.335  11.872   8.333 -0.2617  0.0407 -0.1784
  449loPI   C5A 7179   4.465  11.555   8.251 -0.0313 -0.1959  0.2358
  449loPI   C6A 7180   4.707  11.327   8.155  0.0391  0.1269  0.0970
  449loPI   C1B 7181   3.751  11.729   9.006  0.0523  0.0254 -0.5813
  449loPI   C2B 7182   3.703  11.744   8.611  0.0941  0.0927  0.0780
  449loPI   C3B 7183   3.592  11.923   8.221  0.0982  0.3021  0.1013
  449loPI   C4B 7184   3.549  12.316   8.188  0.1510  0.1858 -0.0056
  450loPI    C1 7185   6.317   9.422  10.063  0.3380 -0.1327 -0.0701
  450loPI    C2 7186   6.316   9.024  10.099  0.1122 -0.1277 -0.0097
  450loPI    C3 7187   6.416   9.253  10.411 -0.1171 -0.1295  0.0674
  450loPI   PO4 7188   6.461   9.367   9.788 -0.1366  0.1965  0.0469
  450loPI   GL1 7189   6.323   9.323   9.320  0.0833 -0.1169  0.2051
  450loPI   GL2 7190   6.044   9.145   9.119  0.2781 -0.0994 -0.1599
  450loPI   C1A 7191   6.243   9.562   8.937 -0.0069 -0.0221  0.0449
  450loPI   C2A 7192   6.301   9.738   8.566  0.2332  0.0489 -0.1178
  450loPI   C3A 7193   6.190   9.619   8.095  0.1801  0.1604 -0.1357
  450loPI   C4A 7194   6.157   9.374   7.749  0.0217  0.2734  0.0789
  450loPI   C5A 7195   6.160   9.180   7.393  0.3067  0.0160 -0.0343
  450loPI   C6A 7196   6.422   8.880   7.223 -0.0071  0.2105  0.0171
  450loPI   C1B 7197   6.000   9.217   8.678 -0.1326  0.0369  0.2185
  450loPI   C2B 7198   6.006   9.122   8.200 -0.1699  0.2411 -0.3307
  450loPI   C3B 7199   5.794   8.989   7.740  0.1440  0.1670 -0.1638
  450loPI   C4B 7200   5.638   9.118   7.347 -0.1465 -0.0669  0.0718
  451loPI    C1 7201  11.174  11.734   9.797 -0.2348 -0.2795  0.1827
  451loPI    C2 7202  11.125  12.056  10.029 -0.0438 -0.2128  0.1323
  451loPI    C3 7203  10.868  11.983   9.731 -0.0185 -0.0395  0.0669
  451loPI   PO4 7204  11.408  11.733   9.792 -0.0870  0.0641  0.2066
  451loPI   GL1 7205  11.623  11.694   9.363  0.0580  0.0173  0.0159
  451loPI   GL2 7206  11.717  11.279   9.373 -0.2899  0.1031 -0.2329
  451loPI   C1A 7207  11.789  11.827   8.825  0.4662 -0.0786 -0.1623
  451loPI   C2A 7208  11.741  11.964   8.438  0.3636 -0.0147 -0.2614
  451loPI   C3A 7209  11.828  11.973   8.025  0.2625 -0.3134 -0.0685
  451loPI   C4A 7210  11.507  11.930   7.647 -0.0164  0.0181 -0.1729
  451loPI   C5A 7211  11.494  12.008   7.239 -0.1330  0.2559  0.0660
  451loPI   C6A 7212  11.415  12.221   6.856  0.1725 -0.2215 -0.0717
  451loPI   C1B 7213  11.943  11.351   9.075 -0.2477  0.1200  0.1616
  451loPI   C2B 7214  12.262  11.461   8.839  0.2370 -0.1683  0.3690
  451loPI   C3B 7215  12.338  11.217   8.439  0.3032 -0.1873 -0.0163
  451loPI   C4B 7216  12.371  11.085   7.992 -0.1034  0.0604  0.6293
  452loPI    C1 7217   8.397  17.186   9.674  0.0755  0.0546 -0.1492
  452loPI    C2 7218   8.323  16.928   9.971 -0.1288  0.2754 -0.0038
  452loPI    C3 7219   8.696  17.058   9.907 -0.0392  0.0168 -0.0209
  452loPI   PO4 7220   8.229  17.305   9.670 -0.1482  0.1201 -0.0629
  452loPI   GL1 7221   8.203  17.418   9.253 -0.1784 -0.2143 -0.3210
  452loPI   GL2 7222   7.963  17.681   9.055  0.1775  0.0555  0.3065
  452loPI   C1A 7223   8.314  17.172   8.958  0.3023 -0.2377 -0.1968
  452loPI   C2A 7224   8.336  16.954   8.634 -0.0666  0.1972 -0.1849
  452loPI   C3A 7225   8.473  16.750   8.370  0.1886  0.0105  0.0800
  452loPI   C4A 7226   8.483  16.605   8.060  0.0277  0.0855 -0.0628
  452loPI   C5A 7227   8.409  16.487   7.614  0.2384 -0.1318 -0.0355
  452loPI   C6A 7228   8.089  16.338   7.315 -0.0606 -0.0549 -0.2174
  452loPI   C1B 7229   7.773  17.661   8.682 -0.0244  0.0618 -0.2070
  452loPI   C2B 7230   7.776  17.617   8.327 -0.2286  0.4650  0.2760
  452loPI   C3B 7231   7.840  17.836   7.952  0.0465 -0.0986  0.2182
  452loPI   C4B 7232   8.063  18.250   7.902  0.0715  0.3328 -0.0196
  453loPI    C1 7233  16.286  10.581  10.217  0.0961  0.4504 -0.1517
  453loPI    C2 7234  16.619  10.573  10.438  0.0874  0.1444 -0.1457
  453loPI    C3 7235  16.319  10.817  10.538  0.0254 -0.0930  0.2685
  453loPI   PO4 7236  16.400  10.605   9.917 -0.1495  0.0247 -0.3128
  453loPI   GL1 7237  16.497  10.564   9.437 -0.4251 -0.3608 -0.1812
  453loPI   GL2 7238  16.747  10.442   9.524 -0.0058 -0.1564 -0.0833
  453loPI   C1A 7239  16.446  10.833   9.068  0.0137 -0.2566 -0.1102
  453loPI   C2A 7240  16.315  11.026   8.656  0.0172  0.3820 -0.4028
  453loPI   C3A 7241  16.207  11.094   8.373  0.1879  0.2212 -0.1788
  453loPI   C4A 7242  16.027  11.241   8.060  0.1072  0.0553 -0.1069
  453loPI   C5A 7243  15.707  11.284   7.692  0.0009  0.2455 -0.0066
  453loPI   C6A 7244  15.605  11.522   7.484  0.2418  0.2239  0.3544
  453loPI   C1B 7245  16.921  10.629   9.197  0.2136  0.0122  0.2610
  453loPI   C2B 7246  17.311  10.495   8.840 -0.2634 -0.2257 -0.0611
  453loPI   C3B 7247  17.476  10.337   8.395  0.0063 -0.0233  0.4177
  453loPI   C4B 7248  17.411  10.337   7.945  0.0064  0.0282  0.2452
  454loPI    C1 7249   8.088  10.802   9.772 -0.0728 -0.0286 -0.0390
  454loPI    C2 7250   7.780  11.052   9.825  0.0741  0.1287  0.0818
  454loPI    C3 7251   7.823  10.735  10.064 -0.0343  0.0654  0.0180
  454loPI   PO4 7252   8.270  10.852   9.601 -0.0700  0.0396 -0.0211
  454loPI   GL1 7253   8.448  10.647   9.245  0.2576 -0.0666  0.1958
  454loPI   GL2 7254   8.697  10.824   9.345  0.2189 -0.1276  0.0660
  454loPI   C1A 7255   8.610  10.626   8.843 -0.0801  0.2779  0.2147
  454loPI   C2A 7256   8.739  10.732   8.553  0.4640 -0.0496 -0.0060
  454loPI   C3A 7257   8.590  10.961   8.211  0.0086  0.0025  0.0079
  454loPI   C4A 7258   8.653  11.216   7.844 -0.4434  0.2527  0.2338
  454loPI   C5A 7259   8.537  11.105   7.476  0.2540 -0.0108  0.0039
  454loPI   C6A 7260   8.496  10.714   7.165 -0.3493 -0.0670 -0.1867
  454loPI   C1B 7261   8.893  11.032   8.907 -0.2457 -0.2495 -0.1116
  454loPI   C2B 7262   8.903  11.177   8.499  0.0955 -0.1329  0.3833
  454loPI   C3B 7263   8.585  11.501   8.413 -0.1023 -0.0822 -0.0859
  454loPI   C4B 7264   8.292  11.614   8.070 -0.0198 -0.1362  0.1868
  455loPI    C1 7265  11.331   7.998   9.514  0.1100 -0.0841 -0.1882
  455loPI    C2 7266  11.691   7.849   9.605  0.0140 -0.1546  0.0861
  455loPI    C3 7267  11.543   8.156   9.815 -0.2155 -0.3242  0.1755
  455loPI   PO4 7268  11.369   8.060   9.311  0.0518 -0.0344 -0.0416
  455loPI   GL1 7269  11.317   8.207   9.045 -0.1263 -0.0909 -0.1514
  455loPI   GL2 7270  11.114   8.239   8.834 -0.2704 -0.1602 -0.1473
  455loPI   C1A 7271  11.567   8.296   8.716 -0.0969  0.0698  0.2619
  455loPI   C2A 7272  11.636   8.324   8.254  0.0535 -0.4045 -0.3781
  455loPI   C3A 7273  11.735   8.379   7.876  0.0421  0.0827  0.2139
  455loPI   C4A 7274  11.939   8.447   7.538 -0.1974  0.2155  0.0984
  455loPI   C5A 7275  12.341   8.439   7.246  0.2913  0.0326  0.0276
  455loPI   C6A 7276  12.634   8.248   6.929 -0.4417 -0.3315  0.0803
  455loPI   C1B 7277  11.152   8.255   8.419  0.0233  0.1918  0.0554
  455loPI   C2B 7278  11.263   8.356   7.901 -0.0469  0.0840  0.1542
  455loPI   C3B 7279  11.476   8.131   7.498 -0.1199 -0.0165  0.4015
  455loPI   C4B 7280  11.773   7.918   7.153  0.3262  0.0428 -0.2195
  456loPI    C1 7281  16.991   5.410   9.661  0.2008 -0.3948 -0.0266
  456loPI    C2 7282  16.758   5.285   9.960 -0.1633  0.1178 -0.0840
  456loPI    C3 7283  16.596   5.468   9.643  0.2808  0.1276 -0.3123
  456loPI   PO4 7284  17.137   5.241   9.604 -0.0123 -0.1505 -0.2151
  456loPI   GL1 7285  17.509   5.153   9.286 -0.0471 -0.0876 -0.0503
  456loPI   GL2 7286  17.852   5.155   9.216  0.2195  0.1586 -0.2819
  456loPI   C1A 7287  17.347   5.115   8.876  0.0293 -0.2306  0.0792
  456loPI   C2A 7288  17.298   5.322   8.544 -0.3728 -0.1153 -0.0068
  456loPI   C3A 7289  17.510   5.641   8.328  0.1507  0.0018  0.2183
  456loPI   C4A 7290  17.698   5.558   7.902 -0.0977 -0.0040  0.1754
  456loPI   C5A 7291  17.903   5.321   7.575 -0.0498 -0.1929 -0.3616
  456loPI   C6A 7292  18.346   5.236   7.522  0.1854  0.0330 -0.1332
  456loPI   C1B 7293  17.832   5.033   8.800  0.3390  0.0248  0.3625
  456loPI   C2B 7294  17.833   5.056   8.429  0.0245 -0.1441  0.5152
  456loPI   C3B 7295  17.512   5.190   8.070  0.1200  0.2354 -0.3044
  456loPI   C4B 7296  17.297   4.900   7.730  0.1604  0.3428  0.0786
  457loPI    C1 7297  12.315   8.884   9.713  0.2257 -0.1411  0.0054
  457loPI    C2 7298  12.025   9.160   9.717 -0.0373 -0.4043 -0.2939
  457loPI    C3 7299  12.393   9.258   9.595  0.0725 -0.0092  0.3102
  457loPI   PO4 7300  12.331   8.634   9.642  0.1050  0.2827  0.0595
  457loPI   GL1 7301  12.537   8.215   9.402  0.2954  0.1566  0.2275
  457loPI   GL2 7302  12.771   8.411   9.193 -0.1580  0.3285  0.0112
  457loPI   C1A 7303  12.307   8.308   9.065  0.0722 -0.1940  0.2367
  457loPI   C2A 7304  12.111   8.442   8.672  0.0225 -0.0532  0.0257
  457loPI   C3A 7305  12.105   8.409   8.188 -0.1088 -0.2643  0.0542
  457loPI   C4A 7306  12.296   8.350   7.848  0.0064 -0.1718 -0.1169
  457loPI   C5A 7307  12.501   8.106   7.551 -0.0956 -0.1806  0.0321
  457loPI   C6A 7308  12.820   7.829   7.361 -0.2913 -0.2112 -0.2892
  457loPI   C1B 7309  12.714   8.491   8.766  0.0925 -0.0115  0.2023
  457loPI   C2B 7310  12.602   8.280   8.441 -0.3346  0.0714 -0.0691
  457loPI   C3B 7311  12.582   7.929   8.109  0.1734  0.0605 -0.0191
  457loPI   C4B 7312  12.748   7.563   7.987 -0.0856  0.1793 -0.0291
  458loPI    C1 7313   9.989   8.839   9.790 -0.0244 -0.2874 -0.0470
  458loPI    C2 7314  10.205   8.544   9.952  0.1093  0.0052  0.3237
  458loPI    C3 7315  10.112   8.866  10.170 -0.1536  0.1768 -0.0321
  458loPI   PO4 7316  10.093   8.870   9.559  0.1519 -0.0186 -0.1103
  458loPI   GL1 7317   9.985   8.942   9.177  0.0873  0.1083  0.2520
  458loPI   GL2 7318  10.107   8.663   9.123 -0.1900  0.0124  0.3685
  458loPI   C1A 7319   9.955   8.919   8.722 -0.1360 -0.1215 -0.0019
  458loPI   C2A 7320  10.029   8.921   8.288  0.0831 -0.4227  0.1080
  458loPI   C3A 7321   9.984   9.048   7.894  0.1931 -0.0232 -0.1044
  458loPI   C4A 7322  10.051   9.271   7.469 -0.1389 -0.1007  0.0862
  458loPI   C5A 7323  10.468   9.533   7.286 -0.1117 -0.6382  0.0688
  458loPI   C6A 7324  10.553   9.999   7.342 -0.0534 -0.1903  0.1871
  458loPI   C1B 7325  10.473   8.859   8.892  0.1119  0.0633 -0.2774
  458loPI   C2B 7326  10.464   9.007   8.572 -0.3332 -0.3975  0.0350
  458loPI   C3B 7327  10.455   9.129   8.208  0.0287 -0.0548 -0.1177
  458loPI   C4B 7328  10.500   9.134   7.744  0.4091  0.1772 -0.0009
  459loPI    C1 7329   0.625  12.205  10.174  0.1059  0.0061  0.0124
  459loPI    C2 7330   0.748  12.213  10.555  0.1715  0.1756 -0.0114
  459loPI    C3 7331   0.623  11.869  10.392  0.1302  0.1051  0.1666
  459loPI   PO4 7332   0.753  12.489  10.105 -0.4002 -0.0063  0.2735
  459loPI   GL1 7333   0.961  12.356   9.729  0.2057  0.2168  0.1147
  459loPI   GL2 7334   1.157  12.005   9.741  0.0346 -0.4525 -0.2572
  459loPI   C1A 7335   0.814  12.445   9.323 -0.2783 -0.0815 -0.0588
  459loPI   C2A 7336   0.524  12.437   8.966 -0.2743  0.1660 -0.0436
  459loPI   C3A 7337   0.659  12.372   8.545 -0.0606 -0.1695 -0.1274
  459loPI   C4A 7338   0.552  12.131   8.055  0.1191 -0.1810 -0.1360
  459loPI   C5A 7339   0.255  12.014   7.793  0.3735  0.3120 -0.2463
  459loPI   C6A 7340   0.212  11.821   7.522 -0.2307  0.1102  0.2570
  459loPI   C1B 7341   1.161  12.088   9.340 -0.1140  0.2589 -0.1568
  459loPI   C2B 7342   0.982  12.072   8.930 -0.0472  0.1005 -0.4497
  459loPI   C3B 7343   1.138  12.151   8.444 -0.2349 -0.1638 -0.1785
  459loPI   C4B 7344   1.082  11.996   8.028  0.2197  0.1111  0.3031
  460loPI    C1 7345   1.845  11.734  10.166  0.1668 -0.0417  0.0559
  460loPI    C2 7346   2.079  12.038  10.278  0.1294 -0.0476  0.1508
  460loPI    C3 7347   1.977  11.756  10.543  0.1306 -0.1211  0.0734
  460loPI   PO4 7348   1.906  11.709   9.897  0.1040  0.1580  0.1915
  460loPI   GL1 7349   2.186  11.550   9.506  0.0042 -0.1104 -0.0781
  460loPI   GL2 7350   2.054  11.826   9.377 -0.0846 -0.2624  0.0176
  460loPI   C1A 7351   2.494  11.150   9.321  0.0660 -0.3180  0.0974
  460loPI   C2A 7352   2.871  11.047   9.171  0.1853  0.1602 -0.0865
  460loPI   C3A 7353   2.976  11.074   8.789 -0.0494  0.3378 -0.1715
  460loPI   C4A 7354   2.756  11.054   8.415  0.1973 -0.3764 -0.4271
  460loPI   C5A 7355   2.397  10.779   8.329 -0.3754 -0.0458 -0.0880
  460loPI   C6A 7356   2.139  10.586   8.468  0.1582  0.3965 -0.1364
  460loPI   C1B 7357   2.306  11.553   9.026 -0.1104 -0.1290  0.1768
  460loPI   C2B 7358   2.416  11.278   8.807 -0.2645  0.0033  0.4335
  460loPI   C3B 7359   2.517  10.816   8.917 -0.0571  0.0394  0.2076
  460loPI   C4B 7360   2.282  10.465   8.901  0.0563  0.1862  0.2493
  461loPI    C1 7361   9.408  15.654   9.895  0.1525 -0.1691 -0.0249
  461loPI    C2 7362   9.263  15.949  10.123  0.0900 -0.0023 -0.2770
  461loPI    C3 7363   9.164  15.569  10.201 -0.0375  0.0638 -0.1090
  461loPI   PO4 7364   9.353  15.870   9.625 -0.0027  0.1743 -0.2548
  461loPI   GL1 7365   9.348  16.108   9.267  0.0835  0.0858 -0.0826
  461loPI   GL2 7366   9.602  16.235   9.144 -0.2614  0.2759 -0.0066
  461loPI   C1A 7367   9.305  16.145   8.788 -0.2828  0.0167  0.1791
  461loPI   C2A 7368   9.316  16.301   8.333  0.3437 -0.1299  0.0025
  461loPI   C3A 7369   9.281  16.212   7.908  0.1619 -0.1678  0.1509
  461loPI   C4A 7370   9.079  15.950   7.681  0.1786  0.0768  0.2386
  461loPI   C5A 7371   8.992  15.679   7.380  0.0963  0.0599  0.0629
  461loPI   C6A 7372   9.159  15.342   7.198 -0.0567  0.0973 -0.0750
  461loPI   C1B 7373   9.770  16.301   8.801 -0.4824 -0.0517  0.0847
  461loPI   C2B 7374   9.788  16.293   8.443  0.0312 -0.0161  0.1187
  461loPI   C3B 7375   9.710  16.453   8.081 -0.0347 -0.1190  0.2021
  461loPI   C4B 7376   9.681  16.504   7.573  0.0365 -0.0665 -0.0338
  462loPI    C1 7377  17.862  14.795  10.018 -0.1150  0.0696 -0.0004
  462loPI    C2 7378  18.102  14.572  10.247 -0.0966  0.3590  0.2687
  462loPI    C3 7379  17.814  14.791  10.415 -0.2361  0.3928 -0.0096
  462loPI   PO4 7380  18.078  14.897   9.822  0.1649 -0.1273 -0.0050
  462loPI   GL1 7381  18.130  14.820   9.424  0.0832 -0.0790  0.1816
  462loPI   GL2 7382  17.986  14.502   9.390 -0.5281 -0.1621  0.1743
  462loPI   C1A 7383  18.152  14.956   9.061  0.1917  0.3285 -0.0925
  462loPI   C2A 7384  18.206  14.853   8.612  0.1129  0.0594 -0.2605
  462loPI   C3A 7385  18.084  14.927   8.161 -0.0817  0.2497 -0.2211
  462loPI   C4A 7386  18.204  15.143   7.842 -0.1190  0.0282 -0.2468
  462loPI   C5A 7387  18.677  15.227   7.726  0.0965  0.1706 -0.0779
  462loPI   C6A 7388  19.064  15.433   7.721  0.2200  0.1842 -0.1608
  462loPI   C1B 7389  18.005  14.461   8.947  0.0391  0.0325 -0.2538
  462loPI   C2B 7390  18.129  14.310   8.556 -0.0167  0.2748  0.0478
  462loPI   C3B 7391  18.336  14.413   8.131  0.0466 -0.1721 -0.2104
  462loPI   C4B 7392  18.353  14.615   7.767  0.2165 -0.3293  0.2031
  463loPI    C1 7393  11.044  15.719  10.191 -0.0791 -0.3304 -0.3129
  463loPI    C2 7394  10.808  16.034  10.118  0.1558 -0.0688  0.0221
  463loPI    C3 7395  10.647  15.684  10.226 -0.0780  0.1320  0.3421
  463loPI   PO4 7396  11.215  15.685   9.996 -0.2817 -0.2754  0.2593
  463loPI   GL1 7397  11.214  15.607   9.549 -0.0518  0.2806 -0.1493
  463loPI   GL2 7398  11.502  15.935   9.498 -0.2553 -0.2979 -0.1491
  463loPI   C1A 7399  11.358  15.659   9.097  0.1135  0.0128 -0.1434
  463loPI   C2A 7400  11.411  15.617   8.608 -0.0934 -0.1720 -0.0398
  463loPI   C3A 7401  11.555  15.588   8.244 -0.0051 -0.0501  0.0166
  463loPI   C4A 7402  11.356  15.600   7.891 -0.4096 -0.0265  0.0456
  463loPI   C5A 7403  11.472  15.428   7.616  0.0315  0.4147 -0.0040
  463loPI   C6A 7404  11.777  15.285   7.274  0.2650 -0.0609  0.3225
  463loPI   C1B 7405  11.725  15.933   9.112 -0.0146  0.5776  0.0407
  463loPI   C2B 7406  11.831  15.906   8.655 -0.0743 -0.2280  0.0521
  463loPI   C3B 7407  11.824  16.036   8.159  0.1232 -0.2053  0.2086
  463loPI   C4B 7408  11.860  15.627   7.844 -0.0830 -0.1035 -0.2116
  464loPI    C1 7409   7.605   6.685   9.697 -0.3265 -0.3898 -0.1667
  464loPI    C2 7410   7.341   6.971   9.789 -0.0746 -0.2150  0.0284
  464loPI    C3 7411   7.452   6.705  10.066  0.2614 -0.0344  0.0730
  464loPI   PO4 7412   7.556   6.606   9.405  0.2282  0.1854 -0.1429
  464loPI   GL1 7413   7.322   6.808   9.080  0.2675  0.3657 -0.0324
  464loPI   GL2 7414   7.096   6.850   8.744 -0.0431  0.0842 -0.2193
  464loPI   C1A 7415   7.593   6.974   8.768  0.1831 -0.3022 -0.1155
  464loPI   C2A 7416   7.950   6.938   8.506  0.2966  0.0424  0.2507
  464loPI   C3A 7417   8.406   7.035   8.584  0.0021  0.3947  0.0629
  464loPI   C4A 7418   8.680   6.986   8.388 -0.0193  0.0772  0.0367
  464loPI   C5A 7419   8.671   6.642   7.983 -0.1274 -0.1801  0.1617
  464loPI   C6A 7420   8.579   6.729   7.474  0.2626  0.0946 -0.0595
  464loPI   C1B 7421   7.247   6.815   8.259 -0.1976 -0.2349  0.0056
  464loPI   C2B 7422   7.115   6.830   7.773 -0.0226 -0.1366 -0.0776
  464loPI   C3B 7423   7.196   6.583   7.373  0.0588  0.2254  0.1978
  464loPI   C4B 7424   7.361   6.186   7.116  0.0844  0.1468  0.1026
  465loPI    C1 7425  15.355  14.296  10.355  0.0520 -0.2204  0.2214
  465loPI    C2 7426  15.320  14.612  10.597  0.0014 -0.0186 -0.0441
  465loPI    C3 7427  15.281  14.242  10.744  0.1616  0.0924  0.2887
  465loPI   PO4 7428  15.251  14.323  10.095 -0.2819 -0.1503 -0.0987
  465loPI   GL1 7429  15.409  14.392   9.691  0.0465 -0.2621  0.0308
  465loPI   GL2 7430  15.237  14.381   9.536 -0.2857  0.0652 -0.0969
  465loPI   C1A 7431  15.682  14.607   9.442 -0.1030 -0.0601 -0.0162
  465loPI   C2A 7432  15.734  14.747   9.001 -0.1174  0.2166 -0.0456
  465loPI   C3A 7433  15.648  14.769   8.728 -0.2581  0.2135  0.0821
  465loPI   C4A 7434  15.528  14.768   8.350  0.3100  0.0319  0.3116
  465loPI   C5A 7435  15.536  14.901   7.868  0.1041 -0.1743  0.2901
  465loPI   C6A 7436  15.576  14.795   7.482  0.0910 -0.3063  0.2313
  465loPI   C1B 7437  15.461  14.178   9.181 -0.2471  0.4501  0.3039
  465loPI   C2B 7438  15.719  14.199   8.931  0.2869 -0.0063 -0.0736
  465loPI   C3B 7439  15.777  14.209   8.493 -0.8602  0.1215 -0.2508
  465loPI   C4B 7440  15.857  14.087   8.059  0.0478 -0.1109  0.1308
  466loPI    C1 7441   5.197  16.036  10.275 -0.3614  0.0842 -0.0472
  466loPI    C2 7442   5.134  15.741  10.012 -0.1043 -0.0475  0.0354
  466loPI    C3 7443   4.932  15.748  10.357  0.0985 -0.2922  0.1621
  466loPI   PO4 7444   5.174  16.229  10.161 -0.3964  0.0006  0.2406
  466loPI   GL1 7445   5.376  16.148   9.737  0.0435  0.0365 -0.0577
  466loPI   GL2 7446   5.433  16.472   9.709 -0.0712  0.0417 -0.0262
  466loPI   C1A 7447   5.192  16.036   9.266  0.1144 -0.2724  0.3217
  466loPI   C2A 7448   5.348  15.708   8.981  0.1276 -0.2264 -0.0358
  466loPI   C3A 7449   5.690  15.645   8.731  0.3749  0.0681 -0.1634
  466loPI   C4A 7450   5.692  15.761   8.333  0.0869  0.0209 -0.1393
  466loPI   C5A 7451   5.615  15.771   7.898 -0.1815  0.0121  0.1655
  466loPI   C6A 7452   5.469  16.016   7.587  0.5007 -0.2133 -0.0943
  466loPI   C1B 7453   5.678  16.460   9.367  0.0579 -0.3628 -0.1317
  466loPI   C2B 7454   5.764  16.693   9.017 -0.0575  0.0339  0.1624
  466loPI   C3B 7455   5.651  16.932   8.636 -0.1318  0.0632 -0.0301
  466loPI   C4B 7456   5.638  16.677   8.313 -0.0272 -0.1132  0.1715
  467loPI    C1 7457  18.869   4.013   9.881  0.0155  0.0320 -0.0106
  467loPI    C2 7458  18.807   4.306   9.616  0.1159  0.3039  0.2601
  467loPI    C3 7459  18.606   4.304   9.962  0.0288 -0.0158  0.2104
  467loPI   PO4 7460  19.048   3.875   9.788  0.0775  0.1779  0.3418
  467loPI   GL1 7461  19.302   4.205   9.453 -0.2577 -0.0719  0.0329
  467loPI   GL2 7462  19.166   4.001   9.312  0.3380  0.0848  0.1953
  467loPI   C1A 7463  19.653   3.951   9.135 -0.2026 -0.2042 -0.2818
  467loPI   C2A 7464  19.784   3.988   8.721  0.0735  0.0162  0.3285
  467loPI   C3A 7465  19.838   4.080   8.274 -0.2012 -0.1745  0.0316
  467loPI   C4A 7466  19.816   4.090   7.802 -0.2628  0.0019 -0.3666
  467loPI   C5A 7467  19.449   4.148   7.444  0.2478 -0.1276 -0.2002
  467loPI   C6A 7468  19.143   3.987   7.242  0.1652  0.2154  0.3261
  467loPI   C1B 7469  18.894   4.051   8.998  0.3698  0.0070  0.2553
  467loPI   C2B 7470  18.845   3.910   8.598  0.0942 -0.0606 -0.1545
  467loPI   C3B 7471  18.752   3.702   8.309 -0.1408  0.2208  0.6043
  467loPI   C4B 7472  18.536   3.764   7.856  0.0234 -0.1524  0.1827
  468loPI    C1 7473  12.082  13.896  10.243  0.1322  0.0428  0.0062
  468loPI    C2 7474  12.026  14.009  10.622 -0.0020 -0.1038  0.0309
  468loPI    C3 7475  12.372  13.841  10.513 -0.0275 -0.2196  0.1270
  468loPI   PO4 7476  11.972  14.107  10.166 -0.0549 -0.0028 -0.0315
  468loPI   GL1 7477  11.912  14.239   9.784  0.3177  0.0165  0.0976
  468loPI   GL2 7478  11.819  14.039   9.595  0.2596 -0.1869  0.2331
  468loPI   C1A 7479  11.943  14.614   9.526  0.1327  0.0896  0.3522
  468loPI   C2A 7480  11.700  14.748   9.273 -0.0155  0.1128  0.3912
  468loPI   C3A 7481  11.441  14.759   8.823  0.1875  0.2150  0.1266
  468loPI   C4A 7482  11.393  14.604   8.465 -0.2607 -0.1346 -0.0692
  468loPI   C5A 7483  11.108  14.368   8.204 -0.1129  0.0275 -0.4231
  468loPI   C6A 7484  10.676  14.296   8.008 -0.2441 -0.0076 -0.0744
  468loPI   C1B 7485  11.591  14.229   9.270 -0.1585  0.0605 -0.0847
  468loPI   C2B 7486  11.936  14.473   9.005 -0.3989 -0.1821 -0.0039
  468loPI   C3B 7487  11.919  14.420   8.550  0.5225 -0.3167 -0.1002
  468loPI   C4B 7488  11.841  14.508   8.145 -0.0403  0.0925 -0.0325
  469loPI    C1 7489   1.100   9.262   9.702  0.0320  0.1448  0.1655
  469loPI    C2 7490   1.254   8.899   9.769  0.3276  0.2731  0.1995
  469loPI    C3 7491   0.960   9.039  10.002  0.0774 -0.0187  0.0662
  469loPI   PO4 7492   1.011   9.242   9.487  0.1246 -0.0908  0.1229
  469loPI   GL1 7493   0.892   9.288   9.072 -0.2046 -0.1439  0.0917
  469loPI   GL2 7494   0.818   9.610   9.040 -0.0823  0.3993 -0.1604
  469loPI   C1A 7495   0.963   9.095   8.687  0.0907 -0.3067 -0.2955
  469loPI   C2A 7496   1.045   9.165   8.237  0.2912  0.0134  0.1148
  469loPI   C3A 7497   0.821   9.037   7.884  0.3964  0.1326 -0.0046
  469loPI   C4A 7498   0.650   9.195   7.543  0.0396 -0.0577  0.0831
  469loPI   C5A 7499   0.726   9.257   7.120  0.3222  0.2370  0.0435
  469loPI   C6A 7500   0.648   9.249   6.711 -0.1186  0.0951  0.0266
  469loPI   C1B 7501   0.918   9.616   8.616  0.1228 -0.3315 -0.1794
  469loPI   C2B 7502   0.946   9.877   8.296 -0.1696  0.0203 -0.0427
  469loPI   C3B 7503   1.013  10.140   7.921 -0.0344  0.0316 -0.2275
  469loPI   C4B 7504   1.035  10.501   7.621  0.2663  0.0765  0.2293
  470loPI    C1 7505   4.096  11.075   9.665  0.1052 -0.1407  0.0807
  470loPI    C2 7506   4.350  11.099   9.972  0.1023  0.0071  0.0719
  470loPI    C3 7507   4.042  11.353   9.946  0.1798  0.0826 -0.1229
  470loPI   PO4 7508   4.158  10.830   9.599  0.3361  0.1553 -0.1885
  470loPI   GL1 7509   3.917  10.693   9.255  0.0134  0.1548 -0.1630
  470loPI   GL2 7510   3.721  10.636   9.294  0.3205  0.1816 -0.0863
  470loPI   C1A 7511   3.895  10.592   8.838 -0.0222  0.0925  0.0579
  470loPI   C2A 7512   3.842  10.686   8.408  0.0840 -0.1772  0.3266
  470loPI   C3A 7513   3.807  10.994   8.090 -0.0985 -0.0369 -0.1176
  470loPI   C4A 7514   3.699  11.131   7.687 -0.1187  0.1803 -0.1336
  470loPI   C5A 7515   3.524  11.008   7.252  0.0443  0.2446 -0.1796
  470loPI   C6A 7516   3.705  10.776   6.867  0.2010  0.0477 -0.1537
  470loPI   C1B 7517   3.495  10.434   9.049  0.0635 -0.0681  0.1065
  470loPI   C2B 7518   3.542  10.316   8.622  0.1639 -0.1157 -0.0348
  470loPI   C3B 7519   3.389  10.342   8.209  0.1381 -0.0673  0.1496
  470loPI   C4B 7520   3.568  10.369   7.845  0.1460  0.0412  0.4361
  471loPI    C1 7521  19.093  17.635  10.378 -0.0249  0.0725  0.0659
  471loPI    C2 7522  19.157  17.431  10.717  0.0312 -0.0017  0.0108
  471loPI    C3 7523  19.392  17.369  10.399 -0.1063 -0.0324 -0.0858
  471loPI   PO4 7524  18.855  17.838  10.439  0.0665 -0.0563 -0.2674
  471loPI   GL1 7525  18.724  17.810   9.926  0.0698  0.0824 -0.0853
  471loPI   GL2 7526  19.086  17.819   9.868  0.1000 -0.1232 -0.0103
  471loPI   C1A 7527  18.396  17.930   9.613  0.1834 -0.1559 -0.1014
  471loPI   C2A 7528  18.114  17.810   9.253  0.0479  0.0301  0.3185
  471loPI   C3A 7529  18.015  17.564   8.860 -0.1138 -0.1532 -0.0039
  471loPI   C4A 7530  18.112  17.249   8.545  0.0320 -0.2070  0.0821
  471loPI   C5A 7531  18.241  17.280   8.093 -0.0707  0.0545  0.0376
  471loPI   C6A 7532  18.359  17.111   7.658 -0.1065  0.1954  0.1389
  471loPI   C1B 7533  19.103  17.586   9.512  0.0275  0.0755  0.2732
  471loPI   C2B 7534  19.006  17.476   9.074  0.0009 -0.1508 -0.1332
  471loPI   C3B 7535  19.094  17.733   8.654 -0.1182  0.2479  0.0292
  471loPI   C4B 7536  19.064  17.813   8.181  0.3245 -0.4132  0.0859
  472loPI    C1 7537  13.542   8.518   9.820  0.0637  0.3659 -0.1499
  472loPI    C2 7538  13.489   8.544  10.216 -0.1775 -0.1377 -0.1408
  472loPI    C3 7539  13.799   8.338  10.069 -0.0579  0.0930 -0.2176
  472loPI   PO4 7540  13.303   8.520   9.763 -0.0066  0.3257  0.1647
  472loPI   GL1 7541  13.243   8.571   9.419 -0.1174  0.1435 -0.1456
  472loPI   GL2 7542  13.422   8.781   9.332  0.0824 -0.0392 -0.0809
  472loPI   C1A 7543  13.261   8.437   9.015  0.2365  0.1265  0.0306
  472loPI   C2A 7544  13.543   8.220   8.690 -0.0255 -0.1001 -0.0060
  472loPI   C3A 7545  13.727   8.219   8.266 -0.2144 -0.3689 -0.1502
  472loPI   C4A 7546  13.877   8.405   7.844  0.5224  0.0076 -0.3557
  472loPI   C5A 7547  13.874   8.680   7.411 -0.0623 -0.0926 -0.2344
  472loPI   C6A 7548  13.990   8.757   6.937 -0.1342  0.1474 -0.1451
  472loPI   C1B 7549  13.460   8.806   8.872  0.2306  0.0297  0.0130
  472loPI   C2B 7550  13.451   8.675   8.417 -0.0399  0.0672  0.1227
  472loPI   C3B 7551  13.565   8.807   7.996 -0.0936 -0.4645  0.1594
  472loPI   C4B 7552  13.672   9.127   7.551 -0.1343 -0.1975  0.0369
  473loPI    C1 7553  17.810   6.404  10.100 -0.2271 -0.1460 -0.1819
  473loPI    C2 7554  17.521   6.672  10.032 -0.2516 -0.0983  0.1005
  473loPI    C3 7555  17.493   6.422  10.343 -0.1117 -0.2668 -0.0205
  473loPI   PO4 7556  17.854   6.258   9.958  0.2187  0.2145 -0.3060
  473loPI   GL1 7557  17.980   6.216   9.554 -0.2906  0.2829  0.1970
  473loPI   GL2 7558  17.733   6.133   9.356  0.2130  0.0536  0.0898
  473loPI   C1A 7559  18.134   6.432   9.192  0.0583 -0.1459  0.0163
  473loPI   C2A 7560  18.228   6.313   8.814 -0.0294 -0.0068  0.1685
  473loPI   C3A 7561  18.303   6.526   8.456 -0.2886  0.2769  0.1636
  473loPI   C4A 7562  18.328   6.447   7.990  0.0001  0.1735 -0.1510
  473loPI   C5A 7563  18.418   6.178   7.620 -0.0774 -0.2705  0.0130
  473loPI   C6A 7564  18.353   5.741   7.625 -0.1037  0.2551 -0.2201
  473loPI   C1B 7565  17.716   6.086   8.895  0.0900 -0.0654  0.2100
  473loPI   C2B 7566  17.869   5.983   8.462  0.1659 -0.2275  0.0984
  473loPI   C3B 7567  18.053   5.908   8.064  0.0614 -0.1510 -0.0146
  473loPI   C4B 7568  17.914   6.016   7.713 -0.0234  0.1218 -0.2734
  474loPI    C1 7569   2.702  16.726   9.797  0.0548  0.2087 -0.2694
  474loPI    C2 7570   2.568  16.350   9.824  0.0341  0.2202 -0.2062
  474loPI    C3 7571   2.472  16.616  10.106 -0.1100  0.3225 -0.3498
  474loPI   PO4 7572   2.744  16.857   9.489 -0.1770 -0.1632 -0.0030
  474loPI   GL1 7573   2.641  17.059   9.088 -0.0708  0.1364 -0.0057
  474loPI   GL2 7574   2.342  17.127   9.202 -0.0457 -0.3599  0.1649
  474loPI   C1A 7575   2.746  16.759   8.728 -0.0661  0.0206  0.2112
  474loPI   C2A 7576   2.710  16.313   8.457  0.1721 -0.1766 -0.0147
  474loPI   C3A 7577   2.861  16.241   8.126 -0.3278 -0.0942 -0.1002
  474loPI   C4A 7578   2.851  16.390   7.633 -0.0793  0.0024  0.1123
  474loPI   C5A 7579   2.620  16.559   7.360 -0.0836  0.2156  0.0961
  474loPI   C6A 7580   2.486  16.942   7.304  0.2847  0.1779 -0.0944
  474loPI   C1B 7581   2.046  17.287   8.796 -0.0214  0.0174  0.0986
  474loPI   C2B 7582   2.054  17.241   8.490  0.1681 -0.0224  0.1333
  474loPI   C3B 7583   2.059  17.031   8.080 -0.2485 -0.1142  0.1265
  474loPI   C4B 7584   1.961  16.889   7.630 -0.2340 -0.3396  0.2516
  475loPI    C1 7585  16.672   0.545   9.871 -0.0228 -0.1972 -0.0586
  475loPI    C2 7586  16.507   0.581  10.233 -0.0236 -0.0583 -0.0723
  475loPI    C3 7587  16.789   0.839  10.116  0.0422 -0.1585 -0.1356
  475loPI   PO4 7588  16.572   0.571   9.666  0.1275 -0.1716 -0.0499
  475loPI   GL1 7589  16.365   0.337   9.255  0.0429 -0.1117  0.2464
  475loPI   GL2 7590  16.378   0.660   9.158 -0.0428  0.3933 -0.0902
  475loPI   C1A 7591  16.623   0.207   8.911  0.1218  0.1484 -0.2853
  475loPI   C2A 7592  16.686   0.356   8.520  0.0405  0.2781 -0.1224
  475loPI   C3A 7593  16.798   0.777   8.392  0.1064 -0.3084 -0.1081
  475loPI   C4A 7594  16.749   0.989   8.043  0.2033  0.1304 -0.0368
  475loPI   C5A 7595  16.633   0.930   7.661  0.1897 -0.0168  0.0326
  475loPI   C6A 7596  16.533   0.856   7.246 -0.0974  0.3354  0.5174
  475loPI   C1B 7597  16.226   0.477   8.762 -0.2710 -0.1586 -0.3574
  475loPI   C2B 7598  16.123   0.270   8.477 -0.4175 -0.0957 -0.1300
  475loPI   C3B 7599  16.140   0.288   8.068  0.1308  0.0230 -0.1409
  475loPI   C4B 7600  16.057   0.344   7.655 -0.2541  0.0148  0.0126
  476loPI    C1 7601  12.051  15.182  10.381 -0.0089  0.1137 -0.1184
  476loPI    C2 7602  12.317  14.894  10.301 -0.1977 -0.1010  0.0122
  476loPI    C3 7603  12.041  14.838  10.584 -0.2050  0.2316  0.0757
  476loPI   PO4 7604  12.021  15.266  10.096 -0.1728 -0.0073 -0.0105
  476loPI   GL1 7605  12.218  14.999   9.757  0.0421 -0.1269 -0.1473
  476loPI   GL2 7606  12.088  15.161   9.593  0.3351  0.1600 -0.0176
  476loPI   C1A 7607  12.548  14.949   9.485 -0.0708  0.0705 -0.3478
  476loPI   C2A 7608  12.723  14.976   9.064  0.1547 -0.0601  0.3260
  476loPI   C3A 7609  12.896  15.328   8.793  0.1243  0.0826 -0.0123
  476loPI   C4A 7610  13.047  15.284   8.484 -0.1628 -0.0470  0.4595
  476loPI   C5A 7611  12.867  15.047   8.113 -0.2428 -0.1016  0.0594
  476loPI   C6A 7612  12.732  14.926   7.714 -0.0269 -0.3147  0.1634
  476loPI   C1B 7613  12.387  15.368   9.234 -0.1483  0.0387  0.0222
  476loPI   C2B 7614  12.401  15.474   8.771 -0.0712 -0.1091 -0.0116
  476loPI   C3B 7615  12.650  15.590   8.412  0.0946  0.0822 -0.0969
  476loPI   C4B 7616  12.682  15.729   7.987  0.0616 -0.0628  0.2405
  477loPI    C1 7617   3.075   0.607  10.095  0.1360 -0.0214 -0.0986
  477loPI    C2 7618   2.911   0.972  10.119  0.0688 -0.0613  0.0610
  477loPI    C3 7619   2.791   0.682  10.367 -0.1281 -0.2903 -0.2935
  477loPI   PO4 7620   3.012   0.478   9.794 -0.2880 -0.2045  0.1678
  477loPI   GL1 7621   2.728   0.359   9.287 -0.3097  0.0309  0.0990
  477loPI   GL2 7622   2.889   0.576   9.257 -0.2387  0.0264  0.2244
  477loPI   C1A 7623   2.560   0.248   8.942  0.0952 -0.2381  0.2692
  477loPI   C2A 7624   2.675   0.327   8.472 -0.0191 -0.0942 -0.1580
  477loPI   C3A 7625   2.712   0.224   8.069 -0.0213 -0.2794  0.4523
  477loPI   C4A 7626   2.921   0.319   7.650  0.0687 -0.0780 -0.1704
  477loPI   C5A 7627   3.214   0.452   7.310 -0.0571  0.4054 -0.0791
  477loPI   C6A 7628   3.526   0.214   7.078  0.1062  0.1468  0.1468
  477loPI   C1B 7629   2.751   0.697   8.830  0.2394  0.5353  0.3289
  477loPI   C2B 7630   2.403   0.845   8.457 -0.0332  0.0733  0.0543
  477loPI   C3B 7631   2.298   0.698   8.146  0.0320  0.2620 -0.1755
  477loPI   C4B 7632   2.466   0.521   7.788  0.2519  0.1900 -0.1526
  478loPI    C1 7633   6.105   0.087   9.447 -0.0493  0.1711 -0.1102
  478loPI    C2 7634   6.322  -0.162   9.672  0.0298  0.1783 -0.1781
  478loPI    C3 7635   6.453   0.210   9.601 -0.0759  0.2311 -0.0978
  478loPI   PO4 7636   5.956  -0.071   9.248 -0.0051 -0.0437 -0.1904
  478loPI   GL1 7637   6.028   0.001   8.933  0.1053  0.3779 -0.0497
  478loPI   GL2 7638   6.182   0.311   8.967 -0.0978  0.3275 -0.0202
  478loPI   C1A 7639   6.169   0.023   8.560  0.0598 -0.2888  0.1364
  478loPI   C2A 7640   6.045   0.208   8.175  0.2786 -0.2630 -0.0727
  478loPI   C3A 7641   5.915   0.119   7.744 -0.2339 -0.3463 -0.1253
  478loPI   C4A 7642   5.643  -0.288   7.559  0.0828 -0.2315  0.0187
  478loPI   C5A 7643   5.198  -0.475   7.429 -0.0460 -0.1678  0.0535
  478loPI   C6A 7644   4.766  -0.302   7.316  0.0617 -0.1982 -0.2031
  478loPI   C1B 7645   6.222   0.499   8.592  0.1301  0.0349  0.2792
  478loPI   C2B 7646   6.272   0.660   8.187  0.1061 -0.0152 -0.0677
  478loPI   C3B 7647   6.251   0.861   7.669  0.0341 -0.0664  0.0379
  478loPI   C4B 7648   6.072   1.106   7.366  0.4484  0.2490  0.3825
  479loPI    C1 7649  16.156   1.127   9.605 -0.3197 -0.1382  0.0640
  479loPI    C2 7650  16.289   0.993   9.957 -0.1673 -0.0436  0.0435
  479loPI    C3 7651  15.992   1.260   9.944 -0.2892 -0.1759  0.0935
  479loPI   PO4 7652  16.059   0.884   9.489 -0.0287  0.2061 -0.0362
  479loPI   GL1 7653  15.927   0.837   9.066 -0.0075  0.0125 -0.2795
  479loPI   GL2 7654  15.733   0.569   9.118 -0.3084 -0.0754 -0.0359
  479loPI   C1A 7655  15.745   0.975   8.713  0.1285  0.0560  0.0333
  479loPI   C2A 7656  15.757   1.100   8.257  0.1327 -0.0645  0.2788
  479loPI   C3A 7657  15.917   1.325   7.941  0.2527 -0.2790  0.0151
  479loPI   C4A 7658  15.850   1.504   7.497  0.1366 -0.2237 -0.1414
  479loPI   C5A 7659  15.945   1.640   7.162  0.0809 -0.2063  0.0603
  479loPI   C6A 7660  15.757   1.871   6.870  0.1162  0.2072  0.3388
  479loPI   C1B 7661  15.721   0.501   8.706  0.4487 -0.0421  0.2004
  479loPI   C2B 7662  15.717   0.636   8.260  0.0105  0.2899 -0.1528
  479loPI   C3B 7663  15.837   0.757   7.901  0.0061 -0.2244 -0.0390
  479loPI   C4B 7664  15.689   1.056   7.562 -0.2254 -0.2955 -0.1339
  480loPI    C1 7665  10.464  16.292   9.339  0.2824  0.1953  0.1291
  480loPI    C2 7666  10.373  16.451   9.695 -0.2180 -0.0505  0.1195
  480loPI    C3 7667  10.249  16.628   9.359  0.1793  0.1338  0.0645
  480loPI   PO4 7668  10.487  16.024   9.449  0.0414  0.3239  0.4242
  480loPI   GL1 7669  10.629  15.734   9.283 -0.2369 -0.1942 -0.1870
  480loPI   GL2 7670  10.916  15.959   9.166 -0.2290 -0.1808  0.2178
  480loPI   C1A 7671  10.690  15.539   8.932 -0.1671 -0.1274  0.2754
  480loPI   C2A 7672  10.936  15.695   8.646 -0.2602  0.1825  0.0335
  480loPI   C3A 7673  11.087  15.510   8.320  0.1571 -0.2443  0.0464
  480loPI   C4A 7674  11.242  15.161   8.034  0.0708  0.0415  0.3909
  480loPI   C5A 7675  11.420  14.855   8.030 -0.0600  0.2825 -0.0114
  480loPI   C6A 7676  11.445  14.397   7.854 -0.0846 -0.0553 -0.0391
  480loPI   C1B 7677  10.771  16.186   8.791  0.0846  0.1062 -0.2310
  480loPI   C2B 7678  10.760  16.031   8.334  0.1369 -0.0707  0.0853
  480loPI   C3B 7679  10.867  15.843   7.987  0.1116 -0.1687 -0.0620
  480loPI   C4B 7680  10.998  15.876   7.634 -0.3245 -0.0635 -0.0029
  481loPI    C1 7681  15.945   2.684   9.748 -0.3985  0.1453  0.0376
  481loPI    C2 7682  16.045   2.349   9.942 -0.0605  0.0829 -0.2352
  481loPI    C3 7683  15.757   2.585  10.087 -0.2361 -0.2737  0.0113
  481loPI   PO4 7684  15.903   2.527   9.448 -0.0583  0.1502 -0.0781
  481loPI   GL1 7685  15.712   2.199   9.099  0.0095  0.2408 -0.0425
  481loPI   GL2 7686  15.915   2.014   9.024  0.2343 -0.0836  0.1300
  481loPI   C1A 7687  15.508   2.261   8.657 -0.0188  0.0911  0.1207
  481loPI   C2A 7688  15.393   2.478   8.245  0.2835  0.1856 -0.1384
  481loPI   C3A 7689  15.431   2.480   7.868  0.0035 -0.2427  0.0157
  481loPI   C4A 7690  15.338   2.299   7.484  0.0654 -0.2142  0.1136
  481loPI   C5A 7691  15.224   2.206   7.096  0.2908  0.1161 -0.2767
  481loPI   C6A 7692  15.176   2.388   6.696  0.2667 -0.4185  0.0596
  481loPI   C1B 7693  16.085   2.015   8.588 -0.4861  0.0918  0.0866
  481loPI   C2B 7694  16.266   1.876   8.297 -0.0672  0.0379 -0.1953
  481loPI   C3B 7695  16.182   1.838   7.924 -0.5553  0.0611 -0.0790
  481loPI   C4B 7696  16.207   1.898   7.511 -0.2066  0.0601  0.0283
  482loPI    C1 7697   1.011   1.821  10.167 -0.0084 -0.1822  0.2478
  482loPI    C2 7698   0.730   2.097  10.101  0.1113 -0.1134  0.0144
  482loPI    C3 7699   1.116   2.202  10.103  0.1466 -0.2425  0.1364
  482loPI   PO4 7700   0.902   1.634   9.959  0.2077 -0.1838  0.1251
  482loPI   GL1 7701   0.985   1.489   9.536  0.1727  0.0513 -0.0777
  482loPI   GL2 7702   0.846   1.151   9.460 -0.3144 -0.1623  0.1540
  482loPI   C1A 7703   0.953   1.671   9.101  0.1215 -0.0607 -0.1450
  482loPI   C2A 7704   1.023   1.963   8.775  0.2217  0.0223 -0.0031
  482loPI   C3A 7705   1.075   1.867   8.308  0.1430  0.0955  0.1588
  482loPI   C4A 7706   1.314   1.684   8.001  0.0354 -0.0610  0.0986
  482loPI   C5A 7707   1.230   1.590   7.556 -0.0522  0.0301 -0.0943
  482loPI   C6A 7708   1.131   1.249   7.513  0.1375 -0.2953  0.3284
  482loPI   C1B 7709   1.244   1.180   9.191 -0.0239 -0.2626 -0.1774
  482loPI   C2B 7710   1.443   1.212   8.923 -0.2470  0.2495  0.1360
  482loPI   C3B 7711   1.464   1.453   8.498 -0.1660 -0.1147 -0.0771
  482loPI   C4B 7712   1.761   1.532   8.165 -0.1170 -0.0164  0.1022
  483loPI    C1 7713   0.026   0.941   9.998  0.1375 -0.0574  0.2061
  483loPI    C2 7714   0.256   1.092  10.288  0.2083  0.1048  0.0669
  483loPI    C3 7715   0.176   0.701  10.281  0.2483  0.0916  0.2754
  483loPI   PO4 7716   0.086   1.115   9.844 -0.0982  0.2151 -0.0020
  483loPI   GL1 7717   0.311   1.186   9.497  0.1048 -0.0889  0.1048
  483loPI   GL2 7718   0.428   0.898   9.231  0.0055  0.0708 -0.1020
  483loPI   C1A 7719   0.109   1.319   9.100 -0.0559  0.0854  0.2785
  483loPI   C2A 7720  -0.091   1.378   8.638  0.0469  0.2418 -0.0120
  483loPI   C3A 7721  -0.069   1.426   8.211  0.0793 -0.3117 -0.1283
  483loPI   C4A 7722   0.206   1.310   7.898 -0.6157  0.0653  0.1712
  483loPI   C5A 7723   0.551   1.123   7.815 -0.0647 -0.0842 -0.1808
  483loPI   C6A 7724   0.956   0.878   7.800  0.2320  0.3680  0.3868
  483loPI   C1B 7725   0.722   1.211   9.007 -0.0222 -0.1020  0.0358
  483loPI   C2B 7726   0.863   1.470   8.611 -0.0236  0.3281 -0.1211
  483loPI   C3B 7727   0.883   1.401   8.108 -0.3635 -0.0824 -0.2359
  483loPI   C4B 7728   0.753   1.593   7.802 -0.3126  0.0106  0.0424
  484loPI    C1 7729   8.599   0.931   9.645  0.0677  0.2002 -0.1121
  484loPI    C2 7730   8.834   0.664   9.462  0.0826  0.0922  0.0617
  484loPI    C3 7731   8.933   0.802   9.824 -0.0335  0.1760  0.0621
  484loPI   PO4 7732   8.394   0.832   9.646  0.1162  0.0842  0.0994
  484loPI   GL1 7733   7.963   0.885   9.318 -0.2111 -0.0595  0.0070
  484loPI   GL2 7734   7.742   0.762   9.296  0.1693  0.0440 -0.3170
  484loPI   C1A 7735   8.063   0.874   8.755 -0.2145  0.0193 -0.3145
  484loPI   C2A 7736   7.907   0.803   8.395  0.1906  0.1530  0.1966
  484loPI   C3A 7737   7.688   0.843   8.055  0.0270 -0.1863 -0.3816
  484loPI   C4A 7738   7.631   0.608   7.665  0.0344 -0.1001 -0.3249
  484loPI   C5A 7739   7.791   0.236   7.446 -0.0160  0.0731 -0.1485
  484loPI   C6A 7740   7.504  -0.122   7.440 -0.0208  0.0599  0.2139
  484loPI   C1B 7741   7.605   0.741   8.931 -0.1138  0.1479 -0.0209
  484loPI   C2B 7742   7.454   0.640   8.697  0.2130 -0.0049 -0.1365
  484loPI   C3B 7743   7.329   0.838   8.406 -0.0276 -0.0546  0.0060
  484loPI   C4B 7744   7.151   0.785   8.033  0.0429  0.0065 -0.1673
  485loPI    C1 7745  13.596   4.541   9.925  0.0622  0.0031  0.3664
  485loPI    C2 7746  13.333   4.361  10.166 -0.0271  0.0281  0.2881
  485loPI    C3 7747  13.676   4.178  10.073 -0.1856 -0.1723  0.0831
  485loPI   PO4 7748  13.462   4.677   9.716  0.0489  0.3280 -0.1214
  485loPI   GL1 7749  13.509   4.712   9.325  0.1114 -0.4346  0.1475
  485loPI   GL2 7750  13.753   4.683   9.248 -0.4045  0.0202  0.0070
  485loPI   C1A 7751  13.620   4.907   8.869 -0.0839  0.3851  0.1814
  485loPI   C2A 7752  13.558   5.057   8.408  0.2082  0.0853 -0.1853
  485loPI   C3A 7753  13.679   4.919   7.974  0.0111  0.0782 -0.0026
  485loPI   C4A 7754  13.518   4.871   7.650  0.1171 -0.2202 -0.2002
  485loPI   C5A 7755  13.218   4.773   7.246  0.0869  0.3046  0.0904
  485loPI   C6A 7756  13.358   4.933   6.834 -0.3022  0.1899  0.0342
  485loPI   C1B 7757  13.596   4.353   8.928  0.0137  0.1138 -0.2030
  485loPI   C2B 7758  13.481   4.080   8.644 -0.2520 -0.0452 -0.3875
  485loPI   C3B 7759  13.535   3.994   8.237 -0.0835 -0.0397 -0.2991
  485loPI   C4B 7760  13.359   3.683   7.905 -0.1272 -0.0154 -0.0188
  486loPI    C1 7761   8.334   8.048   9.437 -0.0487  0.3100 -0.1585
  486loPI    C2 7762   8.121   7.818   9.189  0.2178 -0.1128 -0.0073
  486loPI    C3 7763   7.939   8.013   9.488 -0.0340  0.0085 -0.2348
  486loPI   PO4 7764   8.475   8.183   9.288 -0.0309  0.0965  0.3900
  486loPI   GL1 7765   8.308   8.227   8.941 -0.0839  0.4774 -0.1482
  486loPI   GL2 7766   8.364   7.911   8.755 -0.0617  0.0194  0.0117
  486loPI   C1A 7767   8.300   8.341   8.541 -0.2988  0.1411 -0.1746
  486loPI   C2A 7768   8.227   8.415   8.143 -0.2165 -0.2495 -0.0122
  486loPI   C3A 7769   8.444   8.696   7.815  0.1659  0.1519  0.0360
  486loPI   C4A 7770   8.537   8.913   7.406  0.0219 -0.1967 -0.2596
  486loPI   C5A 7771   8.706   8.587   7.107 -0.0741 -0.2526  0.0453
  486loPI   C6A 7772   8.854   8.324   6.646 -0.1005  0.1092 -0.0255
  486loPI   C1B 7773   8.199   7.859   8.358  0.0371 -0.1906 -0.0228
  486loPI   C2B 7774   7.940   7.904   7.995  0.2640  0.0593 -0.1701
  486loPI   C3B 7775   7.992   8.011   7.584  0.1729  0.1005 -0.0111
  486loPI   C4B 7776   8.222   8.419   7.317 -0.1383  0.0041 -0.0316
  487loPI    C1 7777  17.081   0.055   9.960 -0.4205 -0.2103  0.1344
  487loPI    C2 7778  17.168  -0.332  10.006  0.2347 -0.0685  0.1861
  487loPI    C3 7779  17.111  -0.100  10.327 -0.3690 -0.1561  0.1534
  487loPI   PO4 7780  17.224   0.148   9.765 -0.2320  0.3310  0.2618
  487loPI   GL1 7781  17.188   0.301   9.354 -0.0390 -0.0387  0.0213
  487loPI   GL2 7782  16.875   0.444   9.291 -0.0620 -0.1891 -0.0974
  487loPI   C1A 7783  17.136   0.299   8.919  0.3227  0.2975 -0.3061
  487loPI   C2A 7784  17.150   0.354   8.505 -0.2043 -0.1185  0.0886
  487loPI   C3A 7785  17.048   0.270   8.029  0.1564 -0.0964 -0.2802
  487loPI   C4A 7786  17.233   0.041   7.709 -0.0066  0.2671  0.0873
  487loPI   C5A 7787  17.220  -0.295   7.440 -0.1435  0.1286 -0.1483
  487loPI   C6A 7788  17.281  -0.661   7.330  0.2960 -0.0578 -0.0377
  487loPI   C1B 7789  16.847   0.778   8.955 -0.0224 -0.0148 -0.2420
  487loPI   C2B 7790  16.941   1.150   8.722  0.0876  0.3493 -0.4318
  487loPI   C3B 7791  16.997   1.324   8.294  0.1076 -0.2569  0.0520
  487loPI   C4B 7792  17.008   1.417   7.839  0.2370  0.1332 -0.0119
  488loPI    C1 7793   8.159   5.115   9.256  0.1239  0.2037  0.1821
  488loPI    C2 7794   7.940   5.443   9.191 -0.2015 -0.0308  0.0677
  488loPI    C3 7795   7.892   5.233   9.528  0.1672  0.1585  0.2447
  488loPI   PO4 7796   8.386   5.226   9.121 -0.2894  0.0945 -0.0661
  488loPI   GL1 7797   8.451   5.190   8.746 -0.1140  0.2596  0.1951
  488loPI   GL2 7798   8.212   5.513   8.744 -0.3272 -0.2874 -0.1760
  488loPI   C1A 7799   8.572   5.363   8.417  0.1023  0.0246 -0.3952
  488loPI   C2A 7800   8.541   5.670   8.075  0.1418 -0.3932 -0.2793
  488loPI   C3A 7801   8.707   5.623   7.669 -0.0132  0.0798 -0.2565
  488loPI   C4A 7802   8.610   5.401   7.250 -0.1205 -0.1123  0.0582
  488loPI   C5A 7803   8.665   5.308   6.778  0.3314  0.0941  0.2408
  488loPI   C6A 7804   8.473   5.101   6.371  0.2970  0.0726 -0.1383
  488loPI   C1B 7805   8.089   5.697   8.346 -0.0134  0.2601 -0.2198
  488loPI   C2B 7806   8.075   5.831   7.881 -0.0229 -0.0842  0.1487
  488loPI   C3B 7807   8.243   5.787   7.424  0.0781 -0.0804  0.0192
  488loPI   C4B 7808   8.249   5.932   6.945 -0.2246  0.0097 -0.0461
  489loPI    C1 7809  15.485   1.876   9.456 -0.1663 -0.1496 -0.0559
  489loPI    C2 7810  15.741   1.641   9.653 -0.1232  0.0001  0.0686
  489loPI    C3 7811  15.699   2.024   9.759 -0.2934  0.0139 -0.0444
  489loPI   PO4 7812  15.491   1.754   9.252  0.5765  0.3024 -0.1259
  489loPI   GL1 7813  15.464   1.796   8.844 -0.0499 -0.0229 -0.0133
  489loPI   GL2 7814  15.167   1.580   8.864  0.3293  0.1124  0.3296
  489loPI   C1A 7815  15.480   1.421   8.502 -0.1121  0.0067  0.4237
  489loPI   C2A 7816  15.323   1.397   8.054  0.0770 -0.0696  0.3858
  489loPI   C3A 7817  15.308   1.494   7.683  0.2092 -0.3265  0.0272
  489loPI   C4A 7818  15.427   1.726   7.361  0.0101  0.0235 -0.2719
  489loPI   C5A 7819  15.736   2.108   7.316  0.1172  0.3146  0.3977
  489loPI   C6A 7820  15.919   2.446   7.612  0.1621  0.1567 -0.0448
  489loPI   C1B 7821  15.083   1.632   8.481 -0.2140 -0.0385 -0.0599
  489loPI   C2B 7822  14.762   1.864   8.264  0.2443 -0.0224  0.3099
  489loPI   C3B 7823  14.515   1.935   7.877  0.1785  0.4077 -0.2701
  489loPI   C4B 7824  14.435   2.293   7.653 -0.2464  0.1028  0.0119
  490loPI    C1 7825   6.256   1.175  10.021 -0.0027 -0.2368  0.2760
  490loPI    C2 7826   6.559   1.148   9.760 -0.1042  0.1758  0.1079
  490loPI    C3 7827   6.632   1.142  10.154  0.0972  0.0319  0.0696
  490loPI   PO4 7828   5.925   1.254   9.883  0.1863  0.2534 -0.0261
  490loPI   GL1 7829   5.672   1.328   9.521 -0.2133 -0.2529 -0.3764
  490loPI   GL2 7830   5.479   1.570   9.579 -0.0826 -0.2030 -0.3027
  490loPI   C1A 7831   5.595   1.209   9.095 -0.0316 -0.0056  0.0024
  490loPI   C2A 7832   5.241   1.341   8.719  0.0798  0.0014 -0.5517
  490loPI   C3A 7833   5.174   1.294   8.293 -0.1557  0.1203 -0.1466
  490loPI   C4A 7834   5.176   1.251   7.836  0.0342 -0.2520  0.0989
  490loPI   C5A 7835   5.183   1.360   7.449  0.2868  0.0101  0.3328
  490loPI   C6A 7836   5.034   1.426   7.004  0.1082 -0.0288  0.2899
  490loPI   C1B 7837   5.134   1.592   9.195  0.0668  0.0649  0.0936
  490loPI   C2B 7838   4.809   1.547   8.900  0.0895 -0.1434 -0.2179
  490loPI   C3B 7839   4.727   1.245   8.514 -0.0603  0.0741  0.1106
  490loPI   C4B 7840   4.747   1.267   8.051 -0.2111  0.0440  0.0749
  491loPI    C1 7841   6.583   4.849   9.485 -0.1625  0.0981  0.1639
  491loPI    C2 7842   6.279   5.048   9.651  0.0311  0.3955  0.1705
  491loPI    C3 7843   6.642   5.216   9.634  0.1646  0.1005  0.0389
  491loPI   PO4 7844   6.439   4.752   9.209 -0.0415  0.2682 -0.0685
  491loPI   GL1 7845   6.296   4.805   8.871  0.0125  0.0183 -0.1394
  491loPI   GL2 7846   6.063   4.527   8.874  0.0258 -0.1157  0.0476
  491loPI   C1A 7847   6.309   4.793   8.447 -0.1599  0.1526  0.1254
  491loPI   C2A 7848   6.154   4.856   8.047  0.0931 -0.5801 -0.1865
  491loPI   C3A 7849   6.344   4.815   7.670 -0.3200 -0.0563  0.1320
  491loPI   C4A 7850   6.438   4.738   7.237  0.4102 -0.1669  0.0921
  491loPI   C5A 7851   6.667   4.863   6.935  0.2225  0.3559 -0.2965
  491loPI   C6A 7852   7.054   4.888   6.737 -0.1784 -0.2218  0.0576
  491loPI   C1B 7853   6.012   4.383   8.527  0.0374  0.2962  0.0791
  491loPI   C2B 7854   5.950   4.382   7.978 -0.1842 -0.1653 -0.1085
  491loPI   C3B 7855   6.030   4.406   7.505  0.0038  0.1331 -0.0764
  491loPI   C4B 7856   6.079   4.322   7.036  0.2079  0.0109  0.3015
  492loPI    C1 7857   9.326   2.082   9.295 -0.0311  0.2599  0.1095
  492loPI    C2 7858   9.391   1.737   9.486 -0.0093  0.1006 -0.1793
  492loPI    C3 7859   9.338   2.074   9.695 -0.0872 -0.0850  0.1073
  492loPI   PO4 7860   9.195   2.010   9.028  0.2354  0.1519  0.0507
  492loPI   GL1 7861   9.236   1.698   8.774  0.2760 -0.1948  0.3629
  492loPI   GL2 7862   9.497   1.529   8.532 -0.2903  0.1389 -0.3064
  492loPI   C1A 7863   9.107   1.739   8.345  0.1644 -0.1364 -0.0819
  492loPI   C2A 7864   9.155   1.685   8.004 -0.1286  0.1049  0.2402
  492loPI   C3A 7865   9.356   1.727   7.617 -0.1326 -0.0697  0.2213
  492loPI   C4A 7866   9.454   1.872   7.267  0.1037 -0.0250  0.3188
  492loPI   C5A 7867   9.744   1.813   7.003  0.1923 -0.1763  0.0836
  492loPI   C6A 7868   9.911   1.349   6.806  0.2141  0.4457 -0.0373
  492loPI   C1B 7869   9.592   1.462   8.131  0.1313 -0.2455  0.0930
  492loPI   C2B 7870   9.803   1.745   7.843 -0.0444 -0.2495 -0.1762
  492loPI   C3B 7871  10.141   1.967   7.598  0.1518  0.1847  0.3244
  492loPI   C4B 7872  10.241   2.040   7.151  0.1028 -0.1252 -0.0635
  493loPI    C1 7873  11.914  16.896   9.573  0.0836  0.0044 -0.2629
  493loPI    C2 7874  11.602  17.080   9.745  0.2520  0.1510 -0.1102
  493loPI    C3 7875  11.874  16.892   9.971  0.1422 -0.1942 -0.2579
  493loPI   PO4 7876  11.888  16.788   9.335 -0.1682 -0.1790 -0.0711
  493loPI   GL1 7877  12.003  16.722   8.919  0.0636 -0.1529 -0.0901
  493loPI   GL2 7878  11.902  16.438   8.965 -0.2167  0.1501  0.1815
  493loPI   C1A 7879  12.285  16.926   8.515 -0.0551 -0.1626  0.1057
  493loPI   C2A 7880  12.597  17.217   8.292  0.0958  0.0379 -0.3471
  493loPI   C3A 7881  12.747  17.447   8.029  0.2197 -0.1614 -0.1184
  493loPI   C4A 7882  12.644  17.841   7.875 -0.1023 -0.1201  0.1113
  493loPI   C5A 7883  12.559  18.262   7.902 -0.1692 -0.2343 -0.0447
  493loPI   C6A 7884  12.242  18.500   8.025  0.0344  0.1919  0.1999
  493loPI   C1B 7885  11.989  16.352   8.496  0.1756 -0.1245  0.1602
  493loPI   C2B 7886  12.030  16.525   8.154 -0.1268 -0.0980  0.1691
  493loPI   C3B 7887  12.364  16.599   7.774  0.0781 -0.1155  0.0035
  493loPI   C4B 7888  12.426  16.378   7.426 -0.1171 -0.1911  0.2795
  494loPI    C1 7889  13.639  19.041   9.823  0.0086  0.2753 -0.1475
  494loPI    C2 7890  13.268  19.166   9.907 -0.2222 -0.3230 -0.2247
  494loPI    C3 7891  13.524  19.086  10.203 -0.2446 -0.1723 -0.1637
  494loPI   PO4 7892  13.760  19.253   9.621 -0.0590 -0.3055  0.2985
  494loPI   GL1 7893  13.773  19.251   9.277  0.0882 -0.2455  0.0633
  494loPI   GL2 7894  14.006  19.395   9.182  0.1648  0.2265  0.2356
  494loPI   C1A 7895  13.689  18.990   8.950  0.1693 -0.4225 -0.2015
  494loPI   C2A 7896  13.992  18.637   8.694 -0.0551 -0.1655  0.1792
  494loPI   C3A 7897  13.941  18.418   8.329 -0.0999  0.1087  0.1255
  494loPI   C4A 7898  13.914  18.504   7.836 -0.1000 -0.0041 -0.1915
  494loPI   C5A 7899  13.939  18.759   7.526  0.1187  0.2044 -0.0273
  494loPI   C6A 7900  13.628  18.491   7.217 -0.0682 -0.0717 -0.0580
  494loPI   C1B 7901  14.039  19.287   8.788 -0.0426 -0.1739 -0.3971
  494loPI   C2B 7902  14.191  19.119   8.383  0.3258 -0.0395  0.1304
  494loPI   C3B 7903  14.027  19.046   7.959  0.2564  0.0583 -0.0044
  494loPI   C4B 7904  13.901  19.343   7.666 -0.1454 -0.3949  0.1191
  495loPI    C1 7905   2.480  14.765  10.141  0.1370  0.1801 -0.2399
  495loPI    C2 7906   2.496  15.136   9.993  0.1253  0.3237  0.1081
  495loPI    C3 7907   2.472  15.080  10.388  0.0608 -0.0485  0.0548
  495loPI   PO4 7908   2.217  14.692   9.978  0.3562  0.1987  0.3513
  495loPI   GL1 7909   2.042  14.698   9.599 -0.0470 -0.2127 -0.0140
  495loPI   GL2 7910   2.324  14.877   9.499 -0.2317 -0.0089  0.0065
  495loPI   C1A 7911   1.846  14.559   9.213 -0.0360 -0.0042 -0.0126
  495loPI   C2A 7912   1.649  14.386   8.947 -0.2001 -0.2645  0.0492
  495loPI   C3A 7913   1.525  14.386   8.610 -0.3206  0.0924 -0.1775
  495loPI   C4A 7914   1.653  14.630   8.164 -0.1989  0.0711 -0.4407
  495loPI   C5A 7915   1.867  14.746   7.710 -0.3202  0.1512 -0.2222
  495loPI   C6A 7916   1.822  14.577   7.365  0.1787  0.0606 -0.1028
  495loPI   C1B 7917   2.588  15.061   9.050  0.1146  0.1998 -0.0839
  495loPI   C2B 7918   2.587  15.052   8.572 -0.0567  0.0878  0.0067
  495loPI   C3B 7919   2.785  15.278   8.231 -0.2467  0.0838  0.3466
  495loPI   C4B 7920   2.709  15.258   7.852 -0.1095  0.0334  0.0026
  496loPI    C1 7921   8.532   6.395   9.674 -0.2047 -0.0775 -0.0306
  496loPI    C2 7922   8.704   6.090   9.868  0.2060  0.0335 -0.2102
  496loPI    C3 7923   8.612   6.426  10.065 -0.1312 -0.1540 -0.0393
  496loPI   PO4 7924   8.513   6.262   9.427 -0.0402 -0.1306 -0.0482
  496loPI   GL1 7925   8.679   6.244   9.062 -0.0825  0.1125 -0.0349
  496loPI   GL2 7926   8.892   6.533   9.204  0.1109  0.1802 -0.0878
  496loPI   C1A 7927   8.631   6.362   8.576  0.1735  0.0669 -0.0761
  496loPI   C2A 7928   8.343   6.604   8.356 -0.1026  0.1871 -0.2073
  496loPI   C3A 7929   8.277   6.938   8.082 -0.1601  0.3674 -0.0233
  496loPI   C4A 7930   8.357   7.123   7.784 -0.0459  0.0524  0.0145
  496loPI   C5A 7931   8.235   7.157   7.381  0.0740 -0.1994  0.2722
  496loPI   C6A 7932   7.964   7.046   7.145  0.0567  0.1508 -0.3047
  496loPI   C1B 7933   8.926   6.700   8.886 -0.0551 -0.0623 -0.5587
  496loPI   C2B 7934   9.120   6.761   8.520 -0.2276  0.0575 -0.0259
  496loPI   C3B 7935   9.126   6.818   8.138  0.0221  0.0817  0.1354
  496loPI   C4B 7936   8.925   7.052   7.826 -0.1782  0.0090 -0.0491
  497loPI    C1 7937  16.905  16.030  10.168  0.0658 -0.3332  0.1109
  497loPI    C2 7938  16.707  16.072  10.513  0.1493  0.0388  0.1174
  497loPI    C3 7939  17.036  15.846  10.498  0.0006 -0.1877  0.2191
  497loPI   PO4 7940  16.698  16.004   9.965 -0.0289  0.0359 -0.2638
  497loPI   GL1 7941  16.770  15.901   9.575 -0.1234  0.0069 -0.2785
  497loPI   GL2 7942  17.001  15.765   9.551  0.0548 -0.0079  0.1923
  497loPI   C1A 7943  16.476  15.790   9.196  0.1253  0.0535  0.1280
  497loPI   C2A 7944  16.429  15.752   8.728  0.0773 -0.0680  0.2468
  497loPI   C3A 7945  16.147  16.032   8.569 -0.0362 -0.4209  0.0451
  497loPI   C4A 7946  15.938  16.169   8.251  0.1168 -0.0032  0.1404
  497loPI   C5A 7947  15.495  16.409   8.100  0.1717 -0.1800  0.0212
  497loPI   C6A 7948  15.195  16.414   7.794 -0.0784  0.2341  0.0704
  497loPI   C1B 7949  17.052  15.757   9.133  0.0421 -0.2014 -0.1679
  497loPI   C2B 7950  16.964  15.784   8.640 -0.0799 -0.2151  0.4265
  497loPI   C3B 7951  16.892  15.726   8.281  0.1771 -0.4087 -0.1284
  497loPI   C4B 7952  17.127  15.939   8.088 -0.3591 -0.1752 -0.0183
  498loPI    C1 7953  10.428   1.031   9.830  0.1071 -0.0882  0.2072
  498loPI    C2 7954  10.226   1.278   9.589  0.0802 -0.4743 -0.1787
  498loPI    C3 7955  10.055   1.139   9.922  0.0193 -0.1460 -0.0697
  498loPI   PO4 7956  10.604   0.862   9.572  0.1088  0.2735 -0.1978
  498loPI   GL1 7957  10.850   0.808   9.135  0.3978 -0.2661  0.2295
  498loPI   GL2 7958  10.493   0.795   9.089 -0.2425  0.1147  0.0573
  498loPI   C1A 7959  10.832   0.681   8.650  0.2304  0.4100  0.0830
  498loPI   C2A 7960  10.731   0.495   8.254 -0.1899  0.0827  0.1604
  498loPI   C3A 7961  10.780   0.212   8.054  0.1936  0.0187  0.1538
  498loPI   C4A 7962  11.034   0.193   7.734 -0.0531 -0.0024 -0.1453
  498loPI   C5A 7963  11.350   0.456   7.495  0.2378 -0.0652  0.0163
  498loPI   C6A 7964  11.491   0.188   7.140  0.1651 -0.2999  0.3247
  498loPI   C1B 7965  10.333   0.695   8.642  0.2186  0.4787  0.1999
  498loPI   C2B 7966  10.331   0.914   8.219  0.0484  0.2550 -0.3984
  498loPI   C3B 7967  10.327   0.775   7.888 -0.0464 -0.0397  0.2009
  498loPI   C4B 7968  10.460   0.343   7.573  0.2244  0.2045 -0.0973
  499loPI    C1 7969   8.201  19.234   9.924 -0.2405 -0.2132 -0.0192
  499loPI    C2 7970   8.430  18.914   9.997  0.2117  0.0731 -0.1407
  499loPI    C3 7971   8.543  19.275  10.127 -0.0542  0.2582 -0.4076
  499loPI   PO4 7972   8.171  19.175   9.652  0.4664 -0.3164  0.0866
  499loPI   GL1 7973   8.311  19.057   9.240 -0.2290  0.0609  0.1349
  499loPI   GL2 7974   8.661  19.018   9.153  0.1017  0.0884  0.1473
  499loPI   C1A 7975   8.109  19.110   8.915  0.1040 -0.2243 -0.0927
  499loPI   C2A 7976   8.143  19.073   8.481  0.0813 -0.1514  0.2361
  499loPI   C3A 7977   8.439  19.135   8.135 -0.0609  0.1362  0.1520
  499loPI   C4A 7978   8.688  19.130   7.767  0.1264  0.1881 -0.0573
  499loPI   C5A 7979   8.704  19.252   7.330 -0.1072  0.0152  0.1072
  499loPI   C6A 7980   8.289  19.450   7.238 -0.0198  0.0469 -0.4057
  499loPI   C1B 7981   8.590  19.061   8.786 -0.2535  0.1545 -0.1956
  499loPI   C2B 7982   8.868  19.056   8.585 -0.1177 -0.1072 -0.0527
  499loPI   C3B 7983   9.064  19.010   8.125  0.2912 -0.0519 -0.2099
  499loPI   C4B 7984   9.161  19.341   7.730  0.1603  0.1994  0.0561
  500loPI    C1 7985  14.282  10.157  10.176  0.1093 -0.0403  0.0683
  500loPI    C2 7986  14.266  10.314  10.544 -0.0274 -0.0219  0.0551
  500loPI    C3 7987  14.083   9.967  10.466 -0.3422  0.1728 -0.0916
  500loPI   PO4 7988  14.545  10.309  10.049  0.0017  0.0022  0.0046
  500loPI   GL1 7989  14.866  10.249   9.627 -0.0622  0.1111  0.2376
  500loPI   GL2 7990  14.567  10.283   9.530  0.1712  0.1037 -0.4267
  500loPI   C1A 7991  15.135  10.283   9.301 -0.3539  0.0878  0.3724
  500loPI   C2A 7992  15.153  10.167   8.898  0.0084 -0.1052 -0.1232
  500loPI   C3A 7993  15.147  10.292   8.436 -0.1759 -0.0982 -0.0550
  500loPI   C4A 7994  15.307  10.378   8.035  0.0059  0.0975  0.0729
  500loPI   C5A 7995  15.267  10.232   7.687 -0.4621  0.1910 -0.2402
  500loPI   C6A 7996  15.034  10.653   7.512 -0.6061 -0.3332  0.1373
  500loPI   C1B 7997  14.561  10.383   9.034 -0.1308  0.2230 -0.1444
  500loPI   C2B 7998  14.754  10.448   8.702 -0.0334 -0.1872 -0.2396
  500loPI   C3B 7999  14.639  10.478   8.239  0.2273  0.0107  0.1879
  500loPI   C4B 8000  14.811  10.390   7.857 -0.0622  0.0480 -0.3683
  501loPI    C1 8001   6.990  11.030  10.000  0.0360 -0.0354 -0.3509
  501loPI    C2 8002   7.328  10.841  10.098 -0.0130 -0.0426 -0.1935
  501loPI    C3 8003   6.976  10.658  10.145 -0.0375 -0.0476 -0.3888
  501loPI   PO4 8004   6.974  11.016   9.742  0.1335  0.3469 -0.2378
  501loPI   GL1 8005   7.016  10.716   9.303 -0.1158  0.1937 -0.0422
  501loPI   GL2 8006   6.675  10.823   9.297 -0.1750  0.3366 -0.1286
  501loPI   C1A 8007   6.955  10.520   8.906  0.1388 -0.2837  0.0902
  501loPI   C2A 8008   6.918  10.502   8.584 -0.0220 -0.3347  0.1896
  501loPI   C3A 8009   6.921  10.424   8.122  0.0654 -0.0117 -0.0821
  501loPI   C4A 8010   6.957  10.444   7.789 -0.1790  0.1605 -0.0973
  501loPI   C5A 8011   6.995  10.318   7.362  0.1678  0.1289  0.1023
  501loPI   C6A 8012   7.043  10.167   6.975  0.2995  0.0406  0.1890
  501loPI   C1B 8013   6.622  10.855   8.824  0.1460 -0.2221  0.2988
  501loPI   C2B 8014   6.627  10.840   8.344 -0.2991 -0.0912  0.1104
  501loPI   C3B 8015   6.664  10.896   7.870  0.1700  0.4214  0.3162
  501loPI   C4B 8016   6.601  10.778   7.481  0.0868 -0.5398 -0.0543
  502loPI    C1 8017   5.897   4.236   9.312  0.2069 -0.1873  0.0581
  502loPI    C2 8018   5.693   4.310   9.648  0.1256  0.2720 -0.0854
  502loPI    C3 8019   6.092   4.283   9.658  0.0929 -0.2479  0.1312
  502loPI   PO4 8020   5.784   3.981   9.239 -0.0386  0.0284 -0.4679
  502loPI   GL1 8021   5.603   3.736   8.979 -0.2041 -0.2333 -0.4008
  502loPI   GL2 8022   5.212   3.794   9.098  0.0694  0.0611  0.1980
  502loPI   C1A 8023   5.614   3.708   8.535 -0.1314 -0.1528  0.0304
  502loPI   C2A 8024   5.645   3.603   8.069  0.2321 -0.0029  0.0003
  502loPI   C3A 8025   5.552   3.544   7.708  0.2263 -0.1307 -0.1570
  502loPI   C4A 8026   5.664   3.419   7.259 -0.2846  0.1072 -0.0179
  502loPI   C5A 8027   5.906   3.065   7.060 -0.2880  0.1175  0.5476
  502loPI   C6A 8028   5.875   2.660   7.213  0.0604 -0.1346 -0.0369
  502loPI   C1B 8029   5.114   3.946   8.699 -0.0320 -0.0228 -0.2380
  502loPI   C2B 8030   5.003   4.075   8.313 -0.0407  0.1920  0.1882
  502loPI   C3B 8031   4.878   4.223   7.970 -0.0719  0.0183  0.1119
  502loPI   C4B 8032   4.939   4.372   7.586 -0.1184  0.0174 -0.2757
  503loPI    C1 8033  15.721   0.167   9.819 -0.2251  0.2833  0.1767
  503loPI    C2 8034  15.682   0.493   9.591  0.0499  0.2652  0.0998
  503loPI    C3 8035  15.448   0.444   9.912 -0.1996  0.3900 -0.0598
  503loPI   PO4 8036  15.646  -0.069   9.674 -0.0542  0.3019  0.0733
  503loPI   GL1 8037  15.703  -0.107   9.235 -0.0766  0.3097 -0.2280
  503loPI   GL2 8038  15.978   0.047   9.251  0.1219  0.0235  0.1359
  503loPI   C1A 8039  15.856  -0.480   9.074 -0.2533  0.1510 -0.1643
  503loPI   C2A 8040  16.093  -0.544   8.724  0.0006  0.0882  0.1974
  503loPI   C3A 8041  16.159  -0.680   8.327  0.1073 -0.0069  0.0371
  503loPI   C4A 8042  16.269  -0.482   7.970 -0.3760  0.1746  0.3370
  503loPI   C5A 8043  16.543  -0.443   7.685  0.0376 -0.1468  0.0140
  503loPI   C6A 8044  16.784  -0.522   7.328 -0.2024 -0.0405 -0.2559
  503loPI   C1B 8045  15.833  -0.013   8.775 -0.3361 -0.0324  0.0244
  503loPI   C2B 8046  15.585   0.064   8.407  0.0945 -0.2188  0.0610
  503loPI   C3B 8047  15.611   0.194   7.917 -0.0576  0.4144 -0.1218
  503loPI   C4B 8048  15.480   0.489   7.627 -0.0410  0.3419  0.2143
  504loPI    C1 8049  10.766  18.284   9.420 -0.3099 -0.0929  0.1001
  504loPI    C2 8050  11.053  18.431   9.657  0.0565 -0.1328 -0.3061
  504loPI    C3 8051  10.763  18.671   9.521 -0.0326 -0.0622  0.0003
  504loPI   PO4 8052  11.026  18.197   9.219 -0.4426  0.3743 -0.2762
  504loPI   GL1 8053  10.952  18.252   8.862  0.0151 -0.5031 -0.0259
  504loPI   GL2 8054  11.229  18.158   8.700  0.2396  0.1749 -0.1034
  504loPI   C1A 8055  10.718  18.327   8.501 -0.1339  0.0343  0.0525
  504loPI   C2A 8056  10.689  18.415   8.027  0.0369 -0.0692  0.1798
  504loPI   C3A 8057  10.401  18.593   7.706 -0.3138 -0.1522 -0.2733
  504loPI   C4A 8058  10.026  18.901   7.586 -0.2732 -0.4571  0.0778
  504loPI   C5A 8059   9.980  19.403   7.467  0.2517 -0.1049 -0.1945
  504loPI   C6A 8060  10.052  19.836   7.481  0.3410 -0.1309  0.3775
  504loPI   C1B 8061  11.192  18.035   8.267  0.1235  0.0173  0.0622
  504loPI   C2B 8062  11.281  17.961   7.840 -0.0299 -0.0438 -0.1550
  504loPI   C3B 8063  11.396  18.233   7.387  0.4906  0.0863 -0.1208
  504loPI   C4B 8064  11.391  18.249   6.942  0.3315 -0.0890  0.0662
  505loPI    C1 8065  10.592   1.546   9.879 -0.4722 -0.1741 -0.1593
  505loPI    C2 8066  10.559   1.798  10.188 -0.2264 -0.0161 -0.2590
  505loPI    C3 8067  10.405   1.430  10.213 -0.1847 -0.0152  0.0621
  505loPI   PO4 8068  10.588   1.698   9.697 -0.2505  0.0379 -0.3077
  505loPI   GL1 8069  10.788   1.802   9.253  0.0917  0.2209 -0.3328
  505loPI   GL2 8070  11.021   1.924   9.392  0.2985  0.0305  0.1395
  505loPI   C1A 8071  10.849   1.584   8.883  0.2339 -0.0757 -0.1517
  505loPI   C2A 8072  11.101   1.665   8.493 -0.1719  0.0471 -0.0164
  505loPI   C3A 8073  11.048   1.908   8.165  0.1538  0.3388  0.0898
  505loPI   C4A 8074  11.033   2.000   7.797 -0.1331  0.1505  0.1385
  505loPI   C5A 8075  11.053   2.014   7.349 -0.2987 -0.0148  0.0779
  505loPI   C6A 8076  11.244   1.940   7.039  0.2577 -0.1009  0.3412
  505loPI   C1B 8077  10.856   2.125   8.948 -0.0394  0.1150  0.0540
  505loPI   C2B 8078  10.884   2.620   8.731 -0.0334  0.0738  0.1171
  505loPI   C3B 8079  11.009   3.045   8.704 -0.3742  0.2320 -0.0691
  505loPI   C4B 8080  10.936   3.379   8.856  0.0224 -0.0444  0.1166
  506loPI    C1 8081  17.208  13.285  10.302 -0.0907  0.0088 -0.1655
  506loPI    C2 8082  17.411  13.267  10.646  0.2700  0.0496 -0.3715
  506loPI    C3 8083  17.130  13.547  10.594 -0.0878 -0.2188  0.0428
  506loPI   PO4 8084  17.429  13.295  10.143 -0.0022  0.0602 -0.1961
  506loPI   GL1 8085  17.465  13.362   9.614 -0.2180 -0.2726  0.1225
  506loPI   GL2 8086  17.219  13.433   9.441 -0.0818 -0.1032 -0.1254
  506loPI   C1A 8087  17.649  13.336   9.191 -0.4224  0.1291 -0.3129
  506loPI   C2A 8088  17.621  13.372   8.746 -0.1411  0.3476 -0.1947
  506loPI   C3A 8089  17.713  13.490   8.373 -0.1288  0.1386 -0.0478
  506loPI   C4A 8090  18.021  13.842   8.245 -0.2280 -0.1496 -0.0748
  506loPI   C5A 8091  18.355  13.914   7.942  0.0680  0.3018 -0.0629
  506loPI   C6A 8092  18.392  14.153   7.633 -0.2080 -0.1435  0.2918
  506loPI   C1B 8093  17.139  13.505   8.960 -0.1683 -0.0094  0.0942
  506loPI   C2B 8094  17.273  13.636   8.505 -0.0133  0.0754 -0.2256
  506loPI   C3B 8095  17.450  13.850   8.082 -0.1524  0.5390 -0.1137
  506loPI   C4B 8096  17.500  14.149   7.745  0.0913 -0.0230 -0.1922
  507loPI    C1 8097  11.705   4.948   9.542 -0.6513  0.1095 -0.0373
  507loPI    C2 8098  11.571   5.224   9.798 -0.1522  0.0989  0.2488
  507loPI    C3 8099  11.580   4.839   9.907 -0.1571  0.0638  0.1260
  507loPI   PO4 8100  11.557   4.988   9.276  0.0199  0.0280  0.0464
  507loPI   GL1 8101  11.220   5.159   9.003 -0.1311 -0.1263  0.1471
  507loPI   GL2 8102  11.003   5.422   9.032  0.0004  0.1738 -0.0679
  507loPI   C1A 8103  11.279   4.823   8.621 -0.0287 -0.2260 -0.1104
  507loPI   C2A 8104  11.234   4.685   8.298 -0.2614  0.2072 -0.2559
  507loPI   C3A 8105  11.258   4.934   7.948 -0.0489 -0.4280  0.1447
  507loPI   C4A 8106  11.451   5.187   7.619  0.0118  0.0309 -0.2853
  507loPI   C5A 8107  11.340   5.540   7.283 -0.4307 -0.0027  0.4206
  507loPI   C6A 8108  11.014   5.808   7.334 -0.0947 -0.0196  0.0349
  507loPI   C1B 8109  11.167   5.507   8.662 -0.1936 -0.1869  0.1002
  507loPI   C2B 8110  11.316   5.335   8.262  0.2048 -0.0405  0.2185
  507loPI   C3B 8111  11.362   5.539   7.940 -0.0496  0.1216 -0.1335
  507loPI   C4B 8112  10.959   5.777   7.922  0.1992  0.3376  0.0355
  508loPI    C1 8113   8.887   8.392   9.540  0.0255  0.0842 -0.0372
  508loPI    C2 8114   8.829   8.623   9.860 -0.3705  0.0597 -0.0860
  508loPI    C3 8115   8.672   8.256   9.849  0.1566 -0.1753 -0.0573
  508loPI   PO4 8116   8.957   8.533   9.323 -0.1275  0.4171 -0.4884
  508loPI   GL1 8117   8.771   8.444   8.993  0.0828  0.0760  0.3234
  508loPI   GL2 8118   8.516   8.743   8.912  0.0898  0.0875 -0.0108
  508loPI   C1A 8119   8.896   8.140   8.660 -0.1668 -0.2976 -0.2812
  508loPI   C2A 8120   8.755   7.719   8.475 -0.0558  0.4070  0.3059
  508loPI   C3A 8121   8.880   7.500   8.050  0.2944  0.1739  0.1418
  508loPI   C4A 8122   8.787   7.479   7.589 -0.3239 -0.2520 -0.3714
  508loPI   C5A 8123   8.671   7.135   7.205  0.2110 -0.1740 -0.0793
  508loPI   C6A 8124   8.434   6.760   7.054  0.0103  0.3001 -0.0035
  508loPI   C1B 8125   8.821   8.668   8.546 -0.1380  0.2915  0.1173
  508loPI   C2B 8126   8.810   8.512   8.159  0.0170 -0.1434 -0.1564
  508loPI   C3B 8127   8.930   8.466   7.693  0.0724  0.0872 -0.0777
  508loPI   C4B 8128   8.894   8.157   7.326  0.4000  0.1787 -0.0917
  509loPI    C1 8129  14.726  14.790   9.969  0.0058  0.0865  0.1961
  509loPI    C2 8130  15.018  14.881  10.227  0.2943 -0.0077 -0.0895
  509loPI    C3 8131  14.852  14.517  10.233  0.2710  0.0038 -0.0116
  509loPI   PO4 8132  14.536  14.977   9.949 -0.1652  0.0977 -0.1528
  509loPI   GL1 8133  14.517  15.409   9.802 -0.1569 -0.4776  0.0360
  509loPI   GL2 8134  14.178  15.354   9.692 -0.0622 -0.1231  0.0045
  509loPI   C1A 8135  14.561  15.304   9.391  0.0562 -0.1414  0.1736
  509loPI   C2A 8136  14.734  15.121   9.130  0.1930  0.0672 -0.1886
  509loPI   C3A 8137  14.785  14.733   8.851 -0.1182  0.2897  0.2717
  509loPI   C4A 8138  14.735  14.354   8.536  0.1864 -0.0234  0.5221
  509loPI   C5A 8139  14.945  14.179   8.111  0.0767  0.0925  0.2601
  509loPI   C6A 8140  14.936  14.138   7.634 -0.1269  0.2171  0.0343
  509loPI   C1B 8141  14.081  15.747   9.524  0.2801 -0.0435  0.1560
  509loPI   C2B 8142  14.206  16.123   9.257  0.0894 -0.0680  0.0850
  509loPI   C3B 8143  14.250  16.084   8.794 -0.2209  0.3510 -0.0114
  509loPI   C4B 8144  14.211  16.189   8.358 -0.4078  0.2301 -0.1460
  510loPI    C1 8145   6.327  13.573  10.428 -0.0839  0.0285  0.1259
  510loPI    C2 8146   6.638  13.770  10.583  0.1449 -0.2187 -0.0125
  510loPI    C3 8147   6.286  13.954  10.544  0.2720  0.0647  0.1436
  510loPI   PO4 8148   6.415  13.466  10.273 -0.1703  0.1130  0.1767
  510loPI   GL1 8149   6.448  13.430   9.858  0.2678 -0.0051  0.1660
  510loPI   GL2 8150   6.542  13.700   9.650 -0.1025 -0.0921 -0.1529
  510loPI   C1A 8151   6.239  13.337   9.434  0.3698 -0.0038  0.1333
  510loPI   C2A 8152   6.249  13.339   9.020  0.0284 -0.1478 -0.0808
  510loPI   C3A 8153   6.214  13.508   8.612 -0.1960  0.0453  0.0445
  510loPI   C4A 8154   6.172  13.477   8.174  0.1575 -0.2073  0.1656
  510loPI   C5A 8155   5.872  13.560   7.812  0.0921  0.3252 -0.0107
  510loPI   C6A 8156   5.519  13.731   7.725 -0.2984 -0.0941  0.0003
  510loPI   C1B 8157   6.562  13.694   9.206  0.1305 -0.0969  0.0913
  510loPI   C2B 8158   6.712  13.615   8.816 -0.0084 -0.0685  0.0838
  510loPI   C3B 8159   6.786  13.542   8.439  0.0238 -0.0932  0.2929
  510loPI   C4B 8160   6.743  13.528   7.980 -0.1001  0.3113 -0.2379
  511loPI    C1 8161  13.304  15.349  10.614  0.1237 -0.0730 -0.0136
  511loPI    C2 8162  13.515  15.367  10.953 -0.1051  0.1686  0.1198
  511loPI    C3 8163  13.445  15.013  10.780  0.1354  0.0573  0.2447
  511loPI   PO4 8164  13.455  15.554  10.338  0.1449  0.2637 -0.0093
  511loPI   GL1 8165  13.410  15.462   9.867 -0.1747  0.2141 -0.3236
  511loPI   GL2 8166  13.192  15.601   9.684 -0.0088 -0.0364 -0.0536
  511loPI   C1A 8167  13.724  15.460   9.458 -0.2601  0.0681 -0.4395
  511loPI   C2A 8168  13.840  15.314   9.058  0.4198 -0.0871  0.0151
  511loPI   C3A 8169  14.015  15.369   8.652 -0.0719  0.0858 -0.1041
  511loPI   C4A 8170  14.195  15.697   8.388 -0.1296 -0.0644 -0.0659
  511loPI   C5A 8171  14.110  15.888   8.000 -0.0014  0.2321 -0.0185
  511loPI   C6A 8172  13.893  15.775   7.638  0.0713 -0.1755 -0.0797
  511loPI   C1B 8173  13.425  15.963   9.538 -0.0210 -0.1621  0.0841
  511loPI   C2B 8174  13.715  15.937   9.202 -0.0176  0.3443 -0.1577
  511loPI   C3B 8175  13.798  15.896   8.839 -0.0056 -0.0762  0.1263
  511loPI   C4B 8176  13.780  15.975   8.427 -0.0409  0.0978  0.5455
  512loPI    C1 8177   7.643  17.685   9.433 -0.1284 -0.2915 -0.0063
  512loPI    C2 8178   7.457  17.633   9.783  0.0866 -0.0388  0.1492
  512loPI    C3 8179   7.245  17.725   9.456 -0.1008 -0.1422  0.2396
  512loPI   PO4 8180   7.785  17.450   9.441  0.0402  0.3406  0.2847
  512loPI   GL1 8181   7.709  17.192   9.231  0.1063  0.2420 -0.1335
  512loPI   GL2 8182   7.583  16.908   9.153  0.2255 -0.1415  0.2842
  512loPI   C1A 8183   7.847  17.144   8.755  0.2271 -0.1849  0.1848
  512loPI   C2A 8184   7.927  16.894   8.381 -0.0419  0.0637  0.0484
  512loPI   C3A 8185   8.147  16.921   7.979 -0.2911  0.1427 -0.1989
  512loPI   C4A 8186   7.915  16.764   7.682 -0.0652  0.1792  0.1649
  512loPI   C5A 8187   7.526  16.637   7.692 -0.1741 -0.1693  0.2030
  512loPI   C6A 8188   7.527  16.254   7.406 -0.1656  0.2078  0.0469
  512loPI   C1B 8189   7.524  16.781   8.743 -0.3108  0.0447  0.1243
  512loPI   C2B 8190   7.459  16.759   8.277 -0.1832 -0.0489  0.2447
  512loPI   C3B 8191   7.813  16.509   8.077 -0.1135  0.2298 -0.4241
  512loPI   C4B 8192   7.965  16.237   7.773  0.0081 -0.1947  0.1411
  513loPI    C1 8193   5.569   0.319   9.673  0.0633 -0.1899  0.0611
  513loPI    C2 8194   5.426   0.563   9.957  0.1266 -0.0581 -0.0190
  513loPI    C3 8195   5.542   0.192  10.051  0.2264  0.0134  0.1435
  513loPI   PO4 8196   5.411   0.309   9.502 -0.3609  0.0137 -0.1761
  513loPI   GL1 8197   5.422   0.231   9.136 -0.2598  0.1479 -0.1105
  513loPI   GL2 8198   5.509  -0.011   8.988 -0.1428  0.0570 -0.1329
  513loPI   C1A 8199   5.444   0.737   8.992 -0.1092 -0.1320 -0.2751
  513loPI   C2A 8200   5.308   0.851   8.594 -0.1821 -0.3540  0.1327
  513loPI   C3A 8201   5.268   0.711   8.126  0.0804 -0.0534  0.2600
  513loPI   C4A 8202   5.013   0.773   7.926 -0.2361  0.1624  0.0842
  513loPI   C5A 8203   4.766   1.136   7.590  0.0964 -0.1109 -0.0895
  513loPI   C6A 8204   4.688   1.132   7.135  0.1507 -0.2232 -0.2616
  513loPI   C1B 8205   5.598  -0.009   8.571  0.0249 -0.1457  0.0149
  513loPI   C2B 8206   5.619  -0.017   8.130  0.0886 -0.0332 -0.2185
  513loPI   C3B 8207   5.498   0.338   7.903 -0.1363 -0.1481 -0.2569
  513loPI   C4B 8208   5.256   0.465   7.498 -0.0476 -0.3251 -0.0569
  514loPI    C1 8209   6.995  17.420   9.875 -0.0687 -0.0669  0.3393
  514loPI    C2 8210   6.721  17.674  10.017  0.0763  0.2311  0.0976
  514loPI    C3 8211   6.842  17.365  10.240 -0.3315  0.1911  0.2718
  514loPI   PO4 8212   6.894  17.358   9.639 -0.0907  0.0968  0.1851
  514loPI   GL1 8213   7.132  17.297   9.222  0.0526  0.0446 -0.2222
  514loPI   GL2 8214   6.856  17.152   9.193 -0.3495 -0.0731 -0.3258
  514loPI   C1A 8215   7.438  17.371   8.847  0.0160  0.2125 -0.2929
  514loPI   C2A 8216   7.484  17.241   8.375  0.0522  0.0657  0.0551
  514loPI   C3A 8217   7.691  17.147   7.949 -0.1478 -0.0902  0.1015
  514loPI   C4A 8218   7.980  17.333   7.781 -0.2039  0.1302  0.0942
  514loPI   C5A 8219   8.003  17.622   7.506 -0.0194 -0.3073  0.1900
  514loPI   C6A 8220   7.818  18.036   7.475 -0.2849  0.0701  0.2500
  514loPI   C1B 8221   7.066  16.939   8.869  0.2325  0.1692  0.1186
  514loPI   C2B 8222   6.973  16.980   8.452 -0.1472  0.1914 -0.2442
  514loPI   C3B 8223   7.106  17.118   7.995  0.0919  0.0790 -0.3358
  514loPI   C4B 8224   7.230  17.028   7.708 -0.0693 -0.4766  0.1226
  515loPI    C1 8225   3.301  11.518  10.302  0.0473 -0.1106 -0.0404
  515loPI    C2 8226   3.698  11.516  10.345  0.0262  0.1369  0.1904
  515loPI    C3 8227   3.464  11.370  10.635 -0.0533  0.0023  0.0600
  515loPI   PO4 8228   3.244  11.762  10.122  0.0468  0.2228  0.0456
  515loPI   GL1 8229   3.173  11.729   9.670  0.2425  0.0538  0.1326
  515loPI   GL2 8230   2.905  11.921   9.825  0.0597  0.2252  0.0546
  515loPI   C1A 8231   3.250  11.837   9.159 -0.2743  0.0338 -0.1770
  515loPI   C2A 8232   3.190  11.789   8.711 -0.4241  0.1069 -0.2110
  515loPI   C3A 8233   3.058  11.754   8.226 -0.1307 -0.2603 -0.2377
  515loPI   C4A 8234   2.741  11.636   7.902 -0.2196  0.2460 -0.1649
  515loPI   C5A 8235   2.432  11.368   7.799  0.2018  0.2012 -0.0513
  515loPI   C6A 8236   2.381  10.985   7.914  0.0552  0.0733 -0.0108
  515loPI   C1B 8237   2.810  11.657   9.384 -0.3039  0.0753  0.3515
  515loPI   C2B 8238   2.840  11.494   8.978  0.0777 -0.0982 -0.0443
  515loPI   C3B 8239   2.803  11.531   8.594 -0.0077 -0.1700  0.0127
  515loPI   C4B 8240   2.468  11.565   8.331  0.0794  0.2642  0.1355
  516loPI    C1 8241  17.693  11.767   9.874  0.0091 -0.1967 -0.1200
  516loPI    C2 8242  17.750  11.399  10.021 -0.2049 -0.1455  0.0995
  516loPI    C3 8243  17.521  11.659  10.219  0.1843  0.2074  0.1002
  516loPI   PO4 8244  17.782  11.848   9.670 -0.3131 -0.2741  0.2663
  516loPI   GL1 8245  18.119  11.694   9.378 -0.1640 -0.0412 -0.1464
  516loPI   GL2 8246  18.452  11.868   9.334 -0.0071  0.2300  0.0198
  516loPI   C1A 8247  17.976  11.529   9.064  0.0493 -0.1251  0.1862
  516loPI   C2A 8248  17.847  11.554   8.670 -0.3360  0.0916 -0.1025
  516loPI   C3A 8249  17.986  11.666   8.332  0.0978  0.1602 -0.0204
  516loPI   C4A 8250  17.712  11.634   8.023  0.1362  0.1087 -0.0406
  516loPI   C5A 8251  17.501  11.584   7.606  0.2991 -0.3256 -0.0857
  516loPI   C6A 8252  17.687  11.809   7.291 -0.1639  0.0122  0.0183
  516loPI   C1B 8253  18.479  11.923   8.967  0.2611 -0.2183  0.0248
  516loPI   C2B 8254  18.333  11.929   8.500 -0.0842 -0.0713 -0.1462
  516loPI   C3B 8255  18.295  11.940   8.065  0.0340 -0.3143 -0.4605
  516loPI   C4B 8256  18.143  11.783   7.636 -0.1966  0.0281  0.3757
  517loPI    C1 8257   0.539  13.524  10.503  0.3166 -0.1713  0.0801
  517loPI    C2 8258   0.436  13.878  10.660  0.1348 -0.1713 -0.0360
  517loPI    C3 8259   0.244  13.545  10.774  0.0783 -0.1865 -0.1738
  517loPI   PO4 8260   0.578  13.589  10.320  0.3592  0.2669 -0.1250
  517loPI   GL1 8261   0.589  13.526   9.927 -0.0102  0.3876 -0.1660
  517loPI   GL2 8262   0.357  13.373   9.797 -0.2176  0.0056  0.0301
  517loPI   C1A 8263   0.805  13.701   9.573 -0.2520 -0.1718 -0.1013
  517loPI   C2A 8264   0.910  13.664   9.065 -0.3054  0.2771 -0.3059
  517loPI   C3A 8265   0.801  13.607   8.609 -0.4776 -0.2204 -0.1726
  517loPI   C4A 8266   0.699  13.734   8.150 -0.0199  0.0254  0.2371
  517loPI   C5A 8267   0.588  13.959   7.720  0.1227  0.2120  0.1319
  517loPI   C6A 8268   0.235  13.964   7.440 -0.1534  0.2440 -0.3003
  517loPI   C1B 8269   0.522  13.393   9.323  0.0084 -0.0032 -0.4230
  517loPI   C2B 8270   0.467  13.353   8.905  0.2662  0.0774  0.3672
  517loPI   C3B 8271   0.401  13.299   8.423 -0.0402  0.0934  0.2471
  517loPI   C4B 8272   0.519  13.208   7.965  0.1476 -0.1545 -0.0349
  518loPI    C1 8273  15.244  10.458  10.101 -0.3644 -0.1893  0.2054
  518loPI    C2 8274  15.156  10.306  10.461 -0.1777 -0.0484  0.3127
  518loPI    C3 8275  15.298  10.679  10.431 -0.0237 -0.1217  0.1079
  518loPI   PO4 8276  15.396  10.163   9.909 -0.2764  0.3214 -0.0095
  518loPI   GL1 8277  15.412   9.948   9.590  0.5484 -0.2034  0.2326
  518loPI   GL2 8278  15.136   9.811   9.662  0.2185  0.3314  0.0560
  518loPI   C1A 8279  15.609   9.925   9.174  0.0590  0.1429  0.0693
  518loPI   C2A 8280  15.580   9.761   8.904 -0.0470  0.1755  0.2676
  518loPI   C3A 8281  15.390   9.838   8.450  0.1179 -0.3756 -0.0990
  518loPI   C4A 8282  15.572   9.871   8.034 -0.0387  0.1770  0.2277
  518loPI   C5A 8283  15.620   9.894   7.576  0.0728 -0.0133  0.0301
  518loPI   C6A 8284  15.518   9.874   7.101  0.0783 -0.1516 -0.0357
  518loPI   C1B 8285  15.055   9.652   9.238 -0.0078 -0.1693  0.1099
  518loPI   C2B 8286  15.007   9.538   8.835  0.1001 -0.2856 -0.0078
  518loPI   C3B 8287  15.307   9.349   8.436  0.0544 -0.0653 -0.1750
  518loPI   C4B 8288  15.413   9.405   8.003  0.0862  0.1054  0.4260
  519loPI    C1 8289   8.580  10.557   9.802 -0.0815  0.0017 -0.1803
  519loPI    C2 8290   8.871  10.629  10.067 -0.0264 -0.0083 -0.2379
  519loPI    C3 8291   8.488  10.659  10.178 -0.0045 -0.1719 -0.1133
  519loPI   PO4 8292   8.809  10.328   9.666  0.1451 -0.2931 -0.0319
  519loPI   GL1 8293   8.916  10.338   9.182  0.2374 -0.1929 -0.0582
  519loPI   GL2 8294   8.795  10.120   8.935 -0.3539  0.2410  0.0169
  519loPI   C1A 8295   9.123  10.523   8.857 -0.0594 -0.0250 -0.0654
  519loPI   C2A 8296   9.087  10.400   8.498 -0.2903 -0.1927  0.1787
  519loPI   C3A 8297   9.054  10.324   8.017  0.0379  0.4174  0.0988
  519loPI   C4A 8298   9.268  10.285   7.785  0.2666 -0.0816 -0.2140
  519loPI   C5A 8299   9.642  10.270   7.669  0.2111  0.3238  0.0860
  519loPI   C6A 8300   9.874  10.404   7.349 -0.1165 -0.2360 -0.1475
  519loPI   C1B 8301   8.727  10.093   8.496 -0.0195 -0.0216 -0.0087
  519loPI   C2B 8302   8.836   9.856   8.197  0.1303 -0.0250  0.1653
  519loPI   C3B 8303   8.761   9.445   7.804 -0.0618  0.2544 -0.3572
  519loPI   C4B 8304   8.860   9.391   7.312  0.1551 -0.0038 -0.0987
  520loPI    C1 8305   6.179  16.120  10.269  0.0315  0.0801  0.1805
  520loPI    C2 8306   6.255  15.780  10.465 -0.0552  0.1214  0.2866
  520loPI    C3 8307   6.548  16.045  10.405  0.0248  0.0049  0.1578
  520loPI   PO4 8308   6.101  16.097  10.099  0.1506 -0.3763 -0.1459
  520loPI   GL1 8309   5.934  16.174   9.697  0.0446 -0.1009 -0.4608
  520loPI   GL2 8310   5.897  15.851   9.663  0.2013  0.1904 -0.1355
  520loPI   C1A 8311   6.182  16.223   9.380  0.0501  0.0774 -0.3751
  520loPI   C2A 8312   6.205  16.400   8.962 -0.0159 -0.0389  0.2392
  520loPI   C3A 8313   6.109  16.602   8.558 -0.0345  0.0793  0.2613
  520loPI   C4A 8314   6.065  16.389   8.142 -0.1117 -0.2890  0.0658
  520loPI   C5A 8315   5.839  16.397   7.840 -0.3044 -0.2296  0.1465
  520loPI   C6A 8316   5.573  16.615   7.461 -0.0155 -0.0651 -0.2295
  520loPI   C1B 8317   5.674  15.942   9.354  0.1467 -0.1630 -0.0065
  520loPI   C2B 8318   5.743  16.093   9.029  0.4537  0.0151  0.0181
  520loPI   C3B 8319   5.712  16.255   8.533 -0.1894  0.2862 -0.2717
  520loPI   C4B 8320   5.392  16.194   8.149 -0.0532  0.1738  0.0804
  521loPI    C1 8321   5.450   1.823  10.074 -0.2217 -0.1171  0.0104
  521loPI    C2 8322   5.751   2.086  10.084 -0.1648 -0.1841  0.0644
  521loPI    C3 8323   5.802   1.731   9.907 -0.2382 -0.1630  0.0008
  521loPI   PO4 8324   5.151   2.025  10.028 -0.5024 -0.2583  0.2535
  521loPI   GL1 8325   5.167   2.359   9.701  0.1958  0.1255  0.0257
  521loPI   GL2 8326   4.992   2.029   9.579  0.1046 -0.0629  0.0261
  521loPI   C1A 8327   5.228   2.319   9.278  0.0767 -0.3557 -0.0722
  521loPI   C2A 8328   5.133   2.429   8.916  0.0236 -0.0593 -0.0426
  521loPI   C3A 8329   5.025   2.589   8.517  0.3679 -0.3459  0.1510
  521loPI   C4A 8330   4.680   2.702   8.153  0.0165  0.1407  0.1185
  521loPI   C5A 8331   4.348   2.889   7.909 -0.1209  0.2324 -0.0858
  521loPI   C6A 8332   4.157   2.590   7.735  0.2930 -0.0958 -0.2360
  521loPI   C1B 8333   4.789   1.991   9.126  0.1878 -0.0733  0.1923
  521loPI   C2B 8334   4.846   2.079   8.766 -0.0020 -0.0118  0.3691
  521loPI   C3B 8335   4.698   2.240   8.388  0.1148  0.0304 -0.0688
  521loPI   C4B 8336   4.692   2.149   7.899  0.0992 -0.3182  0.3800
  522loPI    C1 8337   9.664   9.634  10.101  0.0701  0.1261  0.0961
  522loPI    C2 8338   9.292   9.490  10.084 -0.0721  0.4911  0.0198
  522loPI    C3 8339   9.406   9.712  10.396  0.2286  0.0010  0.2701
  522loPI   PO4 8340   9.760   9.730   9.792 -0.1021 -0.1444  0.1271
  522loPI   GL1 8341  10.010   9.552   9.447 -0.1430  0.2230  0.1447
  522loPI   GL2 8342   9.742   9.391   9.184  0.2932 -0.0179 -0.1154
  522loPI   C1A 8343  10.177   9.676   9.137  0.1992  0.0439 -0.0112
  522loPI   C2A 8344  10.526   9.670   8.867 -0.0270  0.0678  0.0356
  522loPI   C3A 8345  10.583   9.644   8.438 -0.1977  0.0827  0.1820
  522loPI   C4A 8346  10.779   9.716   8.134  0.0267  0.3405  0.1039
  522loPI   C5A 8347  10.881   9.863   7.749  0.1067  0.0815  0.0603
  522loPI   C6A 8348  10.933   9.676   7.409  0.0136 -0.2952  0.1449
  522loPI   C1B 8349   9.852   9.853   8.780  0.2647 -0.1549 -0.0315
  522loPI   C2B 8350   9.863   9.912   8.364 -0.4179 -0.2134 -0.0339
  522loPI   C3B 8351   9.947   9.981   7.959 -0.1472 -0.1677  0.1192
  522loPI   C4B 8352  10.098   9.935   7.482  0.0258  0.0008 -0.0665
  523loPI    C1 8353   6.246  10.156  10.119  0.0293  0.0831 -0.2654
  523loPI    C2 8354   6.052   9.830   9.991  0.0684 -0.0639  0.0408
  523loPI    C3 8355   5.922  10.025  10.315  0.0586  0.2145 -0.1275
  523loPI   PO4 8356   6.356  10.208   9.906  0.1897  0.2675 -0.0719
  523loPI   GL1 8357   6.164  10.298   9.515  0.0192  0.1067  0.0507
  523loPI   GL2 8358   6.333  10.461   9.408  0.0699  0.1388 -0.0132
  523loPI   C1A 8359   6.062  10.107   9.146 -0.1233  0.0040 -0.2322
  523loPI   C2A 8360   6.042  10.125   8.755 -0.2348  0.2905 -0.1427
  523loPI   C3A 8361   5.947  10.122   8.354 -0.0195 -0.2846  0.1806
  523loPI   C4A 8362   5.884  10.137   7.961 -0.0946  0.1560  0.0494
  523loPI   C5A 8363   5.932  10.150   7.540  0.0481  0.2106 -0.1269
  523loPI   C6A 8364   5.708  10.047   7.134  0.1605  0.0133  0.1550
  523loPI   C1B 8365   6.368  10.489   8.961 -0.5602 -0.0785 -0.3123
  523loPI   C2B 8366   6.203  10.532   8.560 -0.0414  0.1210  0.1233
  523loPI   C3B 8367   6.152  10.621   8.177 -0.0640  0.1967  0.0560
  523loPI   C4B 8368   6.471  10.396   7.817  0.3160  0.0061  0.1355
  524loPI    C1 8369  11.744   0.643  10.080 -0.0696 -0.0080 -0.1856
  524loPI    C2 8370  11.989   0.915  10.242 -0.1153  0.0195 -0.1624
  524loPI    C3 8371  12.059   0.525  10.297 -0.0967  0.0278 -0.1262
  524loPI   PO4 8372  11.700   0.737   9.841  0.1200 -0.2541 -0.1505
  524loPI   GL1 8373  11.479   0.619   9.465 -0.4394 -0.0707  0.0873
  524loPI   GL2 8374  11.702   0.484   9.378  0.1966 -0.0682 -0.1801
  524loPI   C1A 8375  11.317   0.654   9.080  0.1814 -0.0927  0.0153
  524loPI   C2A 8376  11.415   0.888   8.754 -0.3740  0.0328  0.0393
  524loPI   C3A 8377  11.316   0.887   8.351  0.1716 -0.3178  0.0387
  524loPI   C4A 8378  11.161   0.630   7.953 -0.2290 -0.2281 -0.4341
  524loPI   C5A 8379  10.788   0.659   7.686 -0.0039 -0.1413 -0.0868
  524loPI   C6A 8380  10.543   0.914   7.480 -0.3320 -0.1330  0.1801
  524loPI   C1B 8381  11.669   0.384   8.870  0.0670  0.0990  0.0284
  524loPI   C2B 8382  11.781   0.392   8.472  0.3195  0.0449 -0.3234
  524loPI   C3B 8383  11.685   0.631   8.023  0.0912 -0.0728 -0.1084
  524loPI   C4B 8384  11.539   0.962   7.731 -0.4063  0.3909  0.2384
  525loPI    C1 8385  16.193  13.696  10.097  0.0706  0.0042 -0.0784
  525loPI    C2 8386  15.902  13.569   9.855  0.0031  0.0671 -0.0306
  525loPI    C3 8387  15.918  13.439  10.233  0.1224 -0.0495 -0.0750
  525loPI   PO4 8388  16.188  13.976   9.968  0.1073 -0.0530 -0.0016
  525loPI   GL1 8389  16.347  14.166   9.561 -0.0663  0.1758 -0.2705
  525loPI   GL2 8390  16.614  14.168   9.666 -0.0010  0.0278 -0.0339
  525loPI   C1A 8391  16.214  13.974   9.153  0.0934 -0.0113  0.1190
  525loPI   C2A 8392  16.257  13.913   8.705 -0.1016  0.0054 -0.3119
  525loPI   C3A 8393  16.382  13.946   8.302  0.0769 -0.5792 -0.0104
  525loPI   C4A 8394  16.312  13.929   7.919  0.0912  0.3462  0.0192
  525loPI   C5A 8395  16.610  13.783   7.704 -0.1842  0.1942 -0.0316
  525loPI   C6A 8396  16.984  13.568   7.593  0.0098  0.0247  0.0341
  525loPI   C1B 8397  16.679  14.153   9.194 -0.4569 -0.1858  0.2066
  525loPI   C2B 8398  16.647  14.222   8.787  0.0988  0.1887  0.1541
  525loPI   C3B 8399  16.802  14.364   8.473 -0.2760 -0.3941  0.2464
  525loPI   C4B 8400  16.745  14.341   8.009  0.2855  0.0605  0.1499
  526loPI    C1 8401  15.252  17.527   9.969 -0.0724  0.2583 -0.0327
  526loPI    C2 8402  14.855  17.528  10.019 -0.0551 -0.0146  0.1255
  526loPI    C3 8403  15.080  17.806  10.199 -0.2016  0.3427 -0.2291
  526loPI   PO4 8404  15.290  17.351   9.906  0.4005  0.0710 -0.0795
  526loPI   GL1 8405  14.932  17.179   9.651 -0.0870  0.2236 -0.0437
  526loPI   GL2 8406  15.204  17.150   9.459  0.1382  0.0458 -0.1217
  526loPI   C1A 8407  14.668  17.017   9.390 -0.1139 -0.1545  0.3416
  526loPI   C2A 8408  14.342  16.987   9.046 -0.0460  0.1502 -0.3319
  526loPI   C3A 8409  14.277  16.915   8.665 -0.2108 -0.0687 -0.2282
  526loPI   C4A 8410  14.241  16.674   8.202  0.0238  0.0543 -0.0716
  526loPI   C5A 8411  14.105  16.815   7.858 -0.1190 -0.0323 -0.2117
  526loPI   C6A 8412  14.084  17.201   7.548 -0.0043 -0.1710 -0.2984
  526loPI   C1B 8413  15.012  17.158   9.036 -0.3040 -0.0199 -0.2315
  526loPI   C2B 8414  14.796  16.992   8.734  0.0509 -0.1439  0.0274
  526loPI   C3B 8415  14.577  16.989   8.287  0.0052 -0.0210 -0.1185
  526loPI   C4B 8416  14.498  17.160   7.809  0.1097 -0.1079  0.3099
  527loPI    C1 8417   5.232  10.140  10.221 -0.3384 -0.4448 -0.2924
  527loPI    C2 8418   4.925  10.338  10.383 -0.0793 -0.1089 -0.2021
  527loPI    C3 8419   5.122  10.064  10.598 -0.2628 -0.2685 -0.2342
  527loPI   PO4 8420   5.092  10.017   9.854 -0.0667  0.0356 -0.1064
  527loPI   GL1 8421   5.129   9.968   9.347  0.0277 -0.2726 -0.3367
  527loPI   GL2 8422   4.862   9.923   9.400 -0.2242  0.0985  0.1246
  527loPI   C1A 8423   4.871   9.688   8.957  0.2506 -0.3050  0.1607
  527loPI   C2A 8424   4.710   9.664   8.681 -0.0932  0.1124  0.3313
  527loPI   C3A 8425   4.510   9.589   8.294  0.0434  0.1057  0.2537
  527loPI   C4A 8426   4.373   9.473   7.885  0.0515  0.0837 -0.4732
  527loPI   C5A 8427   4.319   9.458   7.416  0.0227  0.1785 -0.0965
  527loPI   C6A 8428   3.947   9.305   7.285  0.2542  0.1025 -0.1493
  527loPI   C1B 8429   4.688  10.160   9.056 -0.2069  0.1589  0.2147
  527loPI   C2B 8430   4.417  10.073   8.627 -0.0828 -0.1874  0.0733
  527loPI   C3B 8431   4.362  10.021   8.197 -0.1627  0.1121 -0.2229
  527loPI   C4B 8432   4.344   9.944   7.677 -0.0978  0.1851  0.0278
  528loPI    C1 8433  17.064   2.573   9.489 -0.3079 -0.1026  0.3214
  528loPI    C2 8434  17.284   2.789   9.744 -0.0968  0.1332 -0.0514
  528loPI    C3 8435  16.885   2.823   9.745 -0.0865  0.2611  0.1297
  528loPI   PO4 8436  17.201   2.325   9.439 -0.3348  0.0394 -0.2095
  528loPI   GL1 8437  17.070   2.096   9.133  0.2229  0.0318  0.2117
  528loPI   GL2 8438  17.102   1.725   9.075 -0.3569 -0.1842 -0.2342
  528loPI   C1A 8439  16.941   2.194   8.738 -0.2091 -0.0048  0.2614
  528loPI   C2A 8440  17.052   2.518   8.444 -0.2389  0.0659  0.0172
  528loPI   C3A 8441  16.831   2.967   8.458 -0.1292 -0.1436 -0.0728
  528loPI   C4A 8442  16.656   3.312   8.349 -0.3417 -0.1879  0.3255
  528loPI   C5A 8443  16.367   3.623   8.346 -0.0616 -0.2061  0.1948
  528loPI   C6A 8444  16.230   3.887   8.619  0.1547  0.4356 -0.1649
  528loPI   C1B 8445  17.091   1.656   8.623  0.1838  0.2652  0.2298
  528loPI   C2B 8446  17.293   1.765   8.205 -0.1234  0.2391  0.1208
  528loPI   C3B 8447  17.695   1.910   7.952  0.0024 -0.3488  0.2161
  528loPI   C4B 8448  17.835   2.164   7.614  0.1213  0.2352  0.1352
  529loPI    C1 8449  18.729   1.781   9.877  0.0098 -0.1181  0.0885
  529loPI    C2 8450  18.666   2.148  10.021  0.1851 -0.0677  0.0395
  529loPI    C3 8451  18.520   1.830  10.214 -0.0733  0.0341  0.0159
  529loPI   PO4 8452  18.791   1.829   9.632  0.1360  0.0531 -0.1055
  529loPI   GL1 8453  18.756   1.591   9.406 -0.1833  0.1766  0.4744
  529loPI   GL2 8454  18.491   1.537   9.248  0.2331 -0.2158  0.1447
  529loPI   C1A 8455  18.866   1.601   8.934 -0.1502 -0.1074 -0.1660
  529loPI   C2A 8456  18.521   1.843   8.649 -0.0754  0.0602 -0.0733
  529loPI   C3A 8457  18.266   1.975   8.316 -0.2261 -0.0881 -0.0831
  529loPI   C4A 8458  18.261   2.161   7.906  0.2426  0.2342  0.1694
  529loPI   C5A 8459  18.495   2.004   7.543 -0.3438  0.0264 -0.0566
  529loPI   C6A 8460  18.821   1.893   7.395  0.0270  0.0642 -0.0332
  529loPI   C1B 8461  18.211   1.202   9.084  0.0673 -0.0317 -0.1533
  529loPI   C2B 8462  17.852   1.134   8.751  0.1019  0.2172  0.3598
  529loPI   C3B 8463  17.781   1.023   8.308 -0.0733  0.0931  0.0650
  529loPI   C4B 8464  17.651   0.838   7.898 -0.0552 -0.0271 -0.0255
  530loPI    C1 8465  15.860  13.940  10.316  0.1520 -0.0048  0.0731
  530loPI    C2 8466  15.739  14.089  10.666 -0.1258  0.0802 -0.0568
  530loPI    C3 8467  15.905  13.726  10.651  0.0022  0.1267  0.1785
  530loPI   PO4 8468  15.615  13.950  10.157 -0.2525 -0.0577 -0.0511
  530loPI   GL1 8469  15.546  13.944   9.741 -0.0571 -0.2716  0.5902
  530loPI   GL2 8470  15.834  14.116   9.623 -0.1088 -0.3433 -0.0104
  530loPI   C1A 8471  15.222  13.832   9.380 -0.0156 -0.0586 -0.1571
  530loPI   C2A 8472  15.127  13.772   9.053  0.0644 -0.2454 -0.0931
  530loPI   C3A 8473  15.337  14.011   8.677 -0.1969 -0.0375 -0.1173
  530loPI   C4A 8474  15.376  14.087   8.285 -0.2486 -0.2771  0.0108
  530loPI   C5A 8475  15.443  14.404   7.937  0.0018  0.2721 -0.0621
  530loPI   C6A 8476  15.533  14.310   7.572 -0.2181  0.3713  0.2563
  530loPI   C1B 8477  15.758  13.788   9.336 -0.1965 -0.0862 -0.0744
  530loPI   C2B 8478  15.807  13.674   8.873 -0.4063  0.2180 -0.0468
  530loPI   C3B 8479  15.686  13.722   8.447  0.1812  0.1021 -0.0809
  530loPI   C4B 8480  15.636  13.648   7.988 -0.1030  0.0706  0.0921
  531loPI    C1 8481   0.627  14.259  10.272  0.1055  0.1551 -0.0410
  531loPI    C2 8482   0.339  14.353  10.533 -0.0303  0.3460 -0.2558
  531loPI    C3 8483   0.719  14.329  10.655 -0.1741 -0.2885  0.1158
  531loPI   PO4 8484   0.505  14.097  10.094 -0.1969  0.0062  0.0579
  531loPI   GL1 8485   0.543  14.190   9.592 -0.3786 -0.4207 -0.1547
  531loPI   GL2 8486   0.260  14.272   9.531  0.1776 -0.3481 -0.2948
  531loPI   C1A 8487   0.801  14.154   9.266 -0.0519  0.0978 -0.2937
  531loPI   C2A 8488   0.845  14.101   8.737 -0.0471  0.0402  0.2632
  531loPI   C3A 8489   0.665  14.162   8.409 -0.0709  0.1910  0.0479
  531loPI   C4A 8490   0.817  14.234   8.067  0.1555  0.2503  0.0679
  531loPI   C5A 8491   0.992  14.208   7.581 -0.0745 -0.3133  0.0238
  531loPI   C6A 8492   1.432  14.012   7.531 -0.2480 -0.2414  0.1603
  531loPI   C1B 8493   0.072  14.438   9.131  0.4357  0.0595  0.1861
  531loPI   C2B 8494   0.097  14.568   8.700  0.3316 -0.1121  0.0096
  531loPI   C3B 8495   0.194  14.345   8.426 -0.3254 -0.1894  0.1645
  531loPI   C4B 8496   0.330  14.159   8.060 -0.1295 -0.1839 -0.0597
  532loPI    C1 8497   9.804   5.508   9.761  0.0982  0.0456  0.0590
  532loPI    C2 8498  10.074   5.347  10.008 -0.0626 -0.0608  0.1671
  532loPI    C3 8499   9.857   5.661  10.127  0.1985  0.1948 -0.0167
  532loPI   PO4 8500  10.062   5.551   9.459 -0.1189  0.0395 -0.1280
  532loPI   GL1 8501  10.045   5.677   9.079  0.0286 -0.0908 -0.1291
  532loPI   GL2 8502  10.425   5.658   9.062 -0.3129 -0.0143  0.5744
  532loPI   C1A 8503   9.976   5.754   8.664  0.0327  0.0868  0.1321
  532loPI   C2A 8504  10.027   5.736   8.177 -0.2175  0.0221 -0.1135
  532loPI   C3A 8505  10.102   5.881   7.778 -0.0312  0.1250  0.1715
  532loPI   C4A 8506  10.235   6.096   7.473 -0.4751 -0.1231 -0.2085
  532loPI   C5A 8507  10.576   6.104   7.186 -0.2981 -0.0415 -0.0654
  532loPI   C6A 8508  10.949   6.184   6.941 -0.2090  0.0545 -0.0420
  532loPI   C1B 8509  10.639   5.531   8.691 -0.0319 -0.2206  0.0676
  532loPI   C2B 8510  10.536   5.573   8.285 -0.1440 -0.2309 -0.1062
  532loPI   C3B 8511  10.369   5.492   7.884 -0.0783 -0.3024  0.1599
  532loPI   C4B 8512  10.419   5.625   7.420 -0.4591 -0.2916  0.1040
  533loPI    C1 8513   9.058   6.124   9.463  0.0112  0.2188 -0.1918
  533loPI    C2 8514   9.380   6.195   9.690  0.0547  0.2856 -0.2738
  533loPI    C3 8515   9.043   6.403   9.750 -0.1095 -0.0707  0.0896
  533loPI   PO4 8516   9.012   5.872   9.488  0.1374  0.2623  0.2032
  533loPI   GL1 8517   9.147   5.721   9.125  0.1400 -0.0838  0.0454
  533loPI   GL2 8518   9.101   5.410   9.026 -0.1963 -0.0196  0.1450
  533loPI   C1A 8519   9.427   5.827   8.755  0.0712  0.3329 -0.1792
  533loPI   C2A 8520   9.494   6.022   8.301  0.0179 -0.2070  0.0792
  533loPI   C3A 8521   9.220   5.966   7.961  0.2340 -0.2921 -0.4557
  533loPI   C4A 8522   9.116   5.857   7.528  0.1492 -0.2358 -0.1759
  533loPI   C5A 8523   9.279   6.200   7.267  0.1584  0.1261  0.0063
  533loPI   C6A 8524   9.545   6.376   6.906 -0.0514  0.3493  0.1954
  533loPI   C1B 8525   8.996   5.238   8.659 -0.1451  0.2386  0.2662
  533loPI   C2B 8526   9.240   5.128   8.355  0.2067  0.4457  0.0785
  533loPI   C3B 8527   9.365   5.045   7.873  0.0904  0.1860 -0.1104
  533loPI   C4B 8528   9.240   4.763   7.549  0.0040  0.0732  0.2104
  534loPI    C1 8529  17.209  12.019   9.857 -0.1543 -0.0300  0.1884
  534loPI    C2 8530  17.543  12.239   9.853 -0.0473 -0.1914 -0.1711
  534loPI    C3 8531  17.314  12.229  10.181  0.4006 -0.2318  0.1498
  534loPI   PO4 8532  17.251  11.915   9.609  0.0662 -0.1689 -0.1603
  534loPI   GL1 8533  17.179  11.981   9.221 -0.0491 -0.2150 -0.1965
  534loPI   GL2 8534  17.146  12.275   9.165  0.0448 -0.4158  0.1877
  534loPI   C1A 8535  17.449  11.844   8.864 -0.4230  0.1996 -0.0051
  534loPI   C2A 8536  17.410  11.888   8.450 -0.2045  0.0593  0.0431
  534loPI   C3A 8537  17.211  11.945   8.019  0.1601 -0.0265 -0.1652
  534loPI   C4A 8538  16.920  12.034   7.727  0.1432 -0.0130  0.1401
  534loPI   C5A 8539  16.643  12.031   7.437  0.0836  0.2413  0.3639
  534loPI   C6A 8540  16.229  12.017   7.414  0.2261  0.1221 -0.0033
  534loPI   C1B 8541  17.395  12.337   8.665  0.3689  0.5840 -0.0051
  534loPI   C2B 8542  17.302  12.438   8.265  0.4292 -0.0200  0.1508
  534loPI   C3B 8543  17.511  12.548   7.893  0.1342 -0.0023  0.1751
  534loPI   C4B 8544  17.625  12.627   7.403  0.3418  0.0901 -0.5186
  535loPI    C1 8545   9.655   1.078   9.475  0.1104  0.0009  0.0068
  535loPI    C2 8546   9.535   0.892   9.808 -0.1041  0.3026  0.1016
  535loPI    C3 8547   9.314   0.868   9.475  0.0870  0.0390 -0.0096
  535loPI   PO4 8548   9.729   1.341   9.545  0.0204  0.1347  0.1222
  535loPI   GL1 8549   9.940   1.572   9.292  0.3930 -0.2042 -0.2840
  535loPI   GL2 8550   9.653   1.760   9.052  0.2286  0.1915 -0.0258
  535loPI   C1A 8551  10.066   1.598   8.926  0.1411  0.0509  0.0674
  535loPI   C2A 8552  10.024   1.705   8.502  0.1048  0.0039 -0.0320
  535loPI   C3A 8553  10.260   1.884   8.089  0.1810 -0.0575  0.0420
  535loPI   C4A 8554  10.508   2.167   7.879 -0.0261 -0.1702  0.0015
  535loPI   C5A 8555  10.662   2.335   7.510 -0.1197  0.0305 -0.0258
  535loPI   C6A 8556  10.792   2.622   7.304 -0.1087 -0.1748  0.1900
  535loPI   C1B 8557   9.653   2.028   8.561  0.1933 -0.2733  0.3588
  535loPI   C2B 8558   9.676   2.324   8.234  0.5860 -0.0847  0.0852
  535loPI   C3B 8559   9.635   2.682   8.013  0.0509 -0.1744 -0.0399
  535loPI   C4B 8560   9.381   2.865   7.762  0.2241  0.0821  0.2612
  536loPI    C1 8561   3.805   4.217   9.329  0.1198  0.1575 -0.0720
  536loPI    C2 8562   4.111   4.434   9.470  0.0263  0.3003 -0.0869
  536loPI    C3 8563   3.735   4.556   9.530 -0.0376  0.0108  0.1240
  536loPI   PO4 8564   3.774   3.936   9.333  0.2192  0.2431 -0.1367
  536loPI   GL1 8565   3.785   3.714   9.036 -0.1862  0.1795 -0.2526
  536loPI   GL2 8566   3.563   3.403   9.193 -0.1706  0.2043  0.0228
  536loPI   C1A 8567   3.889   3.855   8.661 -0.0164  0.1679  0.2354
  536loPI   C2A 8568   4.174   3.830   8.270 -0.1521 -0.3589 -0.2871
  536loPI   C3A 8569   4.257   3.997   7.850  0.4363  0.2551 -0.3651
  536loPI   C4A 8570   4.489   4.164   7.587  0.4032 -0.2480 -0.2933
  536loPI   C5A 8571   4.811   3.948   7.356  0.0921 -0.3232  0.1132
  536loPI   C6A 8572   5.218   3.844   7.374 -0.2923  0.0091 -0.0804
  536loPI   C1B 8573   3.365   3.499   8.813 -0.0961  0.0346 -0.1044
  536loPI   C2B 8574   3.400   3.656   8.339  0.3108 -0.3802  0.2592
  536loPI   C3B 8575   3.384   3.462   7.927 -0.0162 -0.1127 -0.1104
  536loPI   C4B 8576   3.378   3.302   7.481  0.1055 -0.2415  0.0238
  537loPI    C1 8577   8.912   9.031   9.348 -0.0468 -0.1347 -0.1475
  537loPI    C2 8578   9.032   9.269   9.646 -0.0086 -0.0527 -0.2281
  537loPI    C3 8579   9.268   9.212   9.328 -0.1722  0.0936 -0.3781
  537loPI   PO4 8580   8.711   9.047   9.247  0.2157 -0.2717 -0.4527
  537loPI   GL1 8581   8.413   9.284   8.930 -0.3315  0.1971 -0.0951
  537loPI   GL2 8582   8.519   9.666   9.004 -0.2066 -0.0626  0.0283
  537loPI   C1A 8583   8.201   9.151   8.560  0.1753 -0.0250 -0.1148
  537loPI   C2A 8584   8.160   9.133   8.129  0.0495  0.0389  0.1292
  537loPI   C3A 8585   8.151   9.190   7.685  0.0021  0.2091 -0.3872
  537loPI   C4A 8586   7.796   9.444   7.423  0.2210  0.0969 -0.1371
  537loPI   C5A 8587   7.574   9.741   7.327  0.5596 -0.0314 -0.1350
  537loPI   C6A 8588   7.334   9.960   7.585  0.2239  0.1429  0.1636
  537loPI   C1B 8589   8.581   9.617   8.555  0.0042 -0.3252  0.2197
  537loPI   C2B 8590   8.391   9.585   8.094 -0.0882  0.3417  0.2761
  537loPI   C3B 8591   8.198   9.744   7.719 -0.0676 -0.0599 -0.3903
  537loPI   C4B 8592   8.068   9.896   7.292  0.2416  0.2165  0.1712
  538loPI    C1 8593  19.230   8.350   9.747  0.0034  0.0110  0.1059
  538loPI    C2 8594  19.221   8.534  10.102  0.0559 -0.1126  0.1721
  538loPI    C3 8595  19.513   8.274  10.019  0.0160 -0.1214  0.0567
  538loPI   PO4 8596  19.087   8.510   9.597  0.2202  0.1396 -0.1599
  538loPI   GL1 8597  19.067   8.726   9.317 -0.0106  0.0275  0.0160
  538loPI   GL2 8598  18.789   8.842   9.092 -0.0129  0.1146 -0.1857
  538loPI   C1A 8599  19.315   8.688   8.936  0.1015  0.0206 -0.1678
  538loPI   C2A 8600  19.131   8.662   8.490 -0.0017  0.0761 -0.0031
  538loPI   C3A 8601  19.033   8.294   8.161  0.0796 -0.0144  0.3042
  538loPI   C4A 8602  19.292   8.070   7.910  0.0018  0.0856 -0.0547
  538loPI   C5A 8603  19.262   7.997   7.525 -0.2315 -0.1191  0.0429
  538loPI   C6A 8604  19.198   7.504   7.478 -0.0468 -0.1965 -0.0789
  538loPI   C1B 8605  18.783   9.086   8.691 -0.1632  0.3001 -0.3311
  538loPI   C2B 8606  18.819   8.990   8.241  0.3093  0.0103  0.1190
  538loPI   C3B 8607  19.053   8.781   7.952  0.1441 -0.0647 -0.1150
  538loPI   C4B 8608  19.081   8.478   7.688  0.0284 -0.2422 -0.0412
  539loPI    C1 8609   5.369   1.073   9.954 -0.0737 -0.2065  0.2461
  539loPI    C2 8610   5.389   0.975  10.342 -0.0994  0.0917  0.3253
  539loPI    C3 8611   5.467   1.350  10.226 -0.2930  0.0538  0.0647
  539loPI   PO4 8612   5.121   1.013   9.877 -0.0134  0.2036  0.0756
  539loPI   GL1 8613   4.966   1.247   9.516 -0.0310  0.0321 -0.2078
  539loPI   GL2 8614   4.688   1.273   9.336  0.2215  0.0480 -0.0233
  539loPI   C1A 8615   5.075   1.099   9.130  0.1001  0.0474 -0.1105
  539loPI   C2A 8616   4.851   0.817   8.764  0.2308 -0.3196  0.3917
  539loPI   C3A 8617   4.773   0.675   8.384 -0.3323  0.0151  0.1211
  539loPI   C4A 8618   4.510   0.810   8.047 -0.1727 -0.0339  0.0862
  539loPI   C5A 8619   4.329   0.888   7.682 -0.0686 -0.2550  0.1049
  539loPI   C6A 8620   4.170   0.980   7.298 -0.0011 -0.0249  0.1447
  539loPI   C1B 8621   4.448   1.100   8.944  0.1076  0.1885  0.4308
  539loPI   C2B 8622   4.348   0.746   8.611  0.1954  0.0201  0.2258
  539loPI   C3B 8623   4.069   0.690   8.274 -0.1838  0.2429  0.2254
  539loPI   C4B 8624   4.047   0.455   7.920  0.0199  0.3742  0.3277
  540loPI    C1 8625   4.812   5.792   9.887 -0.2496  0.1741  0.3677
  540loPI    C2 8626   5.120   5.728  10.133  0.1656 -0.1944 -0.2209
  540loPI    C3 8627   4.920   5.418   9.978 -0.0511  0.0289 -0.3944
  540loPI   PO4 8628   4.840   5.945   9.709 -0.0857 -0.0358 -0.1166
  540loPI   GL1 8629   4.971   5.878   9.283  0.1060 -0.0168 -0.4351
  540loPI   GL2 8630   4.946   5.592   9.128 -0.0478  0.2378  0.0801
  540loPI   C1A 8631   4.832   5.968   8.834  0.1193 -0.3349  0.1675
  540loPI   C2A 8632   5.147   6.078   8.491 -0.3013 -0.0673  0.0789
  540loPI   C3A 8633   5.201   6.081   8.066  0.1743 -0.0741 -0.1294
  540loPI   C4A 8634   5.166   6.252   7.763 -0.0101  0.0658 -0.4064
  540loPI   C5A 8635   5.437   6.277   7.401  0.1467 -0.1822  0.1168
  540loPI   C6A 8636   5.298   6.377   7.059 -0.1138 -0.2386  0.2474
  540loPI   C1B 8637   4.605   5.476   8.816  0.0224 -0.0222 -0.0522
  540loPI   C2B 8638   4.565   5.566   8.474 -0.5128  0.0616 -0.2086
  540loPI   C3B 8639   4.456   5.535   8.169 -0.1182 -0.0461  0.3943
  540loPI   C4B 8640   4.293   5.617   7.825 -0.0075 -0.2180 -0.1959
  541POPI    C1 8641   4.976  18.454   9.283  0.1846 -0.0347 -0.3321
  541POPI    C2 8642   4.598  18.513   9.400  0.1702 -0.0808 -0.3554
  541POPI    C3 8643   4.891  18.501   9.671  0.1348 -0.2016 -0.3221
  541POPI   PO4 8644   4.996  18.292   9.125 -0.1506  0.0016 -0.0782
  541POPI   GL1 8645   5.018  18.146   8.707  0.0916  0.0278 -0.2737
  541POPI   GL2 8646   4.802  17.898   8.766  0.1294 -0.0649 -0.1307
  541POPI   C1A 8647   5.067  18.252   8.374  0.4489 -0.2399 -0.3162
  541POPI   D2A 8648   5.139  18.291   7.994  0.0027  0.3426 -0.3744
  541POPI   C3A 8649   5.591  18.445   7.684 -0.1923  0.2628 -0.1502
  541POPI   C4A 8650   5.947  18.541   7.470 -0.0016 -0.1032 -0.1373
  541POPI   C1B 8651   4.617  17.966   8.354 -0.1568 -0.1118 -0.2317
  541POPI   C2B 8652   4.336  17.900   7.983  0.1777 -0.2787  0.0271
  541POPI   C3B 8653   4.242  18.000   7.480 -0.2562  0.1985 -0.0306
  541POPI   C4B 8654   4.305  18.349   7.070  0.1231 -0.0672  0.5824
  542POPI    C1 8655   1.487   9.548   9.908  0.2968  0.0614  0.0385
  542POPI    C2 8656   1.609   9.615  10.283  0.0907  0.2310  0.0770
  542POPI    C3 8657   1.407   9.281  10.196  0.0220  0.2545  0.1454
  542POPI   PO4 8658   1.705   9.630   9.803 -0.0285  0.1205 -0.2529
  542POPI   GL1 8659   1.784   9.900   9.395  0.2881 -0.0799 -0.0948
  542POPI   GL2 8660   1.769   9.525   9.223  0.1117 -0.1286 -0.0203
  542POPI   C1A 8661   1.520   9.948   9.003  0.0976 -0.2638  0.1036
  542POPI   D2A 8662   1.392  10.033   8.684  0.0887 -0.2725 -0.2176
  542POPI   C3A 8663   1.372  10.137   8.242 -0.2400 -0.0588 -0.1109
  542POPI   C4A 8664   1.536  10.457   7.885  0.5947 -0.0741  0.0003
  542POPI   C1B 8665   1.806   9.547   8.780  0.2333  0.0741 -0.1600
  542POPI   C2B 8666   1.909   9.671   8.389  0.0310  0.1980  0.2065
  542POPI   C3B 8667   1.771   9.779   7.916 -0.0550  0.0359  0.0030
  542POPI   C4B 8668   1.421   9.995   7.727 -0.3050 -0.0604 -0.0677
  543POPI    C1 8669  15.510  18.647  10.236  0.0360  0.0050  0.1493
  543POPI    C2 8670  15.407  18.990  10.058  0.1279 -0.0241  0.0394
  543POPI    C3 8671  15.221  18.875  10.392 -0.0954 -0.0048 -0.0765
  543POPI   PO4 8672  15.496  18.476  10.074  0.3896  0.1798  0.0672
  543POPI   GL1 8673  15.173  18.634   9.652  0.1801  0.0459 -0.1967
  543POPI   GL2 8674  15.301  18.841   9.471 -0.0783 -0.0319 -0.0217
  543POPI   C1A 8675  14.882  18.507   9.317 -0.0132 -0.1933 -0.0683
  543POPI   D2A 8676  14.889  18.516   8.856  0.1773  0.1836  0.0050
  543POPI   C3A 8677  15.018  18.485   8.432  0.2046 -0.0838 -0.0076
  543POPI   C4A 8678  15.076  18.554   8.028  0.0770  0.0129  0.3597
  543POPI   C1B 8679  15.371  18.661   9.077 -0.1180  0.2245  0.1991
  543POPI   C2B 8680  15.609  18.845   8.652 -0.1887 -0.1189  0.1269
  543POPI   C3B 8681  15.627  18.674   8.291  0.2175 -0.1871 -0.0154
  543POPI   C4B 8682  15.787  18.604   7.966  0.0806  0.0138  0.3355
  544POPI    C1 8683  18.955   0.497  10.121 -0.0884 -0.2065  0.0007
  544POPI    C2 8684  18.837   0.751   9.835  0.2249 -0.0151  0.0375
  544POPI    C3 8685  18.829   0.864  10.219  0.1223 -0.1533  0.0766
  544POPI   PO4 8686  19.188   0.413  10.031 -0.1648 -0.1217 -0.2009
  544POPI   GL1 8687  19.341   0.357   9.618 -0.3464 -0.2340 -0.0973
  544POPI   GL2 8688  19.205   0.701   9.494 -0.2308 -0.0671 -0.3212
  544POPI   C1A 8689  19.465   0.360   9.172  0.1451  0.2177 -0.0513
  544POPI   D2A 8690  19.572   0.607   8.824  0.1042 -0.1890  0.3087
  544POPI   C3A 8691  19.594   1.082   8.761  0.1621 -0.2684  0.2429
  544POPI   C4A 8692  19.639   1.488   8.434 -0.1384  0.2415  0.3869
  544POPI   C1B 8693  19.232   0.810   9.101  0.0025 -0.0570 -0.0611
  544POPI   C2B 8694  19.081   0.878   8.696 -0.0219  0.0571  0.3305
  544POPI   C3B 8695  18.975   0.992   8.233 -0.3507  0.2535  0.2224
  544POPI   C4B 8696  18.951   0.741   7.857  0.1023 -0.4711  0.0034
  545POPI    C1 8697   1.303  10.827   9.985  0.0896  0.0025 -0.1306
  545POPI    C2 8698   0.980  11.062   9.998 -0.0874 -0.2427 -0.0090
  545POPI    C3 8699   1.244  11.068  10.298  0.0396 -0.0197 -0.1229
  545POPI   PO4 8700   1.222  10.634   9.770 -0.0524 -0.0046  0.0582
  545POPI   GL1 8701   1.174  10.526   9.288  0.0836 -0.1466  0.1808
  545POPI   GL2 8702   0.950  10.860   9.089 -0.2332 -0.2833  0.0617
  545POPI   C1A 8703   1.136  10.477   8.889 -0.1148 -0.0510  0.3619
  545POPI   D2A 8704   1.078  10.496   8.405  0.1228 -0.2290  0.0283
  545POPI   C3A 8705   0.816  10.759   8.224  0.0459  0.3285  0.2371
  545POPI   C4A 8706   0.791  11.000   7.879  0.0509  0.0366 -0.0629
  545POPI   C1B 8707   0.887  11.128   8.805 -0.1776 -0.0228 -0.2629
  545POPI   C2B 8708   0.757  11.333   8.455  0.1221  0.1247 -0.2028
  545POPI   C3B 8709   0.708  11.577   8.070 -0.0900  0.0520 -0.1684
  545POPI   C4B 8710   1.076  11.367   7.832  0.2701 -0.1891 -0.0389
  546POPI    C1 8711  18.188   3.895   9.996  0.1776  0.2059  0.0280
  546POPI    C2 8712  18.362   3.639  10.248  0.0352 -0.0962 -0.1744
  546POPI    C3 8713  18.355   4.029  10.334  0.1759 -0.1675  0.1820
  546POPI   PO4 8714  18.322   3.884   9.788 -0.0860 -0.0715  0.0202
  546POPI   GL1 8715  18.350   4.112   9.357  0.4280 -0.1665 -0.0008
  546POPI   GL2 8716  18.082   3.981   9.343  0.2999 -0.3298 -0.1456
  546POPI   C1A 8717  18.470   4.299   9.019 -0.0884  0.0880  0.2430
  546POPI   D2A 8718  18.470   4.311   8.500 -0.1559  0.0814 -0.0886
  546POPI   C3A 8719  18.406   4.165   8.085 -0.1120 -0.0818 -0.2255
  546POPI   C4A 8720  18.405   4.338   7.635  0.1250 -0.0683  0.2800
  546POPI   C1B 8721  17.783   4.063   9.072  0.1377 -0.1944 -0.0590
  546POPI   C2B 8722  17.590   4.066   8.705  0.0092 -0.4681 -0.0108
  546POPI   C3B 8723  17.590   4.218   8.392 -0.3825 -0.1442  0.0532
  546POPI   C4B 8724  17.561   4.059   8.019  0.2820  0.0616  0.0571
  547POPI    C1 8725   2.238   9.591   9.926 -0.1459  0.0184  0.0456
  547POPI    C2 8726   2.448   9.743  10.231 -0.2840  0.0881  0.1070
  547POPI    C3 8727   2.048   9.765  10.233 -0.2931 -0.0526 -0.0040
  547POPI   PO4 8728   2.346   9.661   9.765 -0.2725 -0.1050  0.0003
  547POPI   GL1 8729   2.348   9.819   9.447 -0.2577 -0.1924 -0.0100
  547POPI   GL2 8730   2.368  10.071   9.237 -0.1102  0.1730  0.1161
  547POPI   C1A 8731   2.266   9.584   9.069  0.0808 -0.0092 -0.3155
  547POPI   D2A 8732   2.310   9.752   8.647 -0.3518 -0.0083 -0.0239
  547POPI   C3A 8733   2.624   9.779   8.330 -0.1689 -0.1325 -0.1074
  547POPI   C4A 8734   2.267   9.905   7.998  0.0094  0.0058  0.0118
  547POPI   C1B 8735   2.715  10.209   8.928 -0.0377  0.0270 -0.1752
  547POPI   C2B 8736   2.522  10.269   8.499 -0.0800  0.1483 -0.0827
  547POPI   C3B 8737   2.450  10.355   8.096  0.3010  0.2522 -0.2603
  547POPI   C4B 8738   2.620  10.126   7.645 -0.0966 -0.2086  0.3140
  548POPI    C1 8739  16.659  18.922  10.022 -0.1820 -0.0416  0.1748
  548POPI    C2 8740  16.382  19.003  10.299 -0.0244  0.1375  0.2822
  548POPI    C3 8741  16.606  19.298  10.147  0.2542 -0.0334  0.3530
  548POPI   PO4 8742  16.515  18.736   9.888  0.1442 -0.0510  0.2208
  548POPI   GL1 8743  16.327  18.552   9.485  0.0323 -0.0342  0.0144
  548POPI   GL2 8744  16.638  18.369   9.575  0.0988  0.1875 -0.0648
  548POPI   C1A 8745  16.539  18.578   9.093  0.0430 -0.1329 -0.0268
  548POPI   D2A 8746  16.638  18.659   8.656 -0.0445  0.3094 -0.0809
  548POPI   C3A 8747  16.810  18.985   8.342 -0.3742  0.3975  0.1299
  548POPI   C4A 8748  16.937  18.900   7.927 -0.0371  0.0020  0.2702
  548POPI   C1B 8749  16.659  18.160   9.276 -0.1150  0.0871 -0.1465
  548POPI   C2B 8750  16.790  18.223   8.815  0.1549  0.0664 -0.2532
  548POPI   C3B 8751  16.753  18.120   8.428 -0.0708 -0.1162 -0.0552
  548POPI   C4B 8752  16.723  17.845   8.056  0.1594 -0.3320  0.1438
  549POPI    C1 8753   4.943  13.637  10.215  0.1436  0.1314  0.0182
  549POPI    C2 8754   4.567  13.504  10.199  0.1111  0.2137  0.0924
  549POPI    C3 8755   4.783  13.454  10.532  0.1982  0.0816  0.0173
  549POPI   PO4 8756   4.957  13.668   9.985  0.1503  0.1577 -0.0023
  549POPI   GL1 8757   5.183  13.538   9.604  0.0104 -0.0232 -0.5934
  549POPI   GL2 8758   4.898  13.709   9.421 -0.1446 -0.0697  0.1903
  549POPI   C1A 8759   5.284  13.425   9.154 -0.1134  0.0021  0.2624
  549POPI   D2A 8760   5.543  13.382   8.789 -0.2087 -0.1228 -0.2502
  549POPI   C3A 8761   5.783  13.691   8.594  0.1602 -0.1868 -0.0811
  549POPI   C4A 8762   5.482  13.974   8.296  0.1004 -0.2117  0.1635
  549POPI   C1B 8763   4.785  13.914   9.102 -0.0691  0.2398  0.0711
  549POPI   C2B 8764   4.581  13.922   8.663 -0.1209  0.2772  0.0816
  549POPI   C3B 8765   4.703  13.568   8.409  0.3058 -0.0353 -0.2207
  549POPI   C4B 8766   4.591  13.234   8.412 -0.2072 -0.2059  0.2251
  550POPI    C1 8767   0.844  16.785  10.174  0.1024  0.1490  0.0457
  550POPI    C2 8768   0.997  16.801  10.543 -0.0616 -0.1456  0.1297
  550POPI    C3 8769   0.693  16.553  10.463 -0.1380  0.0384 -0.1642
  550POPI   PO4 8770   0.907  16.974  10.015 -0.0201  0.0364  0.1938
  550POPI   GL1 8771   0.840  17.102   9.626  0.0502  0.0432  0.3588
  550POPI   GL2 8772   0.812  17.498   9.560  0.0194 -0.2845 -0.0213
  550POPI   C1A 8773   1.196  17.060   9.302 -0.3853  0.1169 -0.0279
  550POPI   D2A 8774   1.101  16.963   8.889 -0.0183 -0.1180 -0.1139
  550POPI   C3A 8775   1.299  16.614   8.734  0.2446  0.0899  0.2623
  550POPI   C4A 8776   1.302  16.350   8.404  0.2249 -0.0411  0.1137
  550POPI   C1B 8777   0.727  17.323   9.140 -0.2932 -0.2150 -0.0368
  550POPI   C2B 8778   0.669  17.310   8.731 -0.1078  0.0109  0.0197
  550POPI   C3B 8779   0.717  17.307   8.222  0.0059 -0.1031 -0.1250
  550POPI   C4B 8780   0.704  17.560   7.764 -0.1326  0.0314 -0.1839
  551POPI    C1 8781   0.112   6.528   9.794  0.1650  0.2133  0.0550
  551POPI    C2 8782   0.352   6.452  10.104  0.1321  0.3968  0.1269
  551POPI    C3 8783   0.009   6.651  10.160 -0.1554 -0.0646  0.0632
  551POPI   PO4 8784   0.266   6.588   9.595 -0.5137 -0.1915  0.0777
  551POPI   GL1 8785   0.257   6.797   9.122  0.1963 -0.3283  0.0982
  551POPI   GL2 8786  -0.022   6.909   9.255  0.0090 -0.0357 -0.1260
  551POPI   C1A 8787   0.413   6.495   8.877  0.1818  0.3322  0.1929
  551POPI   D2A 8788   0.305   6.582   8.435 -0.0585  0.0144 -0.0283
  551POPI   C3A 8789   0.575   6.364   8.089  0.2471  0.3037  0.1923
  551POPI   C4A 8790   0.768   6.384   7.871  0.1689 -0.0568  0.1087
  551POPI   C1B 8791  -0.183   7.221   8.885  0.3909 -0.1323  0.0259
  551POPI   C2B 8792  -0.354   7.498   8.574 -0.0194  0.3589  0.2403
  551POPI   C3B 8793  -0.674   7.521   8.218  0.1959  0.0616  0.2526
  551POPI   C4B 8794  -0.834   7.512   7.831  0.0324  0.2551 -0.3253
  552POPI    C1 8795   2.089   8.909   9.976  0.0648 -0.1872  0.0148
  552POPI    C2 8796   1.706   8.919  10.090  0.0414 -0.0987 -0.0698
  552POPI    C3 8797   1.905   9.260  10.027  0.0595 -0.1453 -0.2736
  552POPI   PO4 8798   2.044   8.761   9.754  0.1644 -0.0640 -0.0692
  552POPI   GL1 8799   2.002   8.735   9.346 -0.2215 -0.0770  0.3170
  552POPI   GL2 8800   1.889   8.991   9.197 -0.0725  0.0564 -0.0929
  552POPI   C1A 8801   2.207   8.671   9.021 -0.1055  0.0787  0.1043
  552POPI   D2A 8802   2.411   8.784   8.572  0.0544  0.2082  0.1497
  552POPI   C3A 8803   2.389   8.675   8.145 -0.0802 -0.0913  0.1393
  552POPI   C4A 8804   2.350   8.255   8.136 -0.0219 -0.1368  0.1477
  552POPI   C1B 8805   2.063   9.097   8.753 -0.2594  0.2326  0.0892
  552POPI   C2B 8806   2.127   9.146   8.364  0.1902 -0.1647 -0.0757
  552POPI   C3B 8807   2.300   9.406   8.102  0.1738  0.1873 -0.0201
  552POPI   C4B 8808   2.673   9.702   7.851 -0.0175 -0.2968 -0.2721
  553POPI    C1 8809   9.049   0.353   9.887 -0.0336  0.0333  0.0118
  553POPI    C2 8810   9.248   0.031  10.015 -0.0963 -0.0505 -0.1000
  553POPI    C3 8811   8.993   0.219  10.260 -0.0484 -0.0767 -0.0298
  553POPI   PO4 8812   9.238   0.447   9.726 -0.1123  0.0400 -0.0366
  553POPI   GL1 8813   9.194   0.332   9.311 -0.1011  0.3829  0.2329
  553POPI   GL2 8814   9.019   0.098   9.219 -0.1053 -0.2674 -0.2733
  553POPI   C1A 8815   9.268   0.707   9.011  0.1873 -0.2677 -0.0337
  553POPI   D2A 8816   9.389   1.092   8.693 -0.0535 -0.3505 -0.0514
  553POPI   C3A 8817   9.375   1.071   8.277 -0.1000  0.0934 -0.0336
  553POPI   C4A 8818   9.395   1.055   7.869  0.0826 -0.3957  0.0418
  553POPI   C1B 8819   8.767   0.368   8.957 -0.2181  0.2053 -0.1975
  553POPI   C2B 8820   8.445   0.251   8.630  0.0865 -0.3754  0.0605
  553POPI   C3B 8821   8.169   0.366   8.301  0.1641  0.1756  0.0894
  553POPI   C4B 8822   8.069   0.221   7.915  0.0455 -0.0113  0.2938
  554POPI    C1 8823   4.588   3.878   9.803  0.1250 -0.0496  0.1170
  554POPI    C2 8824   4.938   4.048   9.897  0.0593  0.0354  0.2090
  554POPI    C3 8825   4.653   4.010  10.175 -0.1800  0.3924  0.0205
  554POPI   PO4 8826   4.463   4.061   9.529 -0.1219 -0.0707  0.2254
  554POPI   GL1 8827   4.497   4.229   9.134 -0.1850  0.2418  0.3672
  554POPI   GL2 8828   4.220   4.050   9.108  0.0029 -0.0203  0.1761
  554POPI   C1A 8829   4.663   4.272   8.705 -0.0876 -0.0101 -0.1822
  554POPI   D2A 8830   4.486   4.239   8.278 -0.1652  0.0283 -0.4057
  554POPI   C3A 8831   4.200   4.449   8.060 -0.0729 -0.0415 -0.0580
  554POPI   C4A 8832   3.808   4.650   7.928 -0.2518 -0.3360  0.1542
  554POPI   C1B 8833   4.101   4.243   8.738 -0.1496 -0.2811 -0.0628
  554POPI   C2B 8834   3.850   4.302   8.384  0.0292 -0.4042 -0.1027
  554POPI   C3B 8835   3.766   4.167   7.886  0.0728 -0.1160 -0.2955
  554POPI   C4B 8836   3.997   4.336   7.575 -0.5394  0.1614 -0.0409
  555POPI    C1 8837  11.848   8.770  10.009  0.1204 -0.1338 -0.0234
  555POPI    C2 8838  12.202   8.621  10.123  0.1118 -0.0402  0.1287
  555POPI    C3 8839  12.119   9.007  10.184 -0.0211 -0.0642  0.1033
  555POPI   PO4 8840  11.814   8.635   9.792  0.1390 -0.1716  0.1360
  555POPI   GL1 8841  11.987   8.748   9.321 -0.0232  0.2325 -0.2728
  555POPI   GL2 8842  11.899   9.062   9.244  0.0452  0.1413 -0.0420
  555POPI   C1A 8843  11.774   8.590   9.027 -0.1875  0.0324 -0.0530
  555POPI   D2A 8844  11.754   8.845   8.645 -0.0751  0.0024 -0.0259
  555POPI   C3A 8845  11.764   8.790   8.220  0.0568  0.0584 -0.1382
  555POPI   C4A 8846  11.997   8.893   7.882 -0.0175 -0.1398 -0.1858
  555POPI   C1B 8847  11.943   9.295   8.816 -0.2543  0.0730 -0.1611
  555POPI   C2B 8848  12.096   9.275   8.469 -0.0598  0.0825 -0.0238
  555POPI   C3B 8849  12.300   9.269   8.105 -0.1525  0.0928  0.0926
  555POPI   C4B 8850  12.243   9.419   7.733  0.0268 -0.0259 -0.0421
  556POPI    C1 8851   5.464   9.162   9.956 -0.1452  0.1207 -0.0223
  556POPI    C2 8852   5.835   9.230  10.086 -0.1645  0.3946 -0.1050
  556POPI    C3 8853   5.529   9.235  10.343 -0.1068  0.1104 -0.0268
  556POPI   PO4 8854   5.478   9.109   9.769  0.1760 -0.1696  0.0905
  556POPI   GL1 8855   5.531   9.386   9.456  0.1492  0.2096 -0.3410
  556POPI   GL2 8856   5.285   9.176   9.284  0.1721  0.5807 -0.3033
  556POPI   C1A 8857   5.360   9.614   9.107 -0.0986  0.2698  0.2476
  556POPI   D2A 8858   5.273   9.685   8.652 -0.1261 -0.2365  0.2838
  556POPI   C3A 8859   4.923   9.833   8.280  0.2026 -0.2446 -0.2460
  556POPI   C4A 8860   4.817   9.909   7.905 -0.0724 -0.1717 -0.2185
  556POPI   C1B 8861   5.562   9.207   8.920 -0.0890 -0.1277  0.2519
  556POPI   C2B 8862   5.509   9.230   8.450  0.2263 -0.0627  0.2869
  556POPI   C3B 8863   5.473   9.236   8.023  0.1434 -0.0804 -0.0273
  556POPI   C4B 8864   5.273   9.082   7.701  0.1099  0.2411 -0.1299
  557POPI    C1 8865   7.477  16.094   9.726 -0.0053 -0.0342  0.0212
  557POPI    C2 8866   7.391  16.190  10.105 -0.0630 -0.0045  0.0007
  557POPI    C3 8867   7.746  16.290   9.949 -0.0707  0.0557  0.0215
  557POPI   PO4 8868   7.312  15.825   9.679 -0.0249  0.0753 -0.1034
  557POPI   GL1 8869   7.091  15.913   9.371  0.0830 -0.2084 -0.2116
  557POPI   GL2 8870   7.258  16.246   9.334  0.0313  0.0734  0.0115
  557POPI   C1A 8871   6.987  15.660   9.039  0.0483  0.1775 -0.1547
  557POPI   D2A 8872   7.074  15.523   8.606 -0.2175 -0.4252  0.1551
  557POPI   C3A 8873   7.517  15.495   8.460 -0.1112  0.0690 -0.2647
  557POPI   C4A 8874   7.731  15.251   8.104 -0.3638 -0.3746  0.2584
  557POPI   C1B 8875   7.117  16.455   8.946  0.0296 -0.0020  0.0497
  557POPI   C2B 8876   7.071  16.412   8.469  0.0377 -0.0084  0.1621
  557POPI   C3B 8877   6.977  16.645   8.035  0.0350  0.0288 -0.2725
  557POPI   C4B 8878   7.037  16.529   7.592 -0.0780 -0.1293  0.1077
  558POPI    C1 8879   8.715   0.001   9.660  0.0328  0.0323  0.0027
  558POPI    C2 8880   8.573   0.232   9.366  0.2557  0.1632 -0.0040
  558POPI    C3 8881   8.537   0.348   9.747  0.3528  0.2017 -0.0063
  558POPI   PO4 8882   9.006  -0.187   9.619  0.1843 -0.1445 -0.0169
  558POPI   GL1 8883   9.055  -0.508   9.345  0.1146  0.0253 -0.2844
  558POPI   GL2 8884   9.363  -0.556   9.379  0.2907 -0.0542  0.0055
  558POPI   C1A 8885   9.192  -0.294   8.967 -0.2893 -0.1242  0.0480
  558POPI   D2A 8886   9.166   0.167   8.764  0.1509 -0.3627 -0.2029
  558POPI   C3A 8887   8.926   0.290   8.377  0.2900  0.1277  0.2739
  558POPI   C4A 8888   8.744   0.303   7.996 -0.0930 -0.0388 -0.0978
  558POPI   C1B 8889   9.461  -0.809   8.953 -0.0254 -0.1852 -0.2618
  558POPI   C2B 8890   9.349  -1.132   8.540 -0.1522 -0.1862  0.1606
  558POPI   C3B 8891   9.131  -1.121   8.212 -0.2422  0.0428  0.2308
  558POPI   C4B 8892   9.151  -1.097   7.767 -0.0093 -0.2408  0.2404
  559POPI    C1 8893  12.306  16.222  10.165 -0.0043 -0.0052  0.0369
  559POPI    C2 8894  12.621  16.052  10.344 -0.0967  0.1557  0.3595
  559POPI    C3 8895  12.263  16.049  10.523 -0.2871 -0.0435 -0.0134
  559POPI   PO4 8896  12.266  16.169   9.856  0.0386 -0.0620 -0.1269
  559POPI   GL1 8897  12.102  16.123   9.409  0.3983 -0.0585  0.2178
  559POPI   GL2 8898  12.244  16.407   9.324  0.0684  0.0053  0.6134
  559POPI   C1A 8899  12.215  15.965   9.039  0.1215 -0.0158 -0.1974
  559POPI   D2A 8900  12.405  15.996   8.685  0.0806  0.1436  0.0256
  559POPI   C3A 8901  12.316  15.970   8.257  0.2973  0.1502 -0.4050
  559POPI   C4A 8902  12.181  16.064   7.811  0.0414 -0.2758 -0.0537
  559POPI   C1B 8903  12.651  16.225   9.110  0.2468  0.0004 -0.2446
  559POPI   C2B 8904  12.875  16.428   8.805 -0.1517 -0.1024 -0.0064
  559POPI   C3B 8905  12.904  16.337   8.525  0.0800  0.2595  0.2114
  559POPI   C4B 8906  12.879  16.076   8.256  0.1707 -0.2262 -0.3189
  560POPI    C1 8907  11.613  14.470  10.060 -0.2377  0.1081  0.0087
  560POPI    C2 8908  11.607  14.824  10.247 -0.1421 -0.1029  0.4223
  560POPI    C3 8909  11.954  14.669  10.121 -0.2084  0.0485  0.0402
  560POPI   PO4 8910  11.446  14.450   9.918  0.0197  0.0663  0.3786
  560POPI   GL1 8911  11.231  14.149   9.631  0.1864  0.2787  0.1078
  560POPI   GL2 8912  10.976  14.261   9.633  0.1759 -0.4787  0.1222
  560POPI   C1A 8913  11.191  13.941   9.183  0.0476 -0.1241  0.0278
  560POPI   D2A 8914  11.386  14.199   8.853 -0.1276 -0.3807 -0.2736
  560POPI   C3A 8915  11.524  14.118   8.359  0.1730 -0.1420  0.1418
  560POPI   C4A 8916  11.916  14.013   8.080  0.0029  0.1426  0.0038
  560POPI   C1B 8917  10.733  14.667   9.420  0.1143  0.3430 -0.0196
  560POPI   C2B 8918  10.533  14.604   9.092 -0.0129 -0.1977  0.0048
  560POPI   C3B 8919  10.493  14.814   8.727 -0.1531  0.0914  0.4724
  560POPI   C4B 8920  10.689  15.155   8.556 -0.0127 -0.2126  0.0718
  561POPI    C1 8921  19.224   3.101  10.094  0.3091  0.1733 -0.0911
  561POPI    C2 8922  19.337   2.773   9.895 -0.0119 -0.0138  0.0264
  561POPI    C3 8923  19.450   2.826  10.276  0.2505  0.1393 -0.0696
  561POPI   PO4 8924  19.255   3.260   9.865  0.0064 -0.1002  0.0935
  561POPI   GL1 8925  19.153   3.539   9.484  0.2999 -0.0198  0.0840
  561POPI   GL2 8926  19.317   3.468   9.227  0.1156 -0.3063 -0.1535
  561POPI   C1A 8927  18.908   3.539   8.951 -0.2302 -0.3531  0.0908
  561POPI   D2A 8928  18.797   3.230   8.634  0.0358 -0.0799 -0.0617
  561POPI   C3A 8929  18.785   3.186   8.200 -0.0333  0.0118  0.0129
  561POPI   C4A 8930  19.064   3.340   7.975  0.1481 -0.2762 -0.1210
  561POPI   C1B 8931  19.286   3.762   8.786 -0.1474  0.0560 -0.0444
  561POPI   C2B 8932  19.306   4.007   8.347  0.0052 -0.0012 -0.2613
  561POPI   C3B 8933  19.332   4.236   7.955 -0.1498 -0.2548 -0.1608
  561POPI   C4B 8934  19.009   4.348   7.657  0.0823 -0.2453 -0.0315
  562POPI    C1 8935  16.163   3.848   9.653  0.0115  0.0003 -0.0748
  562POPI    C2 8936  16.041   4.048   9.328 -0.1190  0.1761  0.0799
  562POPI    C3 8937  15.968   4.196   9.693  0.1477  0.0490  0.1873
  562POPI   PO4 8938  16.352   3.694   9.471 -0.0386 -0.0368  0.0058
  562POPI   GL1 8939  16.306   3.513   9.111  0.2657 -0.1565  0.0511
  562POPI   GL2 8940  16.076   3.598   9.026 -0.0589  0.0931  0.0471
  562POPI   C1A 8941  16.631   3.503   8.842 -0.3182  0.2503 -0.2054
  562POPI   D2A 8942  16.841   3.812   8.618  0.3058 -0.5816  0.1261
  562POPI   C3A 8943  16.602   4.168   8.451 -0.0317  0.1181  0.1193
  562POPI   C4A 8944  16.470   4.325   8.036 -0.1232  0.1652  0.1321
  562POPI   C1B 8945  16.105   3.322   8.711 -0.1876  0.1910 -0.0086
  562POPI   C2B 8946  15.962   2.848   8.733 -0.0806  0.1779  0.0897
  562POPI   C3B 8947  15.889   2.454   8.459 -0.1899 -0.2112  0.0874
  562POPI   C4B 8948  15.928   2.240   8.062 -0.1926 -0.1888 -0.0357
  563POPI    C1 8949  14.699  11.840  10.317 -0.0668 -0.0275  0.1160
  563POPI    C2 8950  14.957  11.988  10.585 -0.0423  0.0515  0.0492
  563POPI    C3 8951  14.612  12.177  10.515  0.0748  0.1855 -0.1774
  563POPI   PO4 8952  14.901  11.553  10.270 -0.0114  0.1356 -0.1113
  563POPI   GL1 8953  15.073  11.419   9.840  0.0663  0.0632  0.0140
  563POPI   GL2 8954  15.107  11.101   9.887 -0.0138 -0.0597 -0.1404
  563POPI   C1A 8955  15.342  11.643   9.452  0.3027  0.2633 -0.0924
  563POPI   D2A 8956  15.626  11.957   9.384  0.2497  0.1203  0.4755
  563POPI   C3A 8957  15.626  11.917   8.906  0.0953  0.1383 -0.1085
  563POPI   C4A 8958  15.753  11.968   8.464  0.1468 -0.0317 -0.2483
  563POPI   C1B 8959  15.035  10.743   9.576  0.0429  0.1325  0.2234
  563POPI   C2B 8960  14.909  10.722   9.092 -0.1254 -0.1830 -0.1243
  563POPI   C3B 8961  14.847  10.975   8.846  0.0606 -0.0398 -0.0337
  563POPI   C4B 8962  14.720  10.868   8.451 -0.4180 -0.1033  0.0397
  564POPI    C1 8963   0.214   4.227  10.008 -0.1576  0.0938  0.0408
  564POPI    C2 8964  -0.114   4.337  10.209 -0.2606  0.0322 -0.0921
  564POPI    C3 8965   0.231   4.284  10.404 -0.3074  0.1860  0.0350
  564POPI   PO4 8966   0.307   4.401   9.907 -0.1856 -0.0865  0.3628
  564POPI   GL1 8967   0.548   4.380   9.522  0.1714 -0.1072 -0.3907
  564POPI   GL2 8968   0.879   4.426   9.436  0.0682 -0.0733  0.2927
  564POPI   C1A 8969   0.299   4.744   9.237 -0.0919  0.1038  0.0699
  564POPI   D2A 8970   0.248   5.233   9.358  0.0853  0.0843  0.1399
  564POPI   C3A 8971   0.584   5.535   9.146 -0.0574  0.0351 -0.3186
  564POPI   C4A 8972   0.844   5.835   9.071 -0.1429  0.1828 -0.0716
  564POPI   C1B 8973   0.710   4.364   9.033  0.2016 -0.1193  0.2717
  564POPI   C2B 8974   0.428   4.580   8.728  0.1601  0.2590  0.1354
  564POPI   C3B 8975   0.284   4.598   8.329 -0.0455  0.2660 -0.4851
  564POPI   C4B 8976   0.474   4.621   7.843 -0.1529 -0.3582 -0.1354
  565POPI    C1 8977  11.379  15.275  10.283 -0.3692  0.2708  0.0553
  565POPI    C2 8978  11.343  15.179  10.669 -0.0264 -0.0808  0.0059
  565POPI    C3 8979  11.490  15.536  10.565 -0.0937  0.0043  0.1988
  565POPI   PO4 8980  11.070  15.144  10.130 -0.1052  0.3056  0.1926
  565POPI   GL1 8981  10.991  15.078   9.667  0.1614 -0.0462  0.2035
  565POPI   GL2 8982  11.242  14.836   9.519  0.3051 -0.0654  0.0218
  565POPI   C1A 8983  10.747  15.131   9.242  0.1026  0.0099  0.1601
  565POPI   D2A 8984  11.013  15.036   8.868  0.0066 -0.0844 -0.1110
  565POPI   C3A 8985  10.941  14.843   8.335 -0.1129 -0.0172 -0.0788
  565POPI   C4A 8986  10.959  14.773   7.938  0.1534 -0.3425  0.1624
  565POPI   C1B 8987  11.179  14.524   9.244  0.0386  0.3168 -0.1743
  565POPI   C2B 8988  10.970  14.548   8.844 -0.1788  0.0696 -0.2528
  565POPI   C3B 8989  10.799  14.439   8.581 -0.1379 -0.0152 -0.1224
  565POPI   C4B 8990  10.372  14.294   8.412 -0.0626 -0.1292  0.0834
  566POPI    C1 8991  10.149   9.318   9.896  0.3599 -0.0336  0.0749
  566POPI    C2 8992  10.197   9.648  10.116  0.1190  0.0528  0.0018
  566POPI    C3 8993  10.060   9.312  10.286  0.0635  0.0804  0.0120
  566POPI   PO4 8994  10.377   9.329   9.773  0.1006  0.1361 -0.1107
  566POPI   GL1 8995  10.373   9.199   9.323  0.4171 -0.0394 -0.0624
  566POPI   GL2 8996  10.616   9.066   9.326 -0.1811  0.0846 -0.0195
  566POPI   C1A 8997  10.261   9.288   8.888  0.3485  0.2478  0.0935
  566POPI   D2A 8998  10.121   9.372   8.540 -0.3507 -0.0117  0.0892
  566POPI   C3A 8999  10.178   9.522   8.142  0.1216  0.1349 -0.1851
  566POPI   C4A 9000  10.329   9.589   7.786 -0.0785 -0.6320  0.0868
  566POPI   C1B 9001  10.826   9.288   8.954 -0.0353 -0.0044  0.0254
  566POPI   C2B 9002  10.975   9.198   8.524 -0.1924  0.3542  0.1764
  566POPI   C3B 9003  11.116   9.335   8.186  0.1975 -0.0492 -0.2449
  566POPI   C4B 9004  10.964   9.325   7.825  0.1681  0.1937 -0.1018
  567POPI    C1 9005   4.957  17.119   9.708 -0.0803 -0.2249  0.0389
  567POPI    C2 9006   4.961  17.059  10.104  0.2671 -0.1114  0.0556
  567POPI    C3 9007   5.019  17.426   9.956 -0.0058 -0.1277 -0.0992
  567POPI   PO4 9008   5.207  16.919   9.654 -0.0110 -0.0193 -0.3571
  567POPI   GL1 9009   5.233  16.674   9.256 -0.2464 -0.0383  0.0913
  567POPI   GL2 9010   5.106  16.458   9.342  0.0153  0.1442  0.0963
  567POPI   C1A 9011   4.978  16.757   8.977 -0.3872  0.1957  0.3914
  567POPI   D2A 9012   5.138  16.786   8.509 -0.1718  0.1172  0.0543
  567POPI   C3A 9013   5.030  16.540   8.149  0.0726  0.0081  0.3412
  567POPI   C4A 9014   5.229  16.495   7.757 -0.1537  0.1886 -0.2709
  567POPI   C1B 9015   5.339  16.386   8.877  0.0648 -0.0458  0.0321
  567POPI   C2B 9016   5.259  16.041   8.578  0.0926  0.1046  0.0778
  567POPI   C3B 9017   5.245  15.727   8.240 -0.0110 -0.1796 -0.0137
  567POPI   C4B 9018   5.135  15.561   7.692 -0.1025  0.1116 -0.1538
  568POPI    C1 9019  18.548   2.953   9.812 -0.0210  0.1729  0.1745
  568POPI    C2 9020  18.911   2.895   9.654 -0.0646  0.2888  0.0299
  568POPI    C3 9021  18.833   2.769  10.025 -0.0873 -0.3719 -0.1851
  568POPI   PO4 9022  18.475   3.103   9.715 -0.0555 -0.0793 -0.0862
  568POPI   GL1 9023  18.253   3.095   9.328  0.0175  0.1866 -0.0715
  568POPI   GL2 9024  17.927   2.931   9.251  0.1157 -0.0536 -0.0402
  568POPI   C1A 9025  18.557   2.972   9.017  0.3496  0.0352 -0.0319
  568POPI   D2A 9026  18.737   2.622   8.733  0.0741  0.1105  0.2801
  568POPI   C3A 9027  19.125   2.477   8.439  0.2845  0.3641 -0.2470
  568POPI   C4A 9028  19.399   2.276   8.105 -0.0270 -0.0382 -0.3166
  568POPI   C1B 9029  18.129   3.193   8.839  0.3882  0.0578  0.0081
  568POPI   C2B 9030  18.308   2.881   8.570  0.2652 -0.3315 -0.1519
  568POPI   C3B 9031  18.372   2.937   8.082 -0.2608 -0.3380  0.1637
  568POPI   C4B 9032  18.632   3.106   7.723  0.1898  0.0896 -0.0656
  569POPI    C1 9033   3.363   3.334   9.992  0.0442  0.0080  0.0196
  569POPI    C2 9034   3.228   3.130  10.309  0.3753 -0.0102  0.1524
  569POPI    C3 9035   3.033   3.456  10.183  0.0900 -0.1567  0.2071
  569POPI   PO4 9036   3.389   3.128   9.780  0.0575  0.0551 -0.1907
  569POPI   GL1 9037   3.228   2.943   9.344 -0.0637  0.0494 -0.2571
  569POPI   GL2 9038   3.491   2.746   9.433  0.1247 -0.0456  0.2111
  569POPI   C1A 9039   3.517   2.998   8.966  0.0090  0.1265 -0.1348
  569POPI   D2A 9040   3.549   3.058   8.604  0.0810 -0.2145 -0.2181
  569POPI   C3A 9041   3.408   3.095   8.229 -0.3215  0.0194  0.0124
  569POPI   C4A 9042   3.335   2.998   7.807  0.3936  0.2440  0.2307
  569POPI   C1B 9043   3.645   2.472   9.087  0.1525 -0.0411  0.0530
  569POPI   C2B 9044   3.672   2.168   8.678  0.0233 -0.1141  0.0933
  569POPI   C3B 9045   3.618   2.036   8.262 -0.2466  0.3170  0.0461
  569POPI   C4B 9046   3.754   2.145   7.968 -0.0360  0.2673  0.0614
  570POPI    C1 9047  11.326   3.991   9.924 -0.2419  0.0207  0.1775
  570POPI    C2 9048  11.472   4.322  10.094  0.0439 -0.0082 -0.0050
  570POPI    C3 9049  11.471   3.977  10.296 -0.0583  0.0577  0.1083
  570POPI   PO4 9050  11.466   3.909   9.713 -0.2422  0.0409 -0.2558
  570POPI   GL1 9051  11.674   4.059   9.304 -0.0741  0.1053 -0.2019
  570POPI   GL2 9052  11.468   4.026   9.108 -0.0078 -0.2079  0.1302
  570POPI   C1A 9053  11.921   4.257   9.022 -0.0547  0.0864  0.2271
  570POPI   D2A 9054  12.280   4.266   8.751 -0.1236 -0.2669  0.0652
  570POPI   C3A 9055  12.462   4.155   8.365  0.1697 -0.0166  0.0595
  570POPI   C4A 9056  12.408   4.140   7.941 -0.2435 -0.1395 -0.3158
  570POPI   C1B 9057  11.327   3.746   8.857 -0.0649 -0.6381  0.1445
  570POPI   C2B 9058  11.154   3.688   8.504 -0.1738  0.0276 -0.2267
  570POPI   C3B 9059  11.039   3.756   8.119  0.0693 -0.2115  0.0416
  570POPI   C4B 9060  10.825   3.573   7.777 -0.0534  0.3096  0.1066
  571POPI    C1 9061   6.755  14.498  10.147 -0.0359 -0.1419 -0.1688
  571POPI    C2 9062   6.667  14.264  10.460  0.1483  0.1039  0.0716
  571POPI    C3 9063   6.588  14.656  10.474  0.3513  0.1536 -0.1056
  571POPI   PO4 9064   6.667  14.386   9.915  0.0354  0.1422 -0.1591
  571POPI   GL1 9065   6.405  14.280   9.657  0.3827 -0.2231 -0.0488
  571POPI   GL2 9066   6.146  14.472   9.518 -0.2541  0.0445  0.0257
  571POPI   C1A 9067   6.428  14.193   9.190 -0.1829  0.1053  0.3288
  571POPI   D2A 9068   6.309  14.416   8.865  0.4171 -0.1391  0.0555
  571POPI   C3A 9069   5.929  14.740   8.793 -0.0647 -0.0770 -0.0532
  571POPI   C4A 9070   5.713  14.995   8.528  0.1998 -0.0592 -0.0221
  571POPI   C1B 9071   5.867  14.343   9.094 -0.1037 -0.1065 -0.1022
  571POPI   C2B 9072   5.733  14.218   8.711  0.0493 -0.2844 -0.1212
  571POPI   C3B 9073   5.784  14.385   8.328  0.1458 -0.3975  0.2553
  571POPI   C4B 9074   5.820  14.762   8.090 -0.1032 -0.3395 -0.1685
  572POPI    C1 9075   4.386  16.533   9.819 -0.0683 -0.1969  0.0364
  572POPI    C2 9076   4.600  16.854   9.925 -0.0666 -0.1741 -0.0358
  572POPI    C3 9077   4.292  16.736  10.151 -0.2003  0.0051 -0.1224
  572POPI   PO4 9078   4.392  16.455   9.608 -0.1455 -0.0696 -0.2534
  572POPI   GL1 9079   4.321  16.530   9.214 -0.0919  0.1534 -0.1523
  572POPI   GL2 9080   4.181  16.624   8.929 -0.0195 -0.2412 -0.6760
  572POPI   C1A 9081   4.287  16.132   9.061  0.0038  0.1236  0.2034
  572POPI   D2A 9082   4.005  15.811   9.070  0.0791 -0.2537 -0.0063
  572POPI   C3A 9083   3.899  15.571   8.752  0.2624  0.1418 -0.3184
  572POPI   C4A 9084   4.090  15.496   8.435 -0.2111  0.2838  0.2237
  572POPI   C1B 9085   4.419  16.617   8.583  0.1372 -0.2812 -0.2369
  572POPI   C2B 9086   4.520  16.573   8.239 -0.0378  0.1174  0.3563
  572POPI   C3B 9087   4.646  16.571   7.845  0.0955 -0.0082 -0.1334
  572POPI   C4B 9088   4.726  16.482   7.411 -0.2732 -0.4391 -0.0594
  573POPI    C1 9089   7.006   5.657   9.494  0.0957  0.0792 -0.2326
  573POPI    C2 9090   6.865   6.025   9.562  0.2433  0.0748  0.1192
  573POPI    C3 9091   6.755   5.722   9.799 -0.1436 -0.1818 -0.3686
  573POPI   PO4 9092   6.950   5.534   9.230  0.3227 -0.0590  0.2907
  573POPI   GL1 9093   6.758   5.588   8.853  0.1039 -0.4786  0.0688
  573POPI   GL2 9094   7.029   5.230   8.843 -0.0904  0.3388 -0.3389
  573POPI   C1A 9095   6.792   5.484   8.382  0.2735  0.3424  0.2152
  573POPI   D2A 9096   7.036   5.635   8.136 -0.1381 -0.0444 -0.0611
  573POPI   C3A 9097   7.132   5.908   7.846  0.3133  0.2271 -0.2331
  573POPI   C4A 9098   7.382   6.024   7.608  0.1808 -0.1558 -0.1411
  573POPI   C1B 9099   7.244   5.126   8.519  0.0919  0.2085 -0.0088
  573POPI   C2B 9100   7.272   5.115   7.998 -0.1675  0.5660  0.1811
  573POPI   C3B 9101   7.178   5.288   7.573 -0.5697  0.0602 -0.0721
  573POPI   C4B 9102   7.210   5.637   7.240 -0.4727  0.0329  0.2355
  574DPPI    C1 9103   0.033  10.160   9.481  0.2108  0.0447 -0.1343
  574DPPI    C2 9104  -0.030  10.272   9.860 -0.0441 -0.3152 -0.0650
  574DPPI    C3 9105   0.317  10.102   9.756  0.1129 -0.0127 -0.0443
  574DPPI   PO4 9106  -0.196  10.035   9.441 -0.4809 -0.0803  0.1219
  574DPPI   GL1 9107  -0.503  10.011   9.073  0.0337  0.2514  0.1272
  574DPPI   GL2 9108  -0.799   9.941   8.882  0.2330 -0.3480  0.1696
  574DPPI   C1A 9109  -0.361  10.018   8.698 -0.1329  0.1228  0.0853
  574DPPI   C2A 9110  -0.384  10.176   8.267 -0.0790 -0.2888  0.2890
  574DPPI   C3A 9111  -0.511  10.445   7.809 -0.1161 -0.1464  0.1379
  574DPPI   C4A 9112  -0.210  10.790   7.779  0.2845 -0.1351 -0.0505
  574DPPI   C1B 9113  -0.850   9.961   8.417  0.3166  0.1355 -0.0365
  574DPPI   C2B 9114  -0.840  10.036   7.943  0.1067  0.1389  0.3100
  574DPPI   C3B 9115  -0.702   9.839   7.486  0.3256  0.0731 -0.0893
  574DPPI   C4B 9116  -0.612   9.422   7.347  0.2338  0.0719 -0.0544
  575DPPI    C1 9117   4.491  14.913  10.223 -0.0549 -0.0702 -0.0989
  575DPPI    C2 9118   4.574  14.534  10.125  0.0826 -0.0950  0.1078
  575DPPI    C3 9119   4.843  14.753  10.323 -0.0197  0.0930  0.0420
  575DPPI   PO4 9120   4.418  15.052   9.973 -0.0458  0.2336  0.0064
  575DPPI   GL1 9121   4.670  15.091   9.607  0.1968 -0.0363 -0.2844
  575DPPI   GL2 9122   4.867  14.901   9.766 -0.4730 -0.3241 -0.1401
  575DPPI   C1A 9123   4.479  15.142   9.216 -0.0108  0.0917  0.0062
  575DPPI   C2A 9124   4.303  15.423   8.941 -0.1596  0.0804  0.0211
  575DPPI   C3A 9125   4.372  15.767   8.695 -0.3651 -0.0156 -0.0138
  575DPPI   C4A 9126   4.446  16.142   8.473  0.0676 -0.2363 -0.2345
  575DPPI   C1B 9127   5.062  15.134   9.348 -0.0584  0.2324  0.0573
  575DPPI   C2B 9128   4.958  15.311   8.981  0.1235  0.0129 -0.0675
  575DPPI   C3B 9129   4.663  15.214   8.698 -0.0627 -0.1523  0.0502
  575DPPI   C4B 9130   4.569  14.866   8.328 -0.1511 -0.3675  0.0661
  576DPPI    C1 9131   2.226  10.261   9.712 -0.1716  0.0147  0.1524
  576DPPI    C2 9132   2.241  10.160  10.099 -0.0560 -0.1613  0.1033
  576DPPI    C3 9133   2.566  10.119   9.869 -0.0467  0.1932  0.0471
  576DPPI   PO4 9134   2.032  10.254   9.622  0.0692 -0.1702  0.1448
  576DPPI   GL1 9135   1.900  10.403   9.234 -0.2093 -0.3591  0.0562
  576DPPI   GL2 9136   1.724  10.609   9.316  0.5000  0.2739  0.1553
  576DPPI   C1A 9137   1.977  10.046   8.899  0.1803 -0.0484  0.0817
  576DPPI   C2A 9138   1.927  10.169   8.523  0.0116  0.2442  0.0213
  576DPPI   C3A 9139   1.944  10.256   8.083  0.0447  0.1322 -0.4360
  576DPPI   C4A 9140   2.068  10.597   7.802 -0.0524  0.0788 -0.0598
  576DPPI   C1B 9141   1.619  10.528   8.784 -0.0576  0.0555 -0.0560
  576DPPI   C2B 9142   1.655  10.738   8.328  0.0136  0.1209  0.1280
  576DPPI   C3B 9143   1.791  10.979   8.078 -0.2375  0.0974 -0.0815
  576DPPI   C4B 9144   1.581  11.264   7.842 -0.0340  0.0907 -0.0490
  577DPPI    C1 9145   6.055   6.044   9.412 -0.2440  0.0355  0.0850
  577DPPI    C2 9146   6.320   6.006   9.710  0.0490  0.1339 -0.1582
  577DPPI    C3 9147   5.974   5.805   9.723  0.1947 -0.1068  0.0969
  577DPPI   PO4 9148   6.188   6.048   9.219  0.1264 -0.0709  0.1056
  577DPPI   GL1 9149   6.281   5.727   8.883 -0.3683 -0.4065  0.1164
  577DPPI   GL2 9150   6.000   5.634   8.956 -0.3819  0.1685  0.1046
  577DPPI   C1A 9151   6.416   5.815   8.520  0.2455 -0.0890 -0.0222
  577DPPI   C2A 9152   6.372   5.796   8.090  0.0136 -0.2082 -0.0641
  577DPPI   C3A 9153   6.408   6.008   7.629 -0.1175  0.2029  0.0767
  577DPPI   C4A 9154   6.314   6.300   7.203  0.2151  0.2947 -0.0764
  577DPPI   C1B 9155   5.919   5.731   8.585 -0.3530  0.0852 -0.3386
  577DPPI   C2B 9156   5.887   5.887   8.152  0.0411  0.0154  0.1630
  577DPPI   C3B 9157   5.979   5.822   7.803  0.0121  0.0784 -0.4027
  577DPPI   C4B 9158   5.778   5.877   7.360  0.1126  0.1221  0.0133
  578DPPI    C1 9159   5.185   8.190   9.393  0.3006 -0.4496  0.1844
  578DPPI    C2 9160   4.836   8.002   9.447  0.0433 -0.0314  0.0287
  578DPPI    C3 9161   5.048   8.123   9.763 -0.0003 -0.1982  0.1230
  578DPPI   PO4 9162   5.340   8.104   9.230 -0.1487 -0.1251 -0.0287
  578DPPI   GL1 9163   5.363   8.041   8.781 -0.2652  0.3954 -0.0150
  578DPPI   GL2 9164   5.523   8.274   8.784 -0.3275  0.0988  0.2403
  578DPPI   C1A 9165   5.233   8.296   8.418 -0.3211 -0.1629  0.2248
  578DPPI   C2A 9166   5.082   8.680   8.059 -0.2560  0.2092  0.2409
  578DPPI   C3A 9167   4.935   8.722   7.673 -0.3997  0.2527 -0.1950
  578DPPI   C4A 9168   4.671   8.582   7.389 -0.0080 -0.2258  0.1068
  578DPPI   C1B 9169   5.881   8.252   8.462 -0.0482 -0.0234  0.4318
  578DPPI   C2B 9170   5.959   8.022   8.092 -0.0345  0.1570  0.0926
  578DPPI   C3B 9171   5.800   8.104   7.667  0.0974  0.1432  0.1678
  578DPPI   C4B 9172   5.646   8.183   7.385 -0.0362 -0.0583 -0.4988
  579DPPI    C1 9173   6.151  11.643   9.973 -0.0064 -0.1831 -0.0317
  579DPPI    C2 9174   5.783  11.571  10.111  0.0289  0.1363  0.2421
  579DPPI    C3 9175   6.093  11.575  10.363  0.2030  0.0024  0.0338
  579DPPI   PO4 9176   6.117  11.469   9.732 -0.1304 -0.0240 -0.0960
  579DPPI   GL1 9177   6.117  11.682   9.350  0.3347 -0.0627 -0.1581
  579DPPI   GL2 9178   5.903  11.490   9.286 -0.1329 -0.1340  0.1699
  579DPPI   C1A 9179   6.128  11.646   8.914 -0.1102  0.1491 -0.0574
  579DPPI   C2A 9180   6.173  11.551   8.467 -0.0976 -0.3344  0.1158
  579DPPI   C3A 9181   6.160  11.566   7.965 -0.2751 -0.5473  0.1839
  579DPPI   C4A 9182   6.415  11.687   7.527 -0.0897  0.2399  0.2007
  579DPPI   C1B 9183   5.651  11.470   8.897  0.1272 -0.0347  0.1603
  579DPPI   C2B 9184   5.642  11.553   8.458 -0.1466  0.0586 -0.4253
  579DPPI   C3B 9185   5.690  11.342   8.119  0.3309  0.0577  0.1230
  579DPPI   C4B 9186   5.750  11.124   7.669  0.3998 -0.2377 -0.0141
  580DPPI    C1 9187   3.207  13.673  10.095 -0.0007 -0.3520  0.0475
  580DPPI    C2 9188   3.221  13.487  10.448 -0.0687 -0.1446  0.1611
  580DPPI    C3 9189   3.491  13.768  10.360  0.1446 -0.4194 -0.0822
  580DPPI   PO4 9190   3.142  13.414   9.924 -0.1877  0.0992 -0.0309
  580DPPI   GL1 9191   3.095  13.379   9.486 -0.0785  0.1736  0.1625
  580DPPI   GL2 9192   2.920  13.106   9.317 -0.0914 -0.0578 -0.3536
  580DPPI   C1A 9193   3.181  13.784   9.142 -0.1954  0.3618 -0.0204
  580DPPI   C2A 9194   3.213  13.907   8.718 -0.0851 -0.3041  0.1617
  580DPPI   C3A 9195   3.082  13.915   8.369  0.1721  0.0032 -0.1755
  580DPPI   C4A 9196   2.954  14.034   7.981  0.1366 -0.2711  0.0875
  580DPPI   C1B 9197   3.196  13.341   8.995  0.0917 -0.2338  0.0213
  580DPPI   C2B 9198   3.182  13.407   8.556 -0.1925  0.0141  0.2253
  580DPPI   C3B 9199   3.319  13.300   8.207  0.0396  0.3392 -0.1144
  580DPPI   C4B 9200   3.715  13.335   7.870 -0.1483 -0.0925 -0.0348
  581DPPI    C1 9201   5.453   2.993  10.235 -0.2002 -0.1842  0.0395
  581DPPI    C2 9202   5.456   3.368  10.374  0.2283 -0.1838  0.0404
  581DPPI    C3 9203   5.110   3.170  10.343  0.0378  0.0848  0.3767
  581DPPI   PO4 9204   5.663   3.003  10.001 -0.1130 -0.0857  0.2593
  581DPPI   GL1 9205   5.623   3.101   9.586 -0.1291  0.1494  0.1412
  581DPPI   GL2 9206   5.816   3.091   9.326 -0.4086 -0.1767 -0.0356
  581DPPI   C1A 9207   5.375   3.298   9.217 -0.0591 -0.0685 -0.1043
  581DPPI   C2A 9208   5.342   3.353   8.718  0.1664  0.1802  0.0225
  581DPPI   C3A 9209   5.206   3.614   8.273  0.3865  0.0915 -0.1630
  581DPPI   C4A 9210   5.142   3.834   7.865 -0.0576  0.1816 -0.2246
  581DPPI   C1B 9211   5.765   3.133   8.896  0.1455  0.2342 -0.1794
  581DPPI   C2B 9212   5.726   3.182   8.414  0.3018 -0.1958  0.0969
  581DPPI   C3B 9213   5.765   3.105   7.941  0.0035  0.0499 -0.0155
  581DPPI   C4B 9214   5.684   3.052   7.576 -0.1625  0.2280  0.3643
  582DPPI    C1 9215   8.856  16.528   9.688 -0.2110 -0.0383  0.0677
  582DPPI    C2 9216   9.005  16.467   9.322 -0.0554  0.2557  0.0793
  582DPPI    C3 9217   8.971  16.161   9.577  0.0395  0.0891 -0.1050
  582DPPI   PO4 9218   8.610  16.707   9.550  0.1720 -0.4408  0.2483
  582DPPI   GL1 9219   8.602  16.736   9.068  0.0370  0.1613  0.2389
  582DPPI   GL2 9220   8.885  16.835   8.975  0.3639 -0.0873 -0.1655
  582DPPI   C1A 9221   8.652  16.424   8.773 -0.0226 -0.0047  0.3237
  582DPPI   C2A 9222   8.753  16.204   8.423  0.1995  0.0391 -0.1330
  582DPPI   C3A 9223   8.794  15.866   8.277  0.1757  0.1193  0.0988
  582DPPI   C4A 9224   8.928  15.569   7.958 -0.2778 -0.2977 -0.1216
  582DPPI   C1B 9225   8.821  17.036   8.610  0.2059 -0.0754 -0.0825
  582DPPI   C2B 9226   9.043  17.242   8.278 -0.1181 -0.1147  0.2038
  582DPPI   C3B 9227   8.977  17.284   7.839  0.0150  0.1860 -0.2629
  582DPPI   C4B 9228   8.795  16.913   7.754  0.2166  0.0095  0.0010
  583DPPI    C1 9229   6.003   6.567   9.345 -0.1016 -0.1009  0.0453
  583DPPI    C2 9230   5.915   6.753   9.689 -0.1263  0.1047 -0.0706
  583DPPI    C3 9231   6.190   6.463   9.683 -0.3476 -0.1153  0.1790
  583DPPI   PO4 9232   5.804   6.431   9.257 -0.0365  0.1711 -0.0432
  583DPPI   GL1 9233   5.660   6.109   8.979 -0.0491 -0.0390  0.2267
  583DPPI   GL2 9234   5.389   5.821   8.818 -0.0829 -0.1293 -0.2703
  583DPPI   C1A 9235   5.675   6.230   8.573 -0.3008  0.4817  0.1845
  583DPPI   C2A 9236   5.620   6.378   8.211  0.0339  0.0294  0.1339
  583DPPI   C3A 9237   5.731   6.238   7.867 -0.0963  0.0064  0.1109
  583DPPI   C4A 9238   5.934   6.282   7.603  0.0791 -0.4283  0.1299
  583DPPI   C1B 9239   5.491   5.725   8.354  0.1191 -0.0591 -0.0950
  583DPPI   C2B 9240   5.486   5.772   7.829  0.1950  0.1467  0.2899
  583DPPI   C3B 9241   5.288   5.778   7.497 -0.0635 -0.2203 -0.1132
  583DPPI   C4B 9242   5.028   6.037   7.253 -0.0212  0.0656 -0.1207
  584DPPI    C1 9243   0.564   2.816   9.823 -0.2227  0.0538 -0.1240
  584DPPI    C2 9244   0.562   3.153  10.039 -0.0453  0.0521 -0.1184
  584DPPI    C3 9245   0.908   2.970   9.956 -0.1291 -0.0544 -0.2382
  584DPPI   PO4 9246   0.504   2.740   9.580  0.0705 -0.1304 -0.1968
  584DPPI   GL1 9247   0.249   2.890   9.161  0.1964 -0.1950 -0.0064
  584DPPI   GL2 9248   0.021   2.972   9.395 -0.2524 -0.2159  0.1630
  584DPPI   C1A 9249   0.229   3.268   8.788  0.0082 -0.1155 -0.1704
  584DPPI   C2A 9250   0.068   3.438   8.428  0.0418 -0.0763 -0.0894
  584DPPI   C3A 9251   0.317   3.624   8.092  0.1223 -0.3707  0.1558
  584DPPI   C4A 9252   0.789   3.641   8.093 -0.1097 -0.3010  0.3909
  584DPPI   C1B 9253  -0.162   3.018   8.959 -0.1626  0.2921 -0.5168
  584DPPI   C2B 9254  -0.039   2.969   8.554  0.3037  0.0255  0.1178
  584DPPI   C3B 9255  -0.188   2.780   8.066 -0.3280 -0.0053 -0.1784
  584DPPI   C4B 9256  -0.273   2.706   7.633  0.2784  0.3774  0.2098
  585DPPI    C1 9257  12.814   8.931   9.681  0.1944 -0.0886 -0.1564
  585DPPI    C2 9258  12.805   8.536   9.747  0.0497 -0.0458  0.0897
  585DPPI    C3 9259  12.693   8.791  10.035  0.1027  0.1746 -0.0814
  585DPPI   PO4 9260  12.880   8.916   9.430 -0.1607 -0.0107 -0.2185
  585DPPI   GL1 9261  12.992   8.805   9.055  0.0176 -0.1973  0.3868
  585DPPI   GL2 9262  13.163   9.173   9.088 -0.4477  0.2069 -0.2036
  585DPPI   C1A 9263  13.005   8.885   8.600 -0.1074  0.1454 -0.1148
  585DPPI   C2A 9264  12.929   8.689   8.159  0.1981 -0.0282 -0.1144
  585DPPI   C3A 9265  12.858   8.506   7.714  0.1714  0.2237 -0.1983
  585DPPI   C4A 9266  12.946   8.433   7.272 -0.3603  0.1244 -0.2474
  585DPPI   C1B 9267  13.388   9.243   8.770 -0.1294 -0.0261 -0.0482
  585DPPI   C2B 9268  13.267   9.331   8.299 -0.2202  0.0491  0.0411
  585DPPI   C3B 9269  13.284   9.276   7.887  0.0065 -0.0776 -0.2560
  585DPPI   C4B 9270  13.262   8.872   7.614 -0.2937  0.0075  0.1369
  586DPPI    C1 9271  18.650  16.143  10.654 -0.2108 -0.1886 -0.0587
  586DPPI    C2 9272  18.695  15.789  10.473  0.1891 -0.2417  0.1339
  586DPPI    C3 9273  18.868  15.856  10.828  0.0244  0.1108  0.1521
  586DPPI   PO4 9274  18.617  16.254  10.469 -0.1734  0.1562 -0.0872
  586DPPI   GL1 9275  18.312  16.086  10.163 -0.0635  0.2340 -0.1682
  586DPPI   GL2 9276  17.895  16.195  10.157 -0.1035 -0.0872 -0.2934
  586DPPI   C1A 9277  18.353  16.493   9.922 -0.0375  0.1247 -0.1629
  586DPPI   C2A 9278  18.460  16.370   9.553  0.0299  0.2545 -0.1961
  586DPPI   C3A 9279  18.502  16.537   9.106  0.0324  0.0204 -0.1109
  586DPPI   C4A 9280  18.738  16.613   8.776 -0.1430 -0.1909  0.1765
  586DPPI   C1B 9281  17.915  16.239   9.699  0.1780 -0.3020  0.0474
  586DPPI   C2B 9282  17.914  16.388   9.251  0.0769 -0.0674  0.4314
  586DPPI   C3B 9283  18.071  16.656   8.993  0.0607 -0.0194  0.0427
  586DPPI   C4B 9284  18.198  16.757   8.569  0.1461 -0.1302  0.2089
  587DPPI    C1 9285  11.394   7.452   9.679  0.0353 -0.1654 -0.0073
  587DPPI    C2 9286  11.551   7.347  10.032  0.1749 -0.0690 -0.0396
  587DPPI    C3 9287  11.352   7.692   9.996 -0.0682 -0.2018  0.0068
  587DPPI   PO4 9288  11.382   7.242   9.562  0.1210  0.2747 -0.0589
  587DPPI   GL1 9289  11.501   7.020   9.309  0.1990 -0.0130  0.1174
  587DPPI   GL2 9290  11.699   7.135   9.134 -0.1285 -0.0778 -0.3621
  587DPPI   C1A 9291  11.457   6.811   8.880  0.1520  0.3786  0.0399
  587DPPI   C2A 9292  11.617   6.800   8.528  0.3678  0.0586 -0.1816
  587DPPI   C3A 9293  11.537   6.613   8.031 -0.0518  0.0196  0.1743
  587DPPI   C4A 9294  11.739   6.406   7.684 -0.4776  0.2063 -0.4313
  587DPPI   C1B 9295  11.672   7.431   8.783 -0.1927  0.2460 -0.2586
  587DPPI   C2B 9296  11.507   7.767   8.769  0.3019 -0.0058  0.4517
  587DPPI   C3B 9297  11.494   7.853   8.430 -0.2579 -0.3272  0.1108
  587DPPI   C4B 9298  11.517   7.879   8.036  0.1757 -0.0634 -0.0412
  588DPPI    C1 9299  11.189  13.556  10.393 -0.0012 -0.0669 -0.1989
  588DPPI    C2 9300  10.991  13.213  10.449  0.1402 -0.1127  0.0365
  588DPPI    C3 9301  11.314  13.221  10.213  0.0789 -0.1198 -0.0479
  588DPPI   PO4 9302  10.973  13.734  10.391  0.0346 -0.1829 -0.0492
  588DPPI   GL1 9303  10.859  13.792   9.950 -0.0281 -0.1092 -0.2291
  588DPPI   GL2 9304  11.282  13.717   9.884  0.1841 -0.0931  0.0554
  588DPPI   C1A 9305  10.923  13.587   9.513 -0.1927  0.0132  0.1580
  588DPPI   C2A 9306  10.992  13.531   9.154  0.2887 -0.1931  0.2395
  588DPPI   C3A 9307  10.972  13.431   8.839 -0.0444  0.2524 -0.1336
  588DPPI   C4A 9308  11.146  13.419   8.384 -0.0443  0.2362  0.1371
  588DPPI   C1B 9309  11.552  13.616   9.565 -0.2835 -0.0755 -0.2148
  588DPPI   C2B 9310  11.702  13.743   9.211  0.1552 -0.1417 -0.1553
  588DPPI   C3B 9311  11.913  13.950   8.878 -0.2858 -0.0422  0.0242
  588DPPI   C4B 9312  12.073  13.744   8.487  0.2351  0.1644 -0.2924
  589DPPI    C1 9313   9.733  13.108  10.043 -0.1901  0.1716 -0.0599
  589DPPI    C2 9314   9.628  12.902  10.370 -0.1899 -0.0988 -0.2273
  589DPPI    C3 9315  10.008  12.897  10.243 -0.1739  0.0696 -0.1888
  589DPPI   PO4 9316   9.613  13.027   9.853 -0.0027  0.1194 -0.2769
  589DPPI   GL1 9317   9.918  12.817   9.592  0.2011 -0.3313 -0.0288
  589DPPI   GL2 9318  10.150  12.672   9.798  0.3746  0.3944  0.0199
  589DPPI   C1A 9319   9.861  12.715   9.143  0.1797 -0.1805  0.1943
  589DPPI   C2A 9320   9.875  12.634   8.670  0.1116  0.1322  0.0396
  589DPPI   C3A 9321  10.119  12.590   8.283  0.0168  0.2263 -0.2325
  589DPPI   C4A 9322  10.323  12.331   7.904  0.0139 -0.0968  0.1053
  589DPPI   C1B 9323  10.320  12.665   9.400  0.0524  0.1192  0.2525
  589DPPI   C2B 9324  10.625  12.553   9.163  0.0461  0.1700  0.0602
  589DPPI   C3B 9325  11.032  12.534   8.940 -0.2958 -0.1836  0.2450
  589DPPI   C4B 9326  11.299  12.131   8.738 -0.1538 -0.3564 -0.1031
  590DPPI    C1 9327   7.348   3.728   9.423  0.0581 -0.0318 -0.2505
  590DPPI    C2 9328   7.613   3.516   9.635 -0.3482 -0.1058  0.2004
  590DPPI    C3 9329   7.425   3.348   9.324 -0.1694 -0.1837  0.1328
  590DPPI   PO4 9330   7.341   3.917   9.396 -0.2678 -0.2247  0.0173
  590DPPI   GL1 9331   7.127   4.024   9.016  0.0757 -0.0180 -0.2210
  590DPPI   GL2 9332   7.340   4.265   8.744  0.0879 -0.1828  0.2606
  590DPPI   C1A 9333   7.099   3.745   8.662 -0.2257  0.0631 -0.6572
  590DPPI   C2A 9334   6.967   3.701   8.248 -0.2687 -0.0710 -0.3213
  590DPPI   C3A 9335   7.042   3.736   7.717  0.2596 -0.0813  0.0710
  590DPPI   C4A 9336   7.387   3.818   7.303  0.3069 -0.3407 -0.1113
  590DPPI   C1B 9337   7.364   4.636   8.409  0.1026 -0.0393 -0.1220
  590DPPI   C2B 9338   7.726   4.864   8.192 -0.0140 -0.0186 -0.0563
  590DPPI   C3B 9339   7.889   4.929   7.844  0.0043  0.1121  0.2062
  590DPPI   C4B 9340   7.823   5.129   7.382 -0.0441 -0.0248  0.0857
  591DPPI    C1 9341   6.889  10.277   9.501 -0.2508  0.0213  0.0602
  591DPPI    C2 9342   6.953  10.194   9.887  0.0309  0.1481  0.0439
  591DPPI    C3 9343   7.188  10.457   9.698 -0.2674  0.2830 -0.1472
  591DPPI   PO4 9344   6.698  10.061   9.400  0.0362  0.1212 -0.4129
  591DPPI   GL1 9345   6.641  10.059   9.003  0.1166 -0.3027  0.1102
  591DPPI   GL2 9346   6.677   9.711   9.062 -0.1175  0.2164  0.3921
  591DPPI   C1A 9347   6.594  10.139   8.530  0.1350 -0.0337 -0.0005
  591DPPI   C2A 9348   6.441  10.073   8.167 -0.4879  0.0833 -0.0688
  591DPPI   C3A 9349   6.356   9.875   7.742  0.0119 -0.2711 -0.1649
  591DPPI   C4A 9350   6.336   9.737   7.311 -0.1786  0.1562  0.3215
  591DPPI   C1B 9351   6.666   9.323   8.762 -0.2018  0.0738  0.0540
  591DPPI   C2B 9352   6.503   9.292   8.466  0.1038 -0.1017 -0.2302
  591DPPI   C3B 9353   6.509   9.073   8.081 -0.0879 -0.4202 -0.1445
  591DPPI   C4B 9354   6.352   8.890   7.776  0.0256  0.1168 -0.1377
  592DPPI    C1 9355  14.910   4.449   9.897  0.2173 -0.1422 -0.1251
  592DPPI    C2 9356  14.976   4.153  10.157 -0.1461 -0.1718 -0.0608
  592DPPI    C3 9357  15.285   4.339   9.983  0.0892 -0.4848  0.0121
  592DPPI   PO4 9358  14.632   4.326   9.729 -0.0041 -0.4313 -0.0626
  592DPPI   GL1 9359  14.160   4.454   9.617 -0.1581  0.2713 -0.1421
  592DPPI   GL2 9360  14.037   4.124   9.638  0.4469  0.1270  0.1179
  592DPPI   C1A 9361  14.251   4.571   9.157  0.1731 -0.1510  0.1876
  592DPPI   C2A 9362  14.143   4.597   8.705 -0.1188 -0.0590 -0.0472
  592DPPI   C3A 9363  13.832   4.401   8.308 -0.2205  0.0530 -0.1887
  592DPPI   C4A 9364  13.573   4.436   7.953 -0.1388 -0.1672 -0.0346
  592DPPI   C1B 9365  14.032   4.151   9.195  0.0073 -0.2401  0.1595
  592DPPI   C2B 9366  13.965   4.042   8.797 -0.3552 -0.2404  0.0018
  592DPPI   C3B 9367  14.080   3.926   8.337  0.0065 -0.0815 -0.0361
  592DPPI   C4B 9368  14.195   4.101   7.875 -0.1395  0.2081  0.1171
  593DPPI    C1 9369  14.504   0.679   9.555  0.1224 -0.1537  0.0823
  593DPPI    C2 9370  14.456   1.013   9.769 -0.2390 -0.3040  0.2451
  593DPPI    C3 9371  14.502   0.662   9.954  0.2045 -0.3421  0.0759
  593DPPI   PO4 9372  14.243   0.718   9.371  0.3011 -0.3969 -0.1372
  593DPPI   GL1 9373  13.952   0.664   9.003  0.2868 -0.2881 -0.0533
  593DPPI   GL2 9374  14.315   0.548   8.904  0.1503  0.0322 -0.2894
  593DPPI   C1A 9375  13.950   0.732   8.434 -0.0523  0.1492  0.0950
  593DPPI   C2A 9376  13.827   0.842   8.092  0.2125 -0.0901 -0.1379
  593DPPI   C3A 9377  13.794   0.784   7.650 -0.0319 -0.2225 -0.0863
  593DPPI   C4A 9378  13.925   0.565   7.310  0.0127  0.0050  0.0484
  593DPPI   C1B 9379  14.274   0.353   8.481 -0.2393  0.5827 -0.2372
  593DPPI   C2B 9380  14.227   0.547   8.049  0.0642 -0.1949 -0.0550
  593DPPI   C3B 9381  14.242   0.481   7.638  0.1183  0.1462  0.2044
  593DPPI   C4B 9382  14.537   0.433   7.312  0.3762  0.1456  0.2928
  594PYPI    C1 9383   8.616  13.051   9.707 -0.0935  0.0352 -0.0097
  594PYPI    C2 9384   8.457  13.306   9.971  0.0023 -0.2546  0.3361
  594PYPI    C3 9385   8.755  13.063  10.082  0.2636 -0.1601 -0.1309
  594PYPI   PO4 9386   8.625  13.151   9.457 -0.1066  0.0174  0.0484
  594PYPI   GL1 9387   8.954  13.319   9.157  0.0447  0.2504 -0.0838
  594PYPI   GL2 9388   8.710  13.556   9.122  0.2297  0.0556 -0.5916
  594PYPI   C1A 9389   9.095  13.277   8.756 -0.0044  0.0295  0.1086
  594PYPI   C2A 9390   9.122  13.271   8.314 -0.1579 -0.0258 -0.1603
  594PYPI   D3A 9391   9.045  13.178   7.907 -0.0605  0.0472  0.1005
  594PYPI   C4A 9392   9.143  12.721   7.867 -0.1135 -0.1577  0.0034
  594PYPI   C1B 9393   8.535  13.292   8.759 -0.1146 -0.0081 -0.3635
  594PYPI   C2B 9394   8.632  13.057   8.422  0.1006 -0.3835 -0.0151
  594PYPI   C3B 9395   8.618  12.798   7.972  0.0250 -0.2944  0.3191
  594PYPI   C4B 9396   8.603  12.792   7.481 -0.3007  0.0442 -0.0880
  595PYPI    C1 9397   0.069  11.687  10.360 -0.1647 -0.1158  0.0231
  595PYPI    C2 9398  -0.312  11.594  10.278 -0.1412 -0.0207 -0.2028
  595PYPI    C3 9399  -0.228  11.909  10.510 -0.2018 -0.1114 -0.0564
  595PYPI   PO4 9400   0.189  11.637  10.107 -0.1298  0.1704 -0.0245
  595PYPI   GL1 9401   0.421  11.839   9.931  0.0388 -0.2217  0.0109
  595PYPI   GL2 9402   0.302  11.567   9.643  0.0681 -0.1043 -0.2368
  595PYPI   C1A 9403   0.468  12.028   9.413  0.3876 -0.0002 -0.0923
  595PYPI   C2A 9404   0.326  11.943   9.054 -0.0272  0.0755  0.2402
  595PYPI   D3A 9405   0.143  12.066   8.630 -0.0932  0.0245 -0.0144
  595PYPI   C4A 9406   0.230  12.480   8.422 -0.0159  0.0083  0.0084
  595PYPI   C1B 9407   0.129  11.636   9.332 -0.1031 -0.0686  0.1098
  595PYPI   C2B 9408   0.055  11.509   8.930 -0.2605  0.1535 -0.1464
  595PYPI   C3B 9409  -0.282  11.667   8.727  0.0858 -0.0850 -0.0255
  595PYPI   C4B 9410  -0.413  11.874   8.377  0.1912  0.1715  0.1605
  596PYPI    C1 9411  13.055  14.344  10.231 -0.2575 -0.0152 -0.2684
  596PYPI    C2 9412  12.758  14.604  10.295 -0.1994 -0.0015 -0.0439
  596PYPI    C3 9413  12.802  14.288  10.536  0.2135  0.2190  0.1823
  596PYPI   PO4 9414  13.056  14.212  10.004 -0.4724 -0.0733 -0.0949
  596PYPI   GL1 9415  13.016  14.129   9.603 -0.0217  0.1223 -0.1906
  596PYPI   GL2 9416  12.947  13.790   9.686  0.3015  0.2746 -0.2907
  596PYPI   C1A 9417  12.928  14.205   9.162 -0.1775 -0.1867 -0.1550
  596PYPI   C2A 9418  12.795  14.485   8.915 -0.0393  0.1826  0.4414
  596PYPI   D3A 9419  12.473  14.690   8.625 -0.0074 -0.0751  0.1209
  596PYPI   C4A 9420  12.359  15.062   8.441 -0.0526  0.2613  0.2199
  596PYPI   C1B 9421  12.778  13.715   9.247  0.1773 -0.2690  0.1448
  596PYPI   C2B 9422  12.925  13.356   8.966 -0.2282  0.0408  0.1721
  596PYPI   C3B 9423  12.890  13.184   8.547  0.0994 -0.0123  0.0114
  596PYPI   C4B 9424  12.739  13.169   8.194  0.1444 -0.3759 -0.3691
  597PYPI    C1 9425   5.639  12.970  10.140  0.2276  0.1784 -0.1224
  597PYPI    C2 9426   5.717  13.250  10.415 -0.0658  0.1633 -0.0205
  597PYPI    C3 9427   5.787  12.864  10.496 -0.1044  0.1636  0.0146
  597PYPI   PO4 9428   5.712  13.076   9.899 -0.3688 -0.1048  0.0193
  597PYPI   GL1 9429   5.537  13.001   9.454 -0.2148  0.2148 -0.0067
  597PYPI   GL2 9430   5.895  12.893   9.522 -0.1768  0.2300 -0.3172
  597PYPI   C1A 9431   5.862  13.055   9.012  0.0421  0.0555 -0.1641
  597PYPI   C2A 9432   5.907  13.128   8.498 -0.1305 -0.2214 -0.1650
  597PYPI   D3A 9433   5.779  12.978   8.032  0.3485  0.1582  0.0827
  597PYPI   C4A 9434   6.080  12.926   7.669  0.1120 -0.1026  0.0372
  597PYPI   C1B 9435   6.249  12.823   9.189 -0.0850 -0.1879  0.1047
  597PYPI   C2B 9436   6.147  12.745   8.739  0.2845 -0.1489 -0.1883
  597PYPI   C3B 9437   6.031  12.695   8.304 -0.0511  0.1764  0.1515
  597PYPI   C4B 9438   5.843  12.407   8.024  0.0991 -0.1621 -0.0207
  598PYPI    C1 9439  12.986  12.857   9.915 -0.1297  0.2526 -0.1028
  598PYPI    C2 9440  12.856  12.546  10.131 -0.0729  0.2184 -0.1178
  598PYPI    C3 9441  12.815  12.918  10.271 -0.1092  0.2016 -0.0840
  598PYPI   PO4 9442  13.209  12.727   9.836 -0.2213  0.0435  0.1367
  598PYPI   GL1 9443  13.435  12.896   9.540 -0.3962  0.2932 -0.0480
  598PYPI   GL2 9444  13.632  12.658   9.499 -0.2056  0.0286 -0.0255
  598PYPI   C1A 9445  13.270  12.899   9.117  0.0036  0.1414 -0.0497
  598PYPI   C2A 9446  13.259  12.703   8.758 -0.1712  0.2898  0.1055
  598PYPI   D3A 9447  13.132  12.528   8.388 -0.0708  0.0320 -0.0639
  598PYPI   C4A 9448  13.080  12.638   8.111 -0.0711  0.0060  0.4777
  598PYPI   C1B 9449  13.573  12.440   9.029  0.2157  0.0632 -0.1963
  598PYPI   C2B 9450  13.615  12.452   8.597 -0.2863  0.1791 -0.2480
  598PYPI   C3B 9451  13.598  12.547   8.196 -0.3319  0.3647 -0.3482
  598PYPI   C4B 9452  13.528  12.525   7.762 -0.2662  0.0645  0.0115
  599PYPI    C1 9453  10.937  11.318   9.956  0.3064  0.0167  0.3130
  599PYPI    C2 9454  10.676  11.574   9.794  0.1286 -0.1317  0.3626
  599PYPI    C3 9455  10.827  11.645  10.158  0.2198 -0.0043  0.3002
  599PYPI   PO4 9456  10.816  11.066   9.824 -0.0394  0.0137  0.1115
  599PYPI   GL1 9457  10.828  10.938   9.405  0.0062  0.1415  0.1043
  599PYPI   GL2 9458  10.578  10.587   9.325  0.2189  0.0816  0.1984
  599PYPI   C1A 9459  10.878  10.987   9.046  0.1031  0.0823 -0.1306
  599PYPI   C2A 9460  10.646  11.105   8.715  0.1462  0.0151  0.2750
  599PYPI   D3A 9461  10.130  11.154   8.556 -0.3019 -0.0701 -0.1643
  599PYPI   C4A 9462  10.058  11.023   8.169  0.0759 -0.0121  0.0835
  599PYPI   C1B 9463  10.733  10.529   8.928  0.0747 -0.2964  0.2443
  599PYPI   C2B 9464  10.860  10.662   8.492  0.3797  0.1827  0.1928
  599PYPI   C3B 9465  10.998  10.687   8.142 -0.1581  0.0798 -0.0707
  599PYPI   C4B 9466  10.902  10.946   7.804  0.1445 -0.2347  0.0923
  600PYPI    C1 9467  11.434   0.235   9.864  0.0471 -0.0243  0.0603
  600PYPI    C2 9468  11.070   0.363   9.760  0.0190 -0.1419  0.0124
  600PYPI    C3 9469  11.161   0.313  10.146 -0.0078 -0.0903  0.0256
  600PYPI   PO4 9470  11.458   0.036   9.734 -0.1856  0.0426 -0.0005
  600PYPI   GL1 9471  11.390   0.081   9.276 -0.2533 -0.0169  0.0075
  600PYPI   GL2 9472  11.168   0.177   9.143  0.2386  0.0280 -0.0425
  600PYPI   C1A 9473  11.801   0.001   9.145 -0.0415  0.1545 -0.3044
  600PYPI   C2A 9474  12.011  -0.004   8.687  0.1290 -0.1999 -0.2617
  600PYPI   D3A 9475  12.171   0.134   8.286 -0.1152 -0.0374 -0.1443
  600PYPI   C4A 9476  12.104   0.411   7.984 -0.4244  0.1055 -0.1120
  600PYPI   C1B 9477  11.228   0.283   8.706  0.0978  0.1688 -0.3812
  600PYPI   C2B 9478  11.208   0.292   8.362 -0.1469 -0.4759  0.2968
  600PYPI   C3B 9479  11.417   0.113   8.016  0.1160  0.2731 -0.2004
  600PYPI   C4B 9480  11.429  -0.066   7.580  0.4378  0.3215 -0.3662
  601PYPI    C1 9481  12.490   0.879  10.143 -0.1136 -0.0062  0.0359
  601PYPI    C2 9482  12.371   1.247  10.246 -0.0046  0.0835 -0.1518
  601PYPI    C3 9483  12.418   0.965  10.527 -0.0969  0.2097 -0.0080
  601PYPI   PO4 9484  12.631   0.913   9.815  0.1818  0.4630 -0.2872
  601PYPI   GL1 9485  12.442   1.215   9.442  0.2829 -0.2265 -0.0746
  601PYPI   GL2 9486  12.849   1.174   9.489 -0.2258  0.0790 -0.0587
  601PYPI   C1A 9487  12.270   1.057   9.061  0.0451 -0.0198  0.0088
  601PYPI   C2A 9488  12.511   0.972   8.674  0.1274 -0.2134  0.1682
  601PYPI   D3A 9489  12.864   1.124   8.446  0.1953  0.1750  0.2032
  601PYPI   C4A 9490  12.909   0.999   7.980  0.2499 -0.2602  0.1621
  601PYPI   C1B 9491  12.738   1.352   9.116  0.3378 -0.2134  0.0390
  601PYPI   C2B 9492  12.700   1.464   8.761  0.1458  0.0227 -0.2909
  601PYPI   C3B 9493  12.522   1.500   8.344  0.0969  0.0636  0.0163
  601PYPI   C4B 9494  12.255   1.530   7.960 -0.0446  0.0856 -0.0386
  602PYPI    C1 9495  16.611   2.265   9.755 -0.3061 -0.3553  0.1132
  602PYPI    C2 9496  16.415   2.572   9.589 -0.0467 -0.3495 -0.1920
  602PYPI    C3 9497  16.479   2.566   9.984 -0.1510 -0.0671 -0.1681
  602PYPI   PO4 9498  16.730   2.128   9.532  0.0314  0.0794  0.0838
  602PYPI   GL1 9499  16.539   1.894   9.161 -0.1394 -0.1972  0.0238
  602PYPI   GL2 9500  16.268   1.650   9.198 -0.1520  0.0387  0.0529
  602PYPI   C1A 9501  16.588   1.838   8.655  0.4960  0.1991 -0.1865
  602PYPI   C2A 9502  16.811   2.029   8.285  0.1571  0.0864  0.0651
  602PYPI   D3A 9503  16.820   1.865   7.853 -0.2410  0.4191  0.1002
  602PYPI   C4A 9504  17.215   1.974   7.697 -0.2487 -0.2656 -0.0439
  602PYPI   C1B 9505  16.144   1.598   8.841 -0.2755  0.1464  0.1018
  602PYPI   C2B 9506  15.988   1.505   8.409  0.1951  0.3058  0.3812
  602PYPI   C3B 9507  15.693   1.782   8.198 -0.0188 -0.2079 -0.1522
  602PYPI   C4B 9508  15.720   1.930   7.727  0.0841  0.0743  0.1306
  603PYPI    C1 9509  16.498  17.421  10.420  0.1682 -0.1853  0.0578
  603PYPI    C2 9510  16.666  17.646  10.705  0.0066 -0.0624  0.0570
  603PYPI    C3 9511  16.732  17.252  10.697  0.0436 -0.0608  0.2414
  603PYPI   PO4 9512  16.661  17.455  10.130  0.1399 -0.0686 -0.0484
  603PYPI   GL1 9513  16.646  17.308   9.699 -0.1829 -0.2442  0.0214
  603PYPI   GL2 9514  16.499  17.319   9.459  0.0517 -0.1534 -0.1141
  603PYPI   C1A 9515  17.061  17.303   9.537 -0.0570 -0.1932  0.4280
  603PYPI   C2A 9516  17.240  17.369   9.102 -0.0403 -0.2436  0.1484
  603PYPI   D3A 9517  17.433  17.406   8.611 -0.2715  0.1688  0.1510
  603PYPI   C4A 9518  17.840  17.659   8.380 -0.1455 -0.0369  0.2715
  603PYPI   C1B 9519  16.715  17.106   9.077 -0.2885  0.0506  0.1139
  603PYPI   C2B 9520  16.975  17.313   8.685  0.2720 -0.2181 -0.1246
  603PYPI   C3B 9521  17.117  17.467   8.273 -0.1168  0.0224 -0.1409
  603PYPI   C4B 9522  17.430  17.659   8.043 -0.2692 -0.1736  0.3462
  604PYPI    C1 9523   7.041   6.489   9.405 -0.2187 -0.2049 -0.1161
  604PYPI    C2 9524   6.874   6.826   9.269  0.2490 -0.0032 -0.2113
  604PYPI    C3 9525   6.801   6.704   9.643 -0.0329  0.1266 -0.2214
  604PYPI   PO4 9526   7.023   6.317   9.163 -0.1622  0.0983 -0.2564
  604PYPI   GL1 9527   6.986   6.360   8.702 -0.2257 -0.0702  0.2180
  604PYPI   GL2 9528   6.779   6.128   8.702  0.3660  0.0900  0.0088
  604PYPI   C1A 9529   6.794   6.544   8.369 -0.2428 -0.1980  0.1065
  604PYPI   C2A 9530   6.685   6.799   8.073 -0.2555 -0.0746  0.4143
  604PYPI   D3A 9531   6.822   7.228   7.929  0.0185 -0.0557  0.0679
  604PYPI   C4A 9532   6.941   7.231   7.431  0.1753 -0.1649 -0.2158
  604PYPI   C1B 9533   6.765   6.048   8.177  0.3389 -0.4632 -0.0499
  604PYPI   C2B 9534   6.826   6.353   7.826  0.1403  0.2001  0.0825
  604PYPI   C3B 9535   6.765   6.270   7.391 -0.1665  0.2243  0.0269
  604PYPI   C4B 9536   6.762   6.363   6.993  0.1709  0.0404  0.2439
  605PYPI    C1 9537   6.813   1.675  10.107 -0.1506 -0.0680  0.4133
  605PYPI    C2 9538   6.717   2.038  10.243  0.1897  0.1316  0.1359
  605PYPI    C3 9539   7.077   1.883  10.324  0.1908  0.0225 -0.0717
  605PYPI   PO4 9540   6.776   1.659   9.896  0.1687  0.1774  0.0955
  605PYPI   GL1 9541   6.512   1.622   9.569  0.1042  0.0816 -0.2497
  605PYPI   GL2 9542   6.218   1.623   9.646 -0.2863 -0.0399 -0.1229
  605PYPI   C1A 9543   6.391   1.938   9.255  0.0353  0.1728  0.0722
  605PYPI   C2A 9544   6.167   2.062   8.964 -0.5465 -0.0471  0.1652
  605PYPI   D3A 9545   5.906   2.126   8.601 -0.2186  0.1047  0.0527
  605PYPI   C4A 9546   5.798   1.870   8.453 -0.1550 -0.3667  0.2517
  605PYPI   C1B 9547   5.956   1.758   9.309 -0.3978  0.0122  0.3741
  605PYPI   C2B 9548   5.692   1.752   8.948  0.0434 -0.1036 -0.3270
  605PYPI   C3B 9549   5.327   1.915   8.850 -0.0821 -0.1492 -0.0351
  605PYPI   C4B 9550   5.236   1.886   8.488  0.2109 -0.1564 -0.1205
  606PYPI    C1 9551   2.837   2.107  10.162 -0.0136 -0.0938  0.0692
  606PYPI    C2 9552   3.006   2.464  10.227 -0.0647 -0.0399 -0.0885
  606PYPI    C3 9553   3.222   2.130  10.267  0.0758  0.0275 -0.2708
  606PYPI   PO4 9554   2.644   2.242   9.880 -0.2229 -0.3037 -0.1073
  606PYPI   GL1 9555   2.585   2.517   9.448 -0.0118 -0.3771 -0.2442
  606PYPI   GL2 9556   2.726   2.539   9.115  0.0986  0.0804 -0.1632
  606PYPI   C1A 9557   2.208   2.653   9.108 -0.0743 -0.0013 -0.4278
  606PYPI   C2A 9558   2.145   2.579   8.676  0.0109 -0.0789  0.2016
  606PYPI   D3A 9559   2.302   2.590   8.322  0.2185 -0.2558 -0.2202
  606PYPI   C4A 9560   2.555   2.945   8.232 -0.1575  0.3813 -0.2342
  606PYPI   C1B 9561   3.187   2.543   9.072  0.1444  0.0738 -0.3191
  606PYPI   C2B 9562   3.325   2.633   8.710 -0.3843  0.2387 -0.2862
  606PYPI   C3B 9563   3.450   2.613   8.365  0.1866  0.2421 -0.4443
  606PYPI   C4B 9564   3.655   2.618   8.028  0.2947  0.2546 -0.2233
  607ERGO   ROH 9565   7.998   9.545   8.911 -0.3393 -0.0465  0.0405
  607ERGO    R1 9566   7.998   9.689   8.668 -0.1563 -0.0141  0.0577
  607ERGO    R2 9567   8.032   9.567   8.422  0.0573  0.0225  0.0672
  607ERGO    R3 9568   7.799   9.693   8.363  0.0907  0.0045 -0.1068
  607ERGO    R4 9569   7.888   9.579   8.108  0.2095 -0.1278 -0.0095
  607ERGO    R5 9570   7.835   9.787   8.146  0.2000 -0.1053 -0.1375
  607ERGO    C1 9571   7.585   9.704   7.870  0.3294 -0.2322 -0.2175
  607ERGO    C2 9572   7.132   9.513   7.739  0.3058 -0.2000 -0.2151
  608ERGO   ROH 9573  18.643  14.627   9.476  0.2501  0.0682  0.1318
  608ERGO    R1 9574  18.665  14.507   9.220  0.0399  0.1086  0.0928
  608ERGO    R2 9575  18.531  14.603   8.999  0.0620  0.3048  0.1628
  608ERGO    R3 9576  18.780  14.608   8.890  0.0333  0.0745  0.0800
  608ERGO    R4 9577  18.604  14.521   8.671 -0.1083  0.1491  0.1615
  608ERGO    R5 9578  18.784  14.420   8.742 -0.1651  0.0263  0.1327
  608ERGO    C1 9579  18.881  14.479   8.378 -0.2347 -0.1576  0.0829
  608ERGO    C2 9580  19.053  14.679   8.191 -0.0421 -0.1439  0.0915
  609ERGO   ROH 9581   7.684   5.410   8.607  0.0886 -0.0147  0.0274
  609ERGO    R1 9582   7.628   5.367   8.333  0.0746 -0.1136  0.0453
  609ERGO    R2 9583   7.543   5.569   8.165 -0.1009 -0.2100  0.0160
  609ERGO    R3 9584   7.755   5.490   8.014 -0.0665 -0.0872 -0.0016
  609ERGO    R4 9585   7.588   5.646   7.831 -0.2078 -0.2391 -0.0053
  609ERGO    R5 9586   7.661   5.443   7.799 -0.0678 -0.1942  0.0213
  609ERGO    C1 9587   7.813   5.617   7.495 -0.2380 -0.1406 -0.0342
  609ERGO    C2 9588   7.788   5.805   7.194  0.1707 -0.1391  0.3257
  610ERGO   ROH 9589  15.812   5.415   8.982  0.0796  0.1995 -0.0383
  610ERGO    R1 9590  15.824   5.316   8.718 -0.0389  0.1125 -0.0110
  610ERGO    R2 9591  15.624   5.360   8.533 -0.0421  0.1959  0.0160
  610ERGO    R3 9592  15.829   5.456   8.382 -0.0041  0.0093 -0.0549
  610ERGO    R4 9593  15.675   5.284   8.200 -0.1423  0.0279  0.0376
  610ERGO    R5 9594  15.889   5.272   8.241 -0.1404 -0.0884  0.0093
  610ERGO    C1 9595  15.898   5.329   7.864 -0.1650 -0.2450 -0.0165
  610ERGO    C2 9596  15.872   5.224   7.610  0.2278  0.0520  0.1819
  611ERGO   ROH 9597   3.458  12.664   9.440 -0.1067 -0.1223 -0.1108
  611ERGO    R1 9598   3.344  12.632   9.183  0.0298 -0.1036 -0.1741
  611ERGO    R2 9599   3.290  12.845   9.016  0.0291 -0.0847 -0.1471
  611ERGO    R3 9600   3.442  12.704   8.839  0.1674  0.0166 -0.1112
  611ERGO    R4 9601   3.324  12.921   8.681  0.1410  0.0012 -0.1169
  611ERGO    R5 9602   3.315  12.708   8.636  0.2522  0.0042 -0.1660
  611ERGO    C1 9603   3.487  12.834   8.320  0.3360  0.1463 -0.0656
  611ERGO    C2 9604   3.466  12.855   8.009 -0.3035  0.3016  0.0602
  612ERGO   ROH 9605   8.919   3.802   9.119 -0.1154 -0.1052 -0.0624
  612ERGO    R1 9606   8.812   3.766   8.859  0.0942 -0.1335 -0.1453
  612ERGO    R2 9607   8.765   3.978   8.687  0.1117 -0.1447 -0.1505
  612ERGO    R3 9608   8.919   3.832   8.518  0.3084 -0.0433 -0.0650
  612ERGO    R4 9609   8.757   4.002   8.343  0.1600 -0.2520 -0.1607
  612ERGO    R5 9610   8.775   3.786   8.332  0.3882 -0.2491 -0.0874
  612ERGO    C1 9611   8.898   3.880   7.983  0.3729 -0.2193 -0.0866
  612ERGO    C2 9612   9.078   3.761   7.676 -0.2731  0.0267 -0.0033
  613ERGO   ROH 9613   6.577  12.264   9.396 -0.0011  0.3329  0.0054
  613ERGO    R1 9614   6.403  12.332   9.184 -0.0905  0.0993  0.0012
  613ERGO    R2 9615   6.485  12.336   8.920 -0.0958  0.1860 -0.0000
  613ERGO    R3 9616   6.274  12.168   8.885  0.1143 -0.0863  0.0122
  613ERGO    R4 9617   6.304  12.302   8.627 -0.2463  0.1641  0.0946
  613ERGO    R5 9618   6.122  12.290   8.746 -0.1537 -0.1862  0.2094
  613ERGO    C1 9619   6.001  12.125   8.425 -0.1369 -0.1043  0.1610
  613ERGO    C2 9620   5.817  11.890   8.115 -0.0210  0.0490 -0.1057
  614ERGO   ROH 9621  10.192   7.589   9.035  0.0355 -0.1509 -0.0310
  614ERGO    R1 9622  10.072   7.785   8.869  0.0759 -0.2195 -0.1430
  614ERGO    R2 9623  10.098   8.056   8.916 -0.1781 -0.2031 -0.0744
  614ERGO    R3 9624  10.185   8.059   8.658  0.1149 -0.1078  0.0213
  614ERGO    R4 9625  10.159   8.341   8.730 -0.1212 -0.1351  0.0479
  614ERGO    R5 9626  10.070   8.243   8.558  0.1273 -0.1525 -0.0751
  614ERGO    C1 9627  10.276   8.510   8.381  0.1871 -0.0061  0.2089
  614ERGO    C2 9628  10.323   8.682   7.978  0.1305  0.0961  0.0632
  615ERGO   ROH 9629  13.339   0.268   9.374 -0.0943 -0.2594  0.1377
  615ERGO    R1 9630  13.360   0.277   9.092 -0.0282 -0.0106  0.1489
  615ERGO    R2 9631  13.500   0.475   8.959  0.0752  0.0568  0.3622
  615ERGO    R3 9632  13.628   0.264   8.847  0.0206  0.1108  0.1930
  615ERGO    R4 9633  13.606   0.459   8.631 -0.0629  0.2380  0.3066
  615ERGO    R5 9634  13.541   0.252   8.625 -0.0756  0.2397  0.2196
  615ERGO    C1 9635  13.787   0.251   8.334 -0.1946  0.3942  0.1154
  615ERGO    C2 9636  13.782   0.367   8.053 -0.1951 -0.2899  0.2396
  616ERGO   ROH 9637   2.098  12.251   9.043  0.1152 -0.0070  0.0741
  616ERGO    R1 9638   2.034  12.145   8.789  0.0246  0.1807  0.0163
  616ERGO    R2 9639   2.098  12.275   8.554  0.3230  0.1571  0.0761
  616ERGO    R3 9640   2.217  12.038   8.493 -0.0458 -0.0267  0.0479
  616ERGO    R4 9641   2.185  12.173   8.235  0.3780  0.1593  0.0910
  616ERGO    R5 9642   2.117  11.972   8.286 -0.0120  0.2497 -0.0568
  616ERGO    C1 9643   2.347  11.891   7.993  0.0637 -0.0121  0.0733
  616ERGO    C2 9644   2.502  11.918   7.598 -0.0838  0.0092 -0.0420
  617ERGO   ROH 9645   7.563   8.265   9.177 -0.0408 -0.0826 -0.2063
  617ERGO    R1 9646   7.736   8.220   8.958  0.0306  0.1101 -0.1910
  617ERGO    R2 9647   7.659   8.077   8.735  0.2072  0.0292 -0.1995
  617ERGO    R3 9648   7.739   8.300   8.603 -0.0232  0.1212 -0.1897
  617ERGO    R4 9649   7.647   8.119   8.392  0.3012 -0.0328 -0.2110
  617ERGO    R5 9650   7.841   8.218   8.402  0.1742  0.2225 -0.1362
  617ERGO    C1 9651   7.716   8.354   8.069  0.1395  0.0175 -0.2087
  617ERGO    C2 9652   7.591   8.309   7.734  0.0511  0.1613 -0.1173
  618ERGO   ROH 9653   9.657   4.447   9.022  0.0595  0.1758 -0.0735
  618ERGO    R1 9654   9.631   4.406   8.743  0.0459  0.0409 -0.0534
  618ERGO    R2 9655   9.785   4.541   8.558  0.0383 -0.0498 -0.1277
  618ERGO    R3 9656   9.845   4.290   8.472  0.0321 -0.0919 -0.0087
  618ERGO    R4 9657   9.797   4.443   8.227  0.1916 -0.1646 -0.0885
  618ERGO    R5 9658   9.701   4.256   8.284  0.1229 -0.1259 -0.0729
  618ERGO    C1 9659   9.860   4.150   7.953  0.2751 -0.2710  0.0459
  618ERGO    C2 9660  10.031   4.226   7.585 -0.0152 -0.1699  0.0563
  619ERGO   ROH 9661   6.170   6.350   8.840 -0.1190 -0.0349  0.1452
  619ERGO    R1 9662   6.288   6.301   8.587 -0.1387 -0.0748  0.1455
  619ERGO    R2 9663   6.139   6.255   8.359 -0.1542 -0.0198  0.1522
  619ERGO    R3 9664   6.288   6.459   8.259 -0.0817 -0.0742  0.1440
  619ERGO    R4 9665   6.187   6.318   8.023 -0.2994  0.0623  0.1445
  619ERGO    R5 9666   6.395   6.366   8.067 -0.2410 -0.0792  0.0514
  619ERGO    C1 9667   6.355   6.547   7.733 -0.3160  0.0590  0.1323
  619ERGO    C2 9668   6.621   6.788   7.543 -0.1891 -0.1453  0.0972
  620ERGO   ROH 9669   4.368  11.234   9.128 -0.0060 -0.1221 -0.0287
  620ERGO    R1 9670   4.234  11.452   9.007 -0.0077 -0.1173 -0.0165
  620ERGO    R2 9671   4.225  11.703   9.122  0.1564 -0.0771 -0.0971
  620ERGO    R3 9672   4.324  11.782   8.882  0.0258 -0.1906 -0.1910
  620ERGO    R4 9673   4.245  12.031   9.014  0.1827 -0.1175 -0.2182
  620ERGO    R5 9674   4.184  11.964   8.816  0.0329 -0.1701 -0.1606
  620ERGO    C1 9675   4.350  12.295   8.725  0.0754 -0.2476 -0.3769
  620ERGO    C2 9676   4.584  12.377   8.598  0.0753 -0.2414 -0.2382
  621ERGO   ROH 9677   0.247   7.306   9.064  0.2391 -0.1894  0.0224
  621ERGO    R1 9678   0.343   7.268   8.801  0.1487 -0.1844 -0.0105
  621ERGO    R2 9679   0.252   7.066   8.637  0.0405 -0.1314 -0.0057
  621ERGO    R3 9680   0.204   7.270   8.464  0.0525 -0.0988  0.0275
  621ERGO    R4 9681   0.250   7.035   8.293 -0.1230 -0.1240 -0.0069
  621ERGO    R5 9682   0.353   7.228   8.281 -0.0402 -0.1613 -0.0413
  621ERGO    C1 9683   0.203   7.209   7.930 -0.2069 -0.0891  0.0235
  621ERGO    C2 9684   0.265   7.067   7.567 -0.0259 -0.4497  0.2263
  622ERGO   ROH 9685  11.506  17.443   8.941  0.1014 -0.1877  0.1038
  622ERGO    R1 9686  11.692  17.347   8.750  0.0772 -0.1210  0.0468
  622ERGO    R2 9687  11.698  17.083   8.669  0.0497 -0.0842 -0.0647
  622ERGO    R3 9688  11.677  17.192   8.421  0.0396  0.0190 -0.0194
  622ERGO    R4 9689  11.760  16.915   8.373  0.0246  0.0259 -0.1335
  622ERGO    R5 9690  11.857  17.094   8.298  0.0312  0.0562 -0.0679
  622ERGO    C1 9691  11.776  16.920   7.968  0.0005  0.1873 -0.1310
  622ERGO    C2 9692  11.877  16.917   7.641 -0.2949  0.0382 -0.2176
  623ERGO   ROH 9693  18.013   5.661   9.238 -0.0828 -0.2247 -0.0128
  623ERGO    R1 9694  18.121   5.844   9.051  0.0194 -0.1769  0.0906
  623ERGO    R2 9695  18.378   5.822   8.953  0.0244 -0.2424  0.1079
  623ERGO    R3 9696  18.253   5.828   8.712  0.0492 -0.0678  0.0982
  623ERGO    R4 9697  18.533   5.764   8.650 -0.0124 -0.3201  0.1043
  623ERGO    R5 9698  18.414   5.926   8.564  0.1510 -0.1890  0.1321
  623ERGO    C1 9699  18.505   5.735   8.246 -0.0103 -0.2014  0.0931
  623ERGO    C2 9700  18.718   5.593   7.930 -0.0319  0.2595 -0.0104
  624ERGO   ROH 9701  16.675   6.295   9.161  0.0719  0.0052  0.0935
  624ERGO    R1 9702  16.819   6.406   8.944  0.0913  0.0436  0.1251
  624ERGO    R2 9703  17.092   6.377   8.915  0.0923  0.0174  0.1235
  624ERGO    R3 9704  17.023   6.280   8.670  0.0822  0.0865  0.1006
  624ERGO    R4 9705  17.303   6.365   8.642  0.0876  0.0459  0.1186
  624ERGO    R5 9706  17.135   6.426   8.516  0.1030  0.1000  0.1339
  624ERGO    C1 9707  17.362   6.268   8.253  0.0754  0.1274  0.0940
  624ERGO    C2 9708  17.512   6.042   8.079 -0.1258 -0.1802 -0.4506
  625ERGO   ROH 9709  11.353  16.185   9.008  0.2084  0.2522 -0.2069
  625ERGO    R1 9710  11.279  16.053   8.769  0.1575  0.0399 -0.0781
  625ERGO    R2 9711  11.173  16.186   8.552 -0.1016 -0.1796 -0.1011
  625ERGO    R3 9712  11.377  16.065   8.418 -0.0832 -0.0916 -0.1498
  625ERGO    R4 9713  11.212  16.187   8.208 -0.1649 -0.1553 -0.1069
  625ERGO    R5 9714  11.275  15.978   8.220 -0.0810 -0.1235 -0.1299
  625ERGO    C1 9715  11.426  16.074   7.883 -0.1844 -0.0583 -0.1561
  625ERGO    C2 9716  11.501  15.976   7.580 -0.1383 -0.2688 -0.0100
  626ERGO   ROH 9717  12.299  10.432   9.367  0.1255  0.0133  0.0910
  626ERGO    R1 9718  12.486  10.348   9.172  0.2168  0.1968  0.0971
  626ERGO    R2 9719  12.439  10.136   9.002  0.5120  0.0156  0.2274
  626ERGO    R3 9720  12.495  10.320   8.809  0.1738  0.0029  0.1114
  626ERGO    R4 9721  12.591  10.065   8.700  0.6140  0.1026  0.2582
  626ERGO    R5 9722  12.706  10.249   8.720  0.2936  0.3203  0.1377
  626ERGO    C1 9723  12.732  10.196   8.343  0.3561  0.1412  0.1672
  626ERGO    C2 9724  12.770  10.213   7.990 -0.1400  0.2429 -0.1649
  627ERGO   ROH 9725   2.385  12.275   9.481  0.0445  0.0915  0.0170
  627ERGO    R1 9726   2.535  12.248   9.242  0.0044  0.1936 -0.0209
  627ERGO    R2 9727   2.597  12.001   9.133 -0.0118  0.2388 -0.1370
  627ERGO    R3 9728   2.480  12.106   8.911 -0.0512  0.3326 -0.0719
  627ERGO    R4 9729   2.711  11.958   8.809 -0.1057  0.3210 -0.1812
  627ERGO    R5 9730   2.663  12.166   8.770 -0.0773  0.3433 -0.1009
  627ERGO    C1 9731   2.667  12.031   8.413 -0.1974  0.4571 -0.1458
  627ERGO    C2 9732   2.695  12.196   8.083  0.4697  0.1819  0.0004
  628ERGO   ROH 9733  10.270  17.633   8.918  0.3067  0.0635  0.1705
  628ERGO    R1 9734  10.172  17.777   8.695  0.1561  0.0091  0.2005
  628ERGO    R2 9735  10.288  18.012   8.607 -0.0007  0.0729  0.1618
  628ERGO    R3 9736  10.299  17.881   8.370 -0.0039  0.0783  0.1587
  628ERGO    R4 9737  10.280  18.164   8.297  0.1868  0.0958  0.1672
  628ERGO    R5 9738  10.151  18.003   8.227  0.1124  0.1750  0.1182
  628ERGO    C1 9739  10.286  18.128   7.893  0.2930  0.1146  0.1676
  628ERGO    C2 9740  10.382  18.134   7.658 -0.1931 -0.1181 -0.1147
  629ERGO   ROH 9741   7.759   3.110   8.898 -0.0826 -0.2193  0.1445
  629ERGO    R1 9742   7.863   3.002   8.658  0.0011 -0.0637  0.1094
  629ERGO    R2 9743   7.720   2.825   8.501  0.0229  0.1022 -0.0992
  629ERGO    R3 9744   7.773   3.006   8.306  0.1748  0.2386  0.0647
  629ERGO    R4 9745   7.834   2.748   8.184 -0.0060  0.2945 -0.1579
  629ERGO    R5 9746   7.966   2.921   8.194  0.1229  0.1913  0.0079
  629ERGO    C1 9747   7.950   2.874   7.816  0.1197  0.5346 -0.0381
  629ERGO    C2 9748   7.801   2.804   7.571  0.0255  0.0463  0.0733
  630ERGO   ROH 9749   1.743   8.441   9.056  0.2940 -0.2741 -0.1837
  630ERGO    R1 9750   1.756   8.619   8.836  0.0772 -0.1184 -0.0772
  630ERGO    R2 9751   1.936   8.585   8.627  0.2075  0.2914 -0.0533
  630ERGO    R3 9752   1.710   8.597   8.476  0.2251  0.0096 -0.1018
  630ERGO    R4 9753   1.928   8.642   8.286  0.1997  0.1323 -0.0783
  630ERGO    R5 9754   1.754   8.768   8.315  0.0798 -0.0259 -0.1694
  630ERGO    C1 9755   1.712   8.685   7.946  0.2117 -0.2250 -0.1384
  630ERGO    C2 9756   1.492   8.521   7.711  0.0599  0.0299  0.2018
  631ERGO   ROH 9757   2.922  18.634   9.249  0.0316 -0.0357 -0.2384
  631ERGO    R1 9758   2.817  18.670   8.988 -0.1596 -0.1794 -0.1842
  631ERGO    R2 9759   2.967  18.773   8.780 -0.4320  0.1088 -0.2475
  631ERGO    R3 9760   2.891  18.545   8.654 -0.1041 -0.0135 -0.2347
  631ERGO    R4 9761   2.979  18.724   8.439 -0.3875  0.1150 -0.2465
  631ERGO    R5 9762   2.786  18.621   8.452 -0.2369 -0.1730 -0.2275
  631ERGO    C1 9763   2.913  18.481   8.121 -0.0538  0.0038 -0.2340
  631ERGO    C2 9764   3.125  18.307   7.818  0.2531  0.2465  0.0149
  632ERGO   ROH 9765   8.141  16.872   9.354 -0.0574  0.0536 -0.0339
  632ERGO    R1 9766   8.054  16.659   9.189 -0.0533  0.0250  0.0000
  632ERGO    R2 9767   8.012  16.688   8.918 -0.1313  0.0008  0.0066
  632ERGO    R3 9768   8.184  16.478   8.901 -0.0871  0.0397 -0.0236
  632ERGO    R4 9769   8.033  16.471   8.649 -0.1535 -0.0194  0.0216
  632ERGO    R5 9770   8.057  16.307   8.790 -0.0753  0.0004  0.0276
  632ERGO    C1 9771   8.207  16.148   8.477 -0.1249  0.0055  0.0020
  632ERGO    C2 9772   8.223  16.222   8.174  0.2102 -0.6066  0.4967
  633ERGO   ROH 9773  13.161  12.429   9.423  0.0067 -0.5610  0.0972
  633ERGO    R1 9774  13.091  12.346   9.162 -0.0092 -0.3523  0.0333
  633ERGO    R2 9775  12.934  12.125   9.113 -0.0450 -0.2916 -0.1338
  633ERGO    R3 9776  12.784  12.302   8.972 -0.0182 -0.1594  0.0010
  633ERGO    R4 9777  12.865  12.099   8.775 -0.0266 -0.0095 -0.1611
  633ERGO    R5 9778  12.893  12.315   8.759 -0.0035  0.0033  0.0169
  633ERGO    C1 9779  12.685  12.251   8.446  0.0092  0.2789 -0.0503
  633ERGO    C2 9780  12.480  12.166   8.290 -0.2176  0.3141  0.0423
  634ERGO   ROH 9781   2.778  14.120   9.287  0.1873 -0.1798 -0.0124
  634ERGO    R1 9782   2.763  14.024   9.020  0.0477 -0.1259 -0.0244
  634ERGO    R2 9783   2.525  13.944   8.904 -0.0258 -0.0248  0.0570
  634ERGO    R3 9784   2.595  14.124   8.713 -0.0439 -0.0138  0.0605
  634ERGO    R4 9785   2.423  13.932   8.574 -0.1741  0.0705  0.0981
  634ERGO    R5 9786   2.624  13.993   8.515 -0.1760  0.0106  0.0229
  634ERGO    C1 9787   2.430  14.094   8.203 -0.2775  0.1364  0.1254
  634ERGO    C2 9788   2.201  13.981   8.088 -0.0765  0.3555  0.2933
  635ERGO   ROH 9789  15.766  12.503   9.525 -0.0095 -0.3291 -0.0249
  635ERGO    R1 9790  15.895  12.501   9.273  0.0620 -0.2719  0.0107
  635ERGO    R2 9791  15.805  12.347   9.061  0.0262 -0.1019 -0.0989
  635ERGO    R3 9792  15.806  12.585   8.930  0.2125 -0.0299  0.0284
  635ERGO    R4 9793  15.899  12.391   8.731 -0.0688 -0.0265 -0.1160
  635ERGO    R5 9794  15.999  12.576   8.789  0.1460 -0.1560 -0.0583
  635ERGO    C1 9795  15.954  12.640   8.416  0.0508  0.0851 -0.0066
  635ERGO    C2 9796  15.990  12.847   8.191  0.2676  0.0876 -0.2432
  636ERGO   ROH 9797   1.625   7.336   9.319  0.1420  0.3401  0.1225
  636ERGO    R1 9798   1.545   7.270   9.056  0.1371  0.2043  0.1587
  636ERGO    R2 9799   1.380   7.432   8.906  0.0620  0.0787  0.1162
  636ERGO    R3 9800   1.581   7.415   8.724  0.0426  0.0822  0.0920
  636ERGO    R4 9801   1.334   7.379   8.567  0.0319 -0.4296  0.1915
  636ERGO    R5 9802   1.507   7.246   8.571  0.2033 -0.2216  0.3328
  636ERGO    C1 9803   1.497   7.332   8.199 -0.0038 -0.7223  0.2126
  636ERGO    C2 9804   1.412   7.217   7.862  0.0052  0.4122  0.1071
  637ERGO   ROH 9805   9.129  12.884   9.095  0.1814  0.1523 -0.0536
  637ERGO    R1 9806   8.983  12.816   8.862  0.0566  0.0785  0.0452
  637ERGO    R2 9807   9.096  12.823   8.609 -0.0891  0.0357 -0.0205
  637ERGO    R3 9808   9.008  12.566   8.599 -0.0611  0.0209  0.0881
  637ERGO    R4 9809   9.126  12.615   8.335  0.0239 -0.1114  0.1019
  637ERGO    R5 9810   8.926  12.540   8.375  0.0172 -0.1082  0.0734
  637ERGO    C1 9811   9.062  12.252   8.166  0.1159 -0.2111  0.2750
  637ERGO    C2 9812   9.141  12.031   7.945  0.2197 -0.1302 -0.1628
  638ERGO   ROH 9813  19.179  13.659   9.834  0.0536 -0.1597  0.0289
  638ERGO    R1 9814  19.287  13.806   9.618 -0.1485 -0.0928 -0.0295
  638ERGO    R2 9815  19.544  13.767   9.525 -0.0743  0.2457  0.0083
  638ERGO    R3 9816  19.418  13.733   9.286 -0.0134 -0.0529  0.0156
  638ERGO    R4 9817  19.664  13.878   9.220 -0.1427  0.1196 -0.0648
  638ERGO    R5 9818  19.461  13.936   9.167 -0.1867 -0.1074 -0.1374
  638ERGO    C1 9819  19.615  13.911   8.819 -0.1253 -0.2343 -0.1006
  638ERGO    C2 9820  19.568  13.862   8.485  0.1278  0.2048 -0.1273
  639ERGO   ROH 9821  17.389  12.884   9.272 -0.2719  0.3185  0.0843
  639ERGO    R1 9822  17.374  12.803   9.001 -0.0888  0.1952  0.1095
  639ERGO    R2 9823  17.281  12.970   8.801 -0.0537  0.0670 -0.0115
  639ERGO    R3 9824  17.520  12.910   8.685  0.0352  0.1222  0.1399
  639ERGO    R4 9825  17.354  13.013   8.466  0.1068 -0.0105  0.0125
  639ERGO    R5 9826  17.461  12.824   8.470  0.1822  0.0283  0.1333
  639ERGO    C1 9827  17.621  12.983   8.163  0.2838 -0.0040  0.1687
  639ERGO    C2 9828  17.595  13.002   7.826 -0.1845 -0.4320  0.1586
  640ERGO   ROH 9829   6.256  11.104   9.385  0.1150  0.1477 -0.0724
  640ERGO    R1 9830   6.213  11.005   9.123  0.3605  0.1223 -0.1057
  640ERGO    R2 9831   5.998  11.084   8.968  0.2061 -0.2906 -0.1117
  640ERGO    R3 9832   6.191  11.146   8.788  0.1084  0.1744 -0.0702
  640ERGO    R4 9833   5.961  11.068   8.625  0.3425 -0.4667 -0.1199
  640ERGO    R5 9834   6.162  10.987   8.612  0.5708  0.0479 -0.0442
  640ERGO    C1 9835   6.121  11.118   8.256  0.3301 -0.1328 -0.0857
  640ERGO    C2 9836   6.134  11.046   7.978  0.0967 -0.1898  0.0728
  641ERGO   ROH 9837  16.080  10.824   9.480  0.1583  0.2356  0.0974
  641ERGO    R1 9838  15.904  10.792   9.260  0.1223  0.1247  0.1407
  641ERGO    R2 9839  15.847  10.998   9.084 -0.0569  0.0935  0.1553
  641ERGO    R3 9840  15.927  10.817   8.898  0.0173  0.1464  0.1363
  641ERGO    R4 9841  15.744  10.996   8.755 -0.1896 -0.0235  0.1969
  641ERGO    R5 9842  15.732  10.779   8.765 -0.0025 -0.0304  0.2193
  641ERGO    C1 9843  15.760  10.825   8.387 -0.1972 -0.0418  0.2031
  641ERGO    C2 9844  15.731  10.832   8.018  0.1873  0.3077  0.1615
  642ERGO   ROH 9845   3.173  17.156   8.911  0.2227  0.0648 -0.0046
  642ERGO    R1 9846   3.190  16.938   8.731  0.0870  0.1553 -0.1281
  642ERGO    R2 9847   3.107  16.956   8.467  0.0694  0.3467 -0.1102
  642ERGO    R3 9848   3.359  16.867   8.417  0.0172  0.2382 -0.1849
  642ERGO    R4 9849   3.193  16.742   8.210 -0.1003  0.2905 -0.1217
  642ERGO    R5 9850   3.329  16.640   8.346 -0.0985  0.2448 -0.1580
  642ERGO    C1 9851   3.480  16.534   8.012 -0.2481  0.1560 -0.1987
  642ERGO    C2 9852   3.744  16.425   7.827 -0.0008 -0.3584 -0.0324
  643ERGO   ROH 9853   6.785   4.793   8.731  0.0049 -0.1015 -0.0151
  643ERGO    R1 9854   6.892   4.679   8.495 -0.0196 -0.0667 -0.0434
  643ERGO    R2 9855   6.736   4.622   8.274 -0.0622 -0.1299  0.0006
  643ERGO    R3 9856   6.920   4.775   8.145 -0.1559 -0.0620 -0.0533
  643ERGO    R4 9857   6.765   4.648   7.930 -0.1519 -0.1404 -0.0076
  643ERGO    R5 9858   6.981   4.644   7.954 -0.1457 -0.0484 -0.0582
  643ERGO    C1 9859   6.954   4.806   7.609 -0.2921 -0.0830 -0.0631
  643ERGO    C2 9860   6.907   4.790   7.345  0.3335  0.1098  0.0071
  644ERGO   ROH 9861  12.433   8.948   9.165 -0.3767  0.2453  0.1402
  644ERGO    R1 9862  12.414   8.813   8.917 -0.4546  0.2062  0.1691
  644ERGO    R2 9863  12.238   8.891   8.718 -0.1174  0.5297  0.0008
  644ERGO    R3 9864  12.463   8.898   8.566  0.0320 -0.0094  0.1737
  644ERGO    R4 9865  12.249   8.830   8.378 -0.0549  0.6345 -0.0176
  644ERGO    R5 9866  12.434   8.720   8.409 -0.3479  0.1095  0.0825
  644ERGO    C1 9867  12.467   8.801   8.038  0.1219  0.1894  0.1340
  644ERGO    C2 9868  12.481   8.882   7.675  0.4348 -0.0933  0.1049
  645ERGO   ROH 9869  13.448  17.496   9.494  0.2151  0.0485 -0.1060
  645ERGO    R1 9870  13.610  17.288   9.391  0.0803 -0.0626 -0.0958
  645ERGO    R2 9871  13.511  17.091   9.225 -0.0112  0.0939 -0.2270
  645ERGO    R3 9872  13.714  17.171   9.063  0.1561 -0.0306 -0.0841
  645ERGO    R4 9873  13.583  16.954   8.916 -0.0557  0.2285 -0.2977
  645ERGO    R5 9874  13.795  16.969   8.964 -0.0510 -0.0639 -0.1966
  645ERGO    C1 9875  13.815  16.950   8.583  0.0757  0.1895 -0.2048
  645ERGO    C2 9876  13.722  17.023   8.322  0.0249 -0.1668  0.1175
  646ERGO   ROH 9877  11.362  12.694   9.846  0.0324  0.1017 -0.1179
  646ERGO    R1 9878  11.265  12.808   9.606  0.0231 -0.0431 -0.1835
  646ERGO    R2 9879  11.277  13.079   9.554 -0.2339 -0.0378 -0.2267
  646ERGO    R3 9880  11.404  12.997   9.328 -0.0447  0.0502 -0.1547
  646ERGO    R4 9881  11.358  13.284   9.288 -0.3531 -0.0072 -0.2400
  646ERGO    R5 9882  11.300  13.123   9.152 -0.1153 -0.1071 -0.2282
  646ERGO    C1 9883  11.524  13.327   8.920 -0.2448  0.0934 -0.1801
  646ERGO    C2 9884  11.438  13.718   8.785 -0.3050  0.5259  0.1088
  647ERGO   ROH 9885   7.173  11.200   9.287 -0.1306 -0.0857  0.0180
  647ERGO    R1 9886   7.271  11.129   9.031  0.0595 -0.0220  0.0691
  647ERGO    R2 9887   7.134  10.959   8.860  0.2008 -0.0304 -0.0455
  647ERGO    R3 9888   7.161  11.166   8.686  0.2713  0.0174 -0.0007
  647ERGO    R4 9889   7.091  10.938   8.518 -0.0908  0.1170 -0.0189
  647ERGO    R5 9890   7.262  11.069   8.492  0.0349 -0.0312 -0.1121
  647ERGO    C1 9891   7.091  11.119   8.155 -0.1942  0.2477  0.0385
  647ERGO    C2 9892   7.096  11.176   7.922 -0.0638  0.1165  0.1543
  648ERGO   ROH 9893  16.566  10.057   9.214 -0.1004 -0.0039 -0.1582
  648ERGO    R1 9894  16.586  10.149   8.947 -0.0807  0.0965 -0.1227
  648ERGO    R2 9895  16.602  10.417   8.883  0.0027  0.1189 -0.0168
  648ERGO    R3 9896  16.826  10.340   8.750 -0.0265  0.0988 -0.0541
  648ERGO    R4 9897  16.741  10.586   8.615  0.1002  0.2251  0.0992
  648ERGO    R5 9898  16.780  10.393   8.521  0.0138  0.2679 -0.0224
  648ERGO    C1 9899  17.031  10.611   8.334  0.1294  0.2680  0.1320
  648ERGO    C2 9900  17.105  10.864   8.143  0.3805 -0.1641 -0.0713
  649ERGO   ROH 9901  14.132  14.850   9.483 -0.0270  0.1857 -0.0407
  649ERGO    R1 9902  14.088  14.898   9.208  0.2597  0.3011 -0.0719
  649ERGO    R2 9903  14.265  15.042   9.051  0.6452  0.0100  0.0664
  649ERGO    R3 9904  14.257  14.820   8.896  0.3572  0.0307  0.0487
  649ERGO    R4 9905  14.410  15.014   8.739  0.5194 -0.1350  0.0214
  649ERGO    R5 9906  14.234  14.904   8.673  0.3842  0.0645  0.0653
  649ERGO    C1 9907  14.487  14.789   8.411  0.1760 -0.1999 -0.0216
  649ERGO    C2 9908  14.577  14.591   8.100 -0.0019  0.0914 -0.0953
  650ERGO   ROH 9909   1.751  19.206   9.418  0.0476 -0.0105 -0.0635
  650ERGO    R1 9910   1.623  19.102   9.188 -0.1809  0.0701  0.0262
  650ERGO    R2 9911   1.426  19.240   9.052  0.1470  0.4106 -0.1067
  650ERGO    R3 9912   1.588  19.197   8.839  0.0684 -0.1692 -0.0701
  650ERGO    R4 9913   1.318  19.199   8.726  0.0452  0.2784 -0.0587
  650ERGO    R5 9914   1.468  19.043   8.701 -0.2710 -0.0797  0.1051
  650ERGO    C1 9915   1.408  19.136   8.336 -0.0878 -0.3429  0.0035
  650ERGO    C2 9916   1.370  19.020   8.138 -0.0019 -0.1628  0.0259
  651ERGO   ROH 9917   3.936  17.706   8.796  0.0741  0.2522 -0.0190
  651ERGO    R1 9918   3.945  17.544   8.564 -0.0957  0.1713  0.0280
  651ERGO    R2 9919   3.827  17.619   8.326 -0.0219  0.2251  0.0024
  651ERGO    R3 9920   4.076  17.574   8.226 -0.0648 -0.0620  0.0194
  651ERGO    R4 9921   3.901  17.580   7.990 -0.0360  0.1265  0.0113
  651ERGO    R5 9922   4.041  17.421   8.045 -0.2212 -0.0278  0.0249
  651ERGO    C1 9923   4.178  17.514   7.702 -0.0846 -0.2002  0.0326
  651ERGO    C2 9924   4.351  17.541   7.344 -0.1275 -0.0115  0.1330
  652ERGO   ROH 9925  16.236   2.448   9.063 -0.2158 -0.0728 -0.0882
  652ERGO    R1 9926  16.279   2.485   8.785  0.1225  0.0232 -0.0263
  652ERGO    R2 9927  16.530   2.528   8.678  0.3033 -0.3106  0.2561
  652ERGO    R3 9928  16.464   2.315   8.522  0.1224 -0.1186  0.0613
  652ERGO    R4 9929  16.562   2.518   8.334  0.2005  0.0190  0.2326
  652ERGO    R5 9930  16.371   2.413   8.324  0.1246  0.1459  0.1811
  652ERGO    C1 9931  16.518   2.312   7.987 -0.0293  0.3912  0.0360
  652ERGO    C2 9932  16.343   2.306   7.761  0.0066  0.0079  0.0542
  653ERGO   ROH 9933  11.616   3.156   9.176  0.0909 -0.0249 -0.0346
  653ERGO    R1 9934  11.677   3.159   8.900 -0.2334 -0.0780 -0.1101
  653ERGO    R2 9935  11.491   3.230   8.708 -0.3562  0.2606  0.1230
  653ERGO    R3 9936  11.683   3.407   8.633 -0.1471 -0.0378 -0.0704
  653ERGO    R4 9937  11.499   3.397   8.405 -0.4387  0.3027  0.1439
  653ERGO    R5 9938  11.715   3.366   8.399 -0.4900 -0.0506 -0.1181
  653ERGO    C1 9939  11.684   3.661   8.160 -0.2905  0.0471 -0.0256
  653ERGO    C2 9940  11.555   3.911   7.983 -0.1369  0.0061 -0.1897
  654ERGO   ROH 9941  10.163  10.138   9.248 -0.2170 -0.4433 -0.0994
  654ERGO    R1 9942  10.211  10.230   8.984 -0.1203 -0.3471 -0.0497
  654ERGO    R2 9943  10.444  10.170   8.847 -0.0627 -0.2878  0.0158
  654ERGO    R3 9944  10.270  10.078   8.659  0.0109 -0.2303 -0.0805
  654ERGO    R4 9945  10.521  10.119   8.514  0.0502 -0.1412  0.0190
  654ERGO    R5 9946  10.326  10.200   8.461  0.0605 -0.1434 -0.0115
  654ERGO    C1 9947  10.404  10.003   8.144  0.1849 -0.0018 -0.0695
  654ERGO    C2 9948  10.480  10.097   7.867  0.0851 -0.1032  0.1510
  655ERGO   ROH 9949  17.588   8.069   9.307 -0.1605  0.0988  0.1280
  655ERGO    R1 9950  17.456   7.977   9.074 -0.2294  0.2861  0.0926
  655ERGO    R2 9951  17.449   8.123   8.840  0.2369  0.2066  0.0230
  655ERGO    R3 9952  17.550   7.895   8.732 -0.2010 -0.0766  0.1816
  655ERGO    R4 9953  17.435   8.041   8.504  0.5920  0.3026 -0.0197
  655ERGO    R5 9954  17.392   7.835   8.562 -0.0925  0.3934 -0.1080
  655ERGO    C1 9955  17.522   7.780   8.207  0.3881  0.0927  0.1042
  655ERGO    C2 9956  17.326   7.841   7.936 -0.3054  0.0026 -0.2063
  656ERGO   ROH 9957   4.752   2.607   9.460 -0.0207 -0.0416  0.0082
  656ERGO    R1 9958   4.749   2.566   9.180  0.0283  0.1070 -0.0131
  656ERGO    R2 9959   4.537   2.445   9.049  0.1167  0.0530 -0.0908
  656ERGO    R3 9960   4.542   2.671   8.900 -0.0080  0.1336  0.0214
  656ERGO    R4 9961   4.360   2.493   8.757  0.1860  0.0462 -0.1367
  656ERGO    R5 9962   4.533   2.594   8.673  0.1423  0.2303 -0.0236
  656ERGO    C1 9963   4.261   2.734   8.446  0.1093  0.1180 -0.0581
  656ERGO    C2 9964   3.936   2.949   8.245 -0.1916  0.1688 -0.0257
  657ERGO   ROH 9965   3.633   9.557   9.396 -0.1120 -0.0083  0.0473
  657ERGO    R1 9966   3.701   9.624   9.130  0.0332  0.0188  0.0903
  657ERGO    R2 9967   3.612   9.480   8.912  0.1141  0.0669  0.0224
  657ERGO    R3 9968   3.524   9.723   8.829  0.2003  0.0961  0.0164
  657ERGO    R4 9969   3.598   9.583   8.582  0.1161  0.0526  0.0183
  657ERGO    R5 9970   3.667   9.779   8.646  0.2001  0.0283 -0.0031
  657ERGO    C1 9971   3.507   9.871   8.312  0.1981  0.0716  0.0102
  657ERGO    C2 9972   3.457   9.871   7.918 -0.0314 -0.0643 -0.2410
  658ERGO   ROH 9973   8.054   1.431   9.350  0.1801  0.2299 -0.0732
  658ERGO    R1 9974   8.016   1.353   9.081  0.2138  0.3324 -0.1072
  658ERGO    R2 9975   7.788   1.224   8.993  0.3865  0.0193 -0.1030
  658ERGO    R3 9976   7.781   1.429   8.814 -0.0015  0.1202  0.0172
  658ERGO    R4 9977   7.618   1.217   8.692  0.3830 -0.1271 -0.0985
  658ERGO    R5 9978   7.787   1.320   8.600  0.1953  0.2484 -0.0482
  658ERGO    C1 9979   7.512   1.404   8.349  0.0168 -0.1176  0.0169
  658ERGO    C2 9980   7.390   1.298   8.143  0.1845  0.2937 -0.1781
  659ERGO   ROH 9981   5.653   4.294   8.859  0.2748  0.0348 -0.0313
  659ERGO    R1 9982   5.552   4.179   8.621  0.2187  0.0135  0.0031
  659ERGO    R2 9983   5.415   4.325   8.431  0.1306 -0.0147  0.0471
  659ERGO    R3 9984   5.604   4.223   8.264  0.0938  0.0176 -0.0153
  659ERGO    R4 9985   5.382   4.299   8.088  0.0598  0.0729  0.0465
  659ERGO    R5 9986   5.478   4.104   8.098  0.0536  0.0640 -0.0205
  659ERGO    C1 9987   5.540   4.188   7.731 -0.0161  0.1541 -0.0125
  659ERGO    C2 9988   5.544   4.291   7.341 -0.3341  0.1095  0.0957
  660ERGO   ROH 9989  14.641   6.296   8.890  0.0981  0.0615 -0.1830
  660ERGO    R1 9990  14.614   6.330   8.610  0.0045  0.0277 -0.1789
  660ERGO    R2 9991  14.532   6.126   8.443 -0.0541  0.0075 -0.1276
  660ERGO    R3 9992  14.346   6.308   8.366 -0.0783 -0.0001 -0.0859
  660ERGO    R4 9993  14.403   6.153   8.123 -0.0291  0.0948 -0.1304
  660ERGO    R5 9994  14.412   6.370   8.144 -0.0696  0.0870 -0.0574
  660ERGO    C1 9995  14.153   6.340   7.865 -0.0373  0.1386 -0.0929
  660ERGO    C2 9996  14.145   6.245   7.644 -0.1296  0.0284 -0.2582
  661ERGO   ROH 9997  16.665   8.707   9.169 -0.0273  0.0167  0.0399
  661ERGO    R1 9998  16.767   8.698   8.905 -0.1404 -0.0254 -0.0031
  661ERGO    R2 9999  16.604   8.701   8.683 -0.2360  0.0069  0.0623
  661ERGO    R310000  16.759   8.912   8.611 -0.2078 -0.0375 -0.0081
  661ERGO    R410001  16.611   8.840   8.367 -0.0924 -0.1822 -0.0204
  661ERGO    R510002  16.828   8.861   8.387 -0.1085 -0.1694  0.0573
  661ERGO    C110003  16.761   9.120   8.115  0.0180 -0.3342 -0.1345
  661ERGO    C210004  16.879   9.149   7.767  0.0704  0.3533  0.1402
  662ERGO   ROH10005  17.557  14.757   9.510  0.2692  0.0519 -0.0557
  662ERGO    R110006  17.602  14.799   9.234 -0.0327  0.1140 -0.0998
  662ERGO    R210007  17.441  14.963   9.081 -0.0059  0.4280  0.1878
  662ERGO    R310008  17.677  15.083   9.019  0.0988  0.1110 -0.0568
  662ERGO    R410009  17.521  15.096   8.772 -0.2570  0.5738  0.1839
  662ERGO    R510010  17.722  15.015   8.794 -0.3431  0.2352 -0.1888
  662ERGO    C110011  17.788  15.287   8.534 -0.3046  0.3610 -0.0480
  662ERGO    C210012  17.796  15.452   8.300  0.1690  0.2619  0.2996
  663ERGO   ROH10013  13.954  12.980   9.446  0.0394 -0.1921  0.1459
  663ERGO    R110014  13.927  12.886   9.180 -0.0436 -0.0504  0.1022
  663ERGO    R210015  13.718  12.961   9.016 -0.0390  0.1243  0.1676
  663ERGO    R310016  13.919  13.033   8.848 -0.0306  0.1194  0.1772
  663ERGO    R410017  13.705  12.938   8.671  0.0160  0.0441  0.1712
  663ERGO    R510018  13.912  12.869   8.673  0.0237  0.0816  0.2141
  663ERGO    C110019  13.886  12.992   8.313  0.0560 -0.0072  0.1823
  663ERGO    C210020  13.768  13.029   7.971  0.2486  0.0458  0.1355
  664ERGO   ROH10021   7.295   9.172   9.000  0.1174  0.0765  0.0239
  664ERGO    R110022   7.150   9.190   8.758  0.0462 -0.0443  0.0567
  664ERGO    R210023   7.243   9.332   8.539 -0.1171  0.0265  0.0334
  664ERGO    R310024   7.203   9.096   8.410  0.0421 -0.0086  0.0458
  664ERGO    R410025   7.106   9.300   8.224 -0.1402 -0.0828  0.0538
  664ERGO    R510026   6.996   9.126   8.294  0.0002 -0.1665  0.0753
  664ERGO    C110027   6.990   9.060   7.919 -0.0042 -0.1794  0.0773
  664ERGO    C210028   6.793   8.951   7.593  0.1525  0.0697  0.1267
  665ERGO   ROH10029   8.326  12.189   9.033 -0.3339 -0.1534 -0.0864
  665ERGO    R110030   8.109  12.212   8.853 -0.2893 -0.0149 -0.1245
  665ERGO    R210031   7.967  12.447   8.822 -0.2585  0.0259 -0.0099
  665ERGO    R310032   8.029  12.412   8.560 -0.1933  0.1834 -0.0159
  665ERGO    R410033   7.750  12.506   8.559 -0.2738 -0.0786 -0.0206
  665ERGO    R510034   7.827  12.326   8.462 -0.0956  0.0334 -0.0779
  665ERGO    C110035   7.682  12.508   8.160 -0.2214  0.0085 -0.0323
  665ERGO    C210036   7.588  12.641   7.835  0.0034 -0.3511 -0.2275
  666ERGO   ROH10037   1.578  15.020   9.373  0.2371 -0.3685  0.0363
  666ERGO    R110038   1.648  14.953   9.107  0.2668 -0.1027 -0.0257
  666ERGO    R210039   1.463  14.867   8.922  0.3299 -0.1695 -0.0540
  666ERGO    R310040   1.564  15.071   8.774  0.0850  0.0464  0.0696
  666ERGO    R410041   1.438  14.892   8.578  0.3234 -0.0198 -0.0427
  666ERGO    R510042   1.643  14.966   8.573  0.2388  0.2486  0.0155
  666ERGO    C110043   1.517  15.098   8.239  0.0898  0.2700  0.0798
  666ERGO    C210044   1.410  14.975   7.841 -0.2605 -0.1263 -0.3439
  667ERGO   ROH10045   6.166   1.170   9.448 -0.0299  0.1074  0.1226
  667ERGO    R110046   6.098   1.303   9.208  0.1058  0.1802  0.1250
  667ERGO    R210047   6.270   1.479   9.082  0.2736  0.0283  0.1450
  667ERGO    R310048   6.227   1.318   8.868  0.1383  0.0782  0.1319
  667ERGO    R410049   6.220   1.590   8.759  0.3356  0.0983  0.1578
  667ERGO    R510050   6.067   1.436   8.735  0.2163  0.2131  0.1531
  667ERGO    C110051   6.151   1.502   8.369  0.2446  0.1860  0.1532
  667ERGO    C210052   6.122   1.701   8.109  0.0175 -0.0407  0.0920
  668ERGO   ROH10053   0.767   8.343   9.042  0.2264  0.0015 -0.2556
  668ERGO    R110054   0.582   8.532   8.942  0.0736 -0.1205 -0.2112
  668ERGO    R210055   0.660   8.753   8.796 -0.0761  0.1214  0.0547
  668ERGO    R310056   0.482   8.656   8.615  0.1766  0.0704 -0.1702
  668ERGO    R410057   0.543   8.927   8.521 -0.1105  0.2454  0.1479
  668ERGO    R510058   0.345   8.844   8.559 -0.0303 -0.0528 -0.0743
  668ERGO    C110059   0.309   8.936   8.190  0.1068  0.2696 -0.0089
  668ERGO    C210060   0.309   9.022   7.896 -0.2577 -0.1564 -0.0444
  669ERGO   ROH10061   9.242  14.131   9.061  0.0508  0.1970 -0.0334
  669ERGO    R110062   9.213  13.955   8.841  0.0199  0.0467  0.0876
  669ERGO    R210063   9.006  13.773   8.821 -0.0153  0.0660  0.2145
  669ERGO    R310064   8.965  13.894   8.582  0.0081 -0.0886  0.1317
  669ERGO    R410065   8.867  13.621   8.544 -0.0731 -0.0795  0.3225
  669ERGO    R510066   9.013  13.725   8.420 -0.0520 -0.2101  0.2446
  669ERGO    C110067   8.747  13.647   8.157 -0.0847 -0.3093  0.3077
  669ERGO    C210068   8.544  13.516   7.970 -0.0703  0.3472  0.0790
  670ERGO   ROH10069  16.613  11.978   9.215 -0.0368 -0.1767 -0.0965
  670ERGO    R110070  16.721  12.076   8.972 -0.0428 -0.0518 -0.0497
  670ERGO    R210071  16.891  11.926   8.814  0.0845  0.0911 -0.0483
  670ERGO    R310072  16.708  11.981   8.620  0.0934  0.0243 -0.0761
  670ERGO    R410073  16.954  12.111   8.529  0.0838  0.0451 -0.0788
  670ERGO    R510074  16.759  12.205   8.553  0.0659  0.0199 -0.1151
  670ERGO    C110075  16.820  12.271   8.182  0.0916 -0.0445 -0.1227
  670ERGO    C210076  16.927  12.464   7.883 -0.2065  0.1013  0.0640
  671ERGO   ROH10077  12.208   0.229   9.416 -0.1369 -0.1111 -0.1025
  671ERGO    R110078  12.245   0.242   9.136 -0.1374  0.0528 -0.0955
  671ERGO    R210079  12.125   0.435   8.979  0.0060  0.2529  0.0417
  671ERGO    R310080  12.381   0.482   8.898  0.0392  0.1129  0.0620
  671ERGO    R410081  12.226   0.465   8.650  0.0186  0.3193  0.0514
  671ERGO    R510082  12.405   0.351   8.699 -0.0546  0.1743  0.0058
  671ERGO    C110083  12.525   0.527   8.382  0.0572  0.2265  0.0759
  671ERGO    C210084  12.671   0.606   8.123 -0.0277 -0.4567  0.2780
  672ERGO   ROH10085   1.987   0.916   9.164  0.0478  0.1089  0.0083
  672ERGO    R110086   1.836   0.910   8.924  0.0895  0.0739 -0.0167
  672ERGO    R210087   1.873   1.093   8.721  0.1353  0.0347 -0.0428
  672ERGO    R310088   1.906   0.870   8.569  0.1490  0.0054  0.0021
  672ERGO    R410089   1.852   1.085   8.376  0.2204 -0.0213 -0.0473
  672ERGO    R510090   1.746   0.895   8.392  0.1955 -0.0070 -0.0421
  672ERGO    C110091   1.871   0.870   8.033  0.2828 -0.0814 -0.0079
  672ERGO    C210092   1.899   0.704   7.703 -0.0253 -0.3851  0.2036
  673ERGO   ROH10093   8.505  11.228   9.137  0.1036  0.0730 -0.0977
  673ERGO    R110094   8.470  11.247   8.857  0.0824  0.0094 -0.1009
  673ERGO    R210095   8.370  11.038   8.705  0.1216 -0.0496 -0.0589
  673ERGO    R310096   8.192  11.226   8.624  0.0722 -0.1060 -0.0760
  673ERGO    R410097   8.169  11.012   8.426  0.1384 -0.1107 -0.0637
  673ERGO    R510098   8.206  11.223   8.385  0.0784 -0.1085 -0.0705
  673ERGO    C110099   7.884  11.173   8.187  0.1017 -0.1993 -0.0827
  673ERGO    C210100   7.646  11.151   8.149  0.0168 -0.0729  0.3004
  674PSPI    C110101  19.047  12.858   5.366 -0.0555 -0.2321  0.3571
  674PSPI    C210102  19.379  12.706   5.203 -0.0841 -0.0024  0.0753
  674PSPI    C310103  19.072  12.811   4.969 -0.2297  0.0892  0.3044
  674PSPI   PO410104  19.101  13.081   5.487  0.0713 -0.1380 -0.1936
  674PSPI   GL110105  19.251  13.021   5.844  0.1995  0.2184 -0.2514
  674PSPI   GL210106  19.004  13.310   5.961 -0.0139 -0.3298  0.0210
  674PSPI   C1A10107  19.487  13.171   6.243 -0.0921 -0.2287 -0.1081
  674PSPI   C2A10108  19.333  13.086   6.679  0.0362 -0.1995  0.1737
  674PSPI   C3A10109  19.382  13.249   7.160 -0.2428  0.0788  0.0706
  674PSPI   C4A10110  19.548  13.482   7.457  0.1212 -0.1515 -0.1189
  674PSPI   C1B10111  18.856  13.407   6.354 -0.1614 -0.0657  0.2252
  674PSPI   C2B10112  18.851  13.451   6.800 -0.1172 -0.1684 -0.0959
  674PSPI   C3B10113  18.789  13.358   7.256  0.1009 -0.2588  0.2562
  674PSPI   C4B10114  19.000  13.172   7.566  0.0660  0.1703 -0.0519
  675PSPI    C110115   8.643   5.116   5.029 -0.1291  0.2256 -0.2281
  675PSPI    C210116   8.755   5.142   4.646  0.1563  0.0752 -0.1577
  675PSPI    C310117   8.830   4.809   4.854  0.2314  0.2504  0.1005
  675PSPI   PO410118   8.533   5.413   5.054  0.1386 -0.1015 -0.0858
  675PSPI   GL110119   8.656   5.658   5.486  0.0761  0.1088  0.0487
  675PSPI   GL210120   8.739   5.378   5.498  0.1943 -0.1693 -0.2346
  675PSPI   C1A10121   8.545   5.479   5.945 -0.2190  0.1799 -0.3613
  675PSPI   C2A10122   8.566   5.773   6.367 -0.1493 -0.0510  0.1186
  675PSPI   C3A10123   8.695   5.827   6.788  0.2334 -0.0046  0.2374
  675PSPI   C4A10124   8.839   5.835   7.137 -0.0117 -0.0933  0.0636
  675PSPI   C1B10125   9.010   5.241   5.726  0.3746 -0.0893  0.0121
  675PSPI   C2B10126   8.968   5.371   6.144  0.1682 -0.0915 -0.1592
  675PSPI   C3B10127   9.031   5.587   6.458 -0.0421 -0.0440  0.0596
  675PSPI   C4B10128   9.338   5.954   6.660 -0.1476  0.0519 -0.1080
  676PSPI    C110129   2.564   8.979   5.240  0.2358 -0.1389  0.0832
  676PSPI    C210130   2.551   9.374   5.178  0.0412 -0.1760 -0.1247
  676PSPI    C310131   2.892   9.173   5.116  0.1495 -0.0372  0.0126
  676PSPI   PO410132   2.461   8.980   5.524  0.2030 -0.1825  0.2818
  676PSPI   GL110133   2.472   9.326   5.689  0.0889  0.0866 -0.2147
  676PSPI   GL210134   2.532   9.568   5.817 -0.0516 -0.2142  0.0461
  676PSPI   C1A10135   2.581   9.199   6.099 -0.1032 -0.0618 -0.3963
  676PSPI   C2A10136   2.876   9.354   6.360  0.1992  0.0143 -0.2580
  676PSPI   C3A10137   3.017   9.584   6.810 -0.2407 -0.0064  0.1214
  676PSPI   C4A10138   3.145   9.648   7.172 -0.0207  0.1041 -0.0613
  676PSPI   C1B10139   2.483   9.682   6.265  0.0759  0.3063 -0.0145
  676PSPI   C2B10140   2.487   9.650   6.734 -0.0051 -0.4259 -0.1953
  676PSPI   C3B10141   2.163   9.665   7.018 -0.0346  0.1752  0.0683
  676PSPI   C4B10142   1.960   9.681   7.389 -0.1655 -0.0592 -0.2194
  677PSPI    C110143  12.949  13.671   5.570 -0.1103  0.0729  0.1152
  677PSPI    C210144  12.893  13.302   5.426 -0.1028  0.1238 -0.0188
  677PSPI    C310145  12.762  13.619   5.221  0.0407  0.2047  0.0134
  677PSPI   PO410146  13.250  13.573   5.675 -0.0632  0.0204 -0.1077
  677PSPI   GL110147  13.250  13.681   6.104 -0.1395  0.0059  0.2901
  677PSPI   GL210148  13.609  13.810   6.265  0.1403 -0.1170 -0.2181
  677PSPI   C1A10149  13.242  14.096   6.270  0.2791  0.2948  0.2898
  677PSPI   C2A10150  13.255  14.477   6.499 -0.2159  0.3478 -0.3756
  677PSPI   C3A10151  13.506  14.649   6.868  0.3211 -0.0119  0.0874
  677PSPI   C4A10152  13.669  14.970   7.029  0.2519 -0.2904 -0.0920
  677PSPI   C1B10153  13.537  13.808   6.604  0.1031  0.1027 -0.1681
  677PSPI   C2B10154  13.231  14.002   6.853  0.1279  0.1455  0.0075
  677PSPI   C3B10155  13.287  14.343   7.184  0.0059  0.2850 -0.0314
  677PSPI   C4B10156  13.529  14.608   7.416  0.0197  0.3823 -0.3872
  678PSPI    C110157   7.841   7.980   4.966 -0.0402 -0.0816 -0.2034
  678PSPI    C210158   7.864   8.179   4.620 -0.0252 -0.1540 -0.2441
  678PSPI    C310159   7.521   8.004   4.728 -0.1039  0.0839 -0.1026
  678PSPI   PO410160   8.067   7.851   4.977 -0.1860  0.1555  0.1381
  678PSPI   GL110161   8.495   7.754   5.264  0.1360 -0.0958 -0.1194
  678PSPI   GL210162   8.458   8.061   5.333  0.1310  0.2185 -0.0646
  678PSPI   C1A10163   8.454   7.694   5.760  0.0049  0.3981 -0.2104
  678PSPI   C2A10164   8.443   7.846   6.194  0.1099  0.0688 -0.0689
  678PSPI   C3A10165   8.249   7.818   6.645  0.1079  0.2189  0.1511
  678PSPI   C4A10166   8.053   7.825   7.117 -0.1227 -0.1571 -0.0373
  678PSPI   C1B10167   8.483   8.323   5.669  0.0200 -0.1176 -0.1514
  678PSPI   C2B10168   8.294   8.388   6.158  0.4679  0.1605  0.0713
  678PSPI   C3B10169   8.375   8.377   6.597  0.0288 -0.2194  0.1666
  678PSPI   C4B10170   8.491   8.162   6.970  0.2553  0.2964  0.0137
  679PSPI    C110171   5.009   7.448   4.592  0.0100 -0.1208 -0.1586
  679PSPI    C210172   4.771   7.292   4.310  0.1938  0.1237 -0.4553
  679PSPI    C310173   5.143   7.152   4.359  0.0162 -0.2246 -0.0247
  679PSPI   PO410174   5.004   7.475   4.880 -0.0217  0.2380  0.0436
  679PSPI   GL110175   5.001   7.166   5.248  0.5528  0.3545 -0.2202
  679PSPI   GL210176   5.047   7.504   5.373 -0.0347  0.2801 -0.2400
  679PSPI   C1A10177   4.965   6.932   5.701 -0.0387  0.2996 -0.0618
  679PSPI   C2A10178   4.970   6.684   6.071  0.4207 -0.1576  0.3642
  679PSPI   C3A10179   4.800   6.382   6.384  0.3244 -0.0039 -0.1333
  679PSPI   C4A10180   4.824   6.453   6.850  0.4328 -0.1751  0.3084
  679PSPI   C1B10181   5.009   7.489   5.805  0.3101  0.0564  0.0455
  679PSPI   C2B10182   5.130   7.615   6.238 -0.0372  0.0330 -0.0500
  679PSPI   C3B10183   5.535   7.861   6.412 -0.2858 -0.1103 -0.2024
  679PSPI   C4B10184   5.891   8.016   6.699  0.1967  0.2657  0.1069
  680PSPI    C110185   5.468   5.528   5.073 -0.0471  0.1307  0.1152
  680PSPI    C210186   5.294   5.842   4.897  0.0731  0.1776  0.0789
  680PSPI    C310187   5.635   5.693   4.750  0.0887  0.1157  0.1769
  680PSPI   PO410188   5.260   5.320   5.017  0.1677 -0.0380 -0.2396
  680PSPI   GL110189   5.104   5.132   5.437 -0.0513 -0.1114  0.1986
  680PSPI   GL210190   5.291   4.894   5.424 -0.1299  0.0693 -0.0750
  680PSPI   C1A10191   5.148   5.431   5.820  0.2491 -0.2045 -0.0718
  680PSPI   C2A10192   5.387   5.589   6.094  0.2741 -0.2124  0.1730
  680PSPI   C3A10193   5.415   5.688   6.576  0.1679  0.0250 -0.0508
  680PSPI   C4A10194   5.435   5.944   6.971 -0.4737  0.2395 -0.1572
  680PSPI   C1B10195   5.431   4.922   5.737 -0.2020  0.1715  0.1572
  680PSPI   C2B10196   5.610   5.086   6.013  0.0768 -0.0487  0.2385
  680PSPI   C3B10197   5.941   4.954   6.235  0.1105 -0.2173  0.0796
  680PSPI   C4B10198   6.246   4.922   6.468  0.2391  0.0977 -0.3264
  681PSPI    C110199   8.827   1.103   4.914 -0.0850 -0.2552  0.1414
  681PSPI    C210200   8.636   0.865   4.655  0.0349 -0.2567  0.0535
  681PSPI    C310201   8.811   1.201   4.526  0.0660 -0.2402  0.1384
  681PSPI   PO410202   8.690   1.120   5.127  0.2430 -0.0803  0.1239
  681PSPI   GL110203   8.839   1.007   5.555  0.3973 -0.5141  0.0531
  681PSPI   GL210204   8.602   1.358   5.752 -0.2443 -0.3703 -0.0022
  681PSPI   C1A10205   8.968   0.898   5.900  0.0425 -0.0024  0.0535
  681PSPI   C2A10206   9.251   0.800   6.277 -0.3640  0.1450  0.1214
  681PSPI   C3A10207   9.524   0.709   6.601 -0.1745  0.0717  0.2186
  681PSPI   C4A10208   9.481   1.019   6.925 -0.1289  0.0652 -0.1304
  681PSPI   C1B10209   8.390   1.462   6.084 -0.4298  0.3323 -0.1042
  681PSPI   C2B10210   8.264   1.323   6.521 -0.3056  0.1432 -0.1936
  681PSPI   C3B10211   8.276   1.133   7.067  0.2741 -0.3477 -0.1249
  681PSPI   C4B10212   8.695   0.990   7.376  0.3057 -0.4362  0.0024
  682PSPI    C110213   9.953  12.094   4.792  0.0329  0.0771  0.0546
  682PSPI    C210214   9.699  12.000   4.498 -0.0457  0.1088  0.1123
  682PSPI    C310215  10.051  11.813   4.525 -0.0935  0.0128  0.0752
  682PSPI   PO410216   9.750  12.176   5.093  0.0085  0.0280 -0.0256
  682PSPI   GL110217   9.876  12.322   5.500 -0.1065 -0.1384  0.0596
  682PSPI   GL210218   9.762  12.063   5.762  0.1353  0.0507 -0.0906
  682PSPI   C1A10219   9.720  12.568   5.822 -0.1380 -0.0174  0.0072
  682PSPI   C2A10220   9.807  12.467   6.223 -0.0516 -0.1666  0.0619
  682PSPI   C3A10221  10.069  12.528   6.592 -0.1339 -0.1055  0.0400
  682PSPI   C4A10222  10.149  12.937   6.869 -0.0869 -0.0042 -0.3381
  682PSPI   C1B10223   9.918  11.728   6.050  0.0842 -0.2942 -0.0617
  682PSPI   C2B10224   9.996  11.574   6.394 -0.3822  0.1014  0.0554
  682PSPI   C3B10225  10.088  11.461   6.773  0.0670 -0.1642  0.0207
  682PSPI   C4B10226  10.482  11.270   6.927  0.0736 -0.0747  0.3769
  683PSPI    C110227  17.673  11.248   5.369 -0.2913 -0.0413  0.1757
  683PSPI    C210228  17.607  11.095   5.005 -0.0396 -0.1479  0.1727
  683PSPI    C310229  17.636  11.491   5.053  0.1069 -0.1422  0.0452
  683PSPI   PO410230  17.521  11.117   5.500 -0.0466 -0.0358 -0.0853
  683PSPI   GL110231  17.678  11.285   5.877  0.3384 -0.3554 -0.0967
  683PSPI   GL210232  17.873  11.019   5.855  0.2132 -0.2376 -0.0998
  683PSPI   C1A10233  17.564  11.275   6.268 -0.0313 -0.1766 -0.1293
  683PSPI   C2A10234  17.651  11.176   6.642  0.0107 -0.0547  0.2504
  683PSPI   C3A10235  17.677  10.880   6.964  0.1046 -0.1658 -0.1260
  683PSPI   C4A10236  17.577  10.933   7.410  0.2924  0.0599 -0.4716
  683PSPI   C1B10237  18.078  10.908   6.241  0.1529  0.3559 -0.1254
  683PSPI   C2B10238  18.147  11.034   6.663  0.1251 -0.0510  0.1461
  683PSPI   C3B10239  18.101  11.186   7.036  0.0355  0.0270 -0.4541
  683PSPI   C4B10240  17.891  11.380   7.379  0.1509  0.2687  0.0896
  684PSPI    C110241  12.180   2.059   5.374  0.0459 -0.1194 -0.0254
  684PSPI    C210242  12.139   2.143   4.985 -0.1630  0.0249  0.0260
  684PSPI    C310243  12.305   2.411   5.232 -0.1388 -0.0187  0.0572
  684PSPI   PO410244  12.075   1.718   5.389 -0.3082  0.2380 -0.0088
  684PSPI   GL110245  12.119   1.468   5.799 -0.0735  0.1835  0.4674
  684PSPI   GL210246  12.318   1.322   5.681  0.1238  0.1827 -0.0727
  684PSPI   C1A10247  12.162   1.700   6.123  0.1057 -0.0647 -0.2654
  684PSPI   C2A10248  11.955   1.901   6.469 -0.0403 -0.3032  0.1784
  684PSPI   C3A10249  11.725   2.077   6.772  0.0896  0.1767 -0.5448
  684PSPI   C4A10250  11.588   2.444   6.785  0.1235  0.0657 -0.2781
  684PSPI   C1B10251  12.537   1.390   6.094 -0.2308  0.1738 -0.0831
  684PSPI   C2B10252  12.547   1.621   6.370 -0.1847  0.0326  0.1949
  684PSPI   C3B10253  12.461   1.723   6.735  0.0794 -0.1688  0.0163
  684PSPI   C4B10254  12.531   1.713   7.211 -0.1156 -0.1220  0.3750
  685PSPI    C110255  15.515   8.624   5.005  0.2468 -0.0745 -0.1421
  685PSPI    C210256  15.336   8.442   4.697  0.1033  0.0472 -0.1322
  685PSPI    C310257  15.658   8.672   4.635 -0.0164  0.1946 -0.2131
  685PSPI   PO410258  15.566   8.371   5.184  0.2595  0.0482  0.1101
  685PSPI   GL110259  15.382   8.537   5.574  0.3600  0.0147 -0.2353
  685PSPI   GL210260  15.151   8.862   5.493  0.1993 -0.2203  0.1640
  685PSPI   C1A10261  15.517   8.228   5.934 -0.1753 -0.0238 -0.0861
  685PSPI   C2A10262  15.548   7.873   6.253  0.2349  0.1327 -0.0714
  685PSPI   C3A10263  15.527   7.999   6.634  0.1077  0.0801 -0.1273
  685PSPI   C4A10264  15.329   8.005   6.960 -0.1829  0.1491 -0.1555
  685PSPI   C1B10265  15.131   8.867   5.957 -0.2430  0.0551  0.0978
  685PSPI   C2B10266  15.042   8.519   6.039 -0.2810  0.2915  0.1547
  685PSPI   C3B10267  15.227   8.285   6.294 -0.2219 -0.0147  0.3166
  685PSPI   C4B10268  15.041   7.945   6.550  0.0913  0.1551  0.0861
  686PSPI    C110269  17.571   5.921   5.074  0.0844  0.0133  0.0139
  686PSPI    C210270  17.529   5.585   4.861 -0.2393 -0.0409  0.1580
  686PSPI    C310271  17.805   5.605   5.150  0.0821 -0.0269 -0.1436
  686PSPI   PO410272  17.318   5.905   5.177  0.0451 -0.0121  0.0497
  686PSPI   GL110273  16.909   5.802   5.238 -0.3374 -0.1490  0.1871
  686PSPI   GL210274  17.079   5.778   5.621  0.3237 -0.0855 -0.0199
  686PSPI   C1A10275  16.606   5.990   5.561 -0.1911 -0.0119  0.0191
  686PSPI   C2A10276  16.375   6.106   6.004  0.1223  0.0268 -0.3407
  686PSPI   C3A10277  16.142   6.397   6.334 -0.1282 -0.2879  0.1599
  686PSPI   C4A10278  16.005   6.823   6.335  0.2045  0.0318 -0.2195
  686PSPI   C1B10279  16.753   5.692   6.031  0.2922 -0.2881  0.2731
  686PSPI   C2B10280  16.754   5.504   6.485 -0.1384  0.1062  0.2527
  686PSPI   C3B10281  16.880   5.716   6.816  0.0784 -0.0996  0.4471
  686PSPI   C4B10282  16.885   5.516   7.145  0.1144  0.0154  0.0128
  687PSPI    C110283  14.838   5.527   5.160 -0.2758 -0.1872 -0.0210
  687PSPI    C210284  14.559   5.322   4.959 -0.0929 -0.2269 -0.2391
  687PSPI    C310285  14.946   5.230   4.914 -0.0380 -0.1246  0.0049
  687PSPI   PO410286  14.761   5.446   5.471  0.0919 -0.3414 -0.0538
  687PSPI   GL110287  14.755   5.383   5.928  0.1755 -0.2826 -0.2323
  687PSPI   GL210288  14.865   5.699   5.980 -0.1045 -0.0175  0.2748
  687PSPI   C1A10289  14.886   5.380   6.416  0.2394  0.0031  0.0827
  687PSPI   C2A10290  15.032   5.781   6.696  0.1933  0.2425 -0.0798
  687PSPI   C3A10291  15.225   6.035   6.863 -0.5147  0.3595  0.3695
  687PSPI   C4A10292  15.499   6.089   7.174 -0.3132  0.0844  0.0028
  687PSPI   C1B10293  14.712   6.168   5.929 -0.2194  0.2752 -0.1236
  687PSPI   C2B10294  14.729   6.527   6.124  0.4457  0.1581 -0.1646
  687PSPI   C3B10295  14.647   6.459   6.530  0.1034 -0.0667 -0.1309
  687PSPI   C4B10296  14.628   6.129   6.849  0.0157  0.0105  0.2120
  688PSPI    C110297  15.765  11.041   5.510 -0.1027  0.1306  0.0856
  688PSPI    C210298  15.591  11.081   5.868 -0.1114 -0.2010  0.1216
  688PSPI    C310299  15.469  11.305   5.560 -0.1271  0.0620  0.3154
  688PSPI   PO410300  16.009  10.852   5.558  0.2153 -0.3053 -0.0291
  688PSPI   GL110301  16.405  10.845   5.859  0.1283 -0.0139  0.0584
  688PSPI   GL210302  16.075  11.061   5.983  0.0823  0.0523 -0.0506
  688PSPI   C1A10303  16.529  11.039   6.303 -0.1201  0.1305 -0.0113
  688PSPI   C2A10304  16.618  11.023   6.712  0.2266  0.1014  0.1589
  688PSPI   C3A10305  16.511  10.934   7.180 -0.0449 -0.0161  0.1694
  688PSPI   C4A10306  16.525  10.610   7.412 -0.5669 -0.0342 -0.0103
  688PSPI   C1B10307  15.774  10.912   6.296 -0.0884 -0.0846 -0.0172
  688PSPI   C2B10308  15.516  10.796   6.671  0.3287 -0.0243  0.0157
  688PSPI   C3B10309  15.343  10.643   7.024 -0.2446  0.1707  0.2145
  688PSPI   C4B10310  15.170  10.264   7.176 -0.0451 -0.1871  0.3317
  689PSPI    C110311  17.820  13.089   5.329  0.0911  0.0681 -0.0903
  689PSPI    C210312  17.802  13.407   5.087  0.0916 -0.0149 -0.1995
  689PSPI    C310313  17.667  13.052   4.962 -0.1037 -0.0117 -0.0026
  689PSPI   PO410314  18.039  13.182   5.546 -0.0346 -0.4332  0.1284
  689PSPI   GL110315  18.022  13.375   6.094 -0.0317  0.2348  0.0066
  689PSPI   GL210316  18.396  13.308   6.035  0.2340 -0.1164  0.0818
  689PSPI   C1A10317  17.901  13.369   6.580 -0.1116  0.2057  0.3828
  689PSPI   C2A10318  18.050  13.432   7.032 -0.1896  0.0580 -0.0416
  689PSPI   C3A10319  17.896  13.491   7.359  0.0823 -0.0290  0.1968
  689PSPI   C4A10320  17.969  13.891   7.657 -0.2412 -0.1443 -0.0089
  689PSPI   C1B10321  18.642  12.893   6.233  0.2918 -0.2733 -0.0002
  689PSPI   C2B10322  18.839  12.951   6.675 -0.3087 -0.0889 -0.2589
  689PSPI   C3B10323  18.883  12.888   7.074 -0.2667 -0.1640 -0.0679
  689PSPI   C4B10324  19.058  12.650   7.439 -0.2998  0.2776 -0.2183
  690PSPI    C110325  19.000  18.042   5.807 -0.1570 -0.2308  0.1292
  690PSPI    C210326  19.031  17.930   5.424 -0.2009  0.0877  0.0289
  690PSPI    C310327  19.360  17.980   5.646 -0.1678  0.0595 -0.0138
  690PSPI   PO410328  18.836  18.243   5.774  0.0961 -0.1327 -0.0147
  690PSPI   GL110329  18.649  18.514   6.115 -0.1894 -0.0022  0.2735
  690PSPI   GL210330  18.684  18.289   6.242  0.2518 -0.2803 -0.4938
  690PSPI   C1A10331  18.470  18.832   6.378  0.0518 -0.1916 -0.2136
  690PSPI   C2A10332  18.423  18.852   6.825  0.1688 -0.0872  0.3075
  690PSPI   C3A10333  18.540  18.739   7.264  0.0283 -0.0259 -0.4196
  690PSPI   C4A10334  18.533  18.277   7.445  0.1851  0.1688  0.0016
  690PSPI   C1B10335  18.513  18.239   6.632  0.1662  0.1035 -0.0830
  690PSPI   C2B10336  18.425  18.396   6.959  0.0310 -0.3022  0.0862
  690PSPI   C3B10337  17.981  18.566   7.201 -0.1376 -0.0816 -0.1580
  690PSPI   C4B10338  17.723  18.568   7.615 -0.1117  0.3116  0.0833
  691PSPI    C110339   8.912  16.701   5.285  0.0552 -0.2301 -0.1598
  691PSPI    C210340   8.808  16.338   5.154 -0.2712 -0.1976 -0.0013
  691PSPI    C310341   8.622  16.663   5.014 -0.1479 -0.1091  0.0369
  691PSPI   PO410342   9.108  16.628   5.482  0.0028 -0.1812  0.0539
  691PSPI   GL110343   9.157  16.678   5.912 -0.2876 -0.4587 -0.0806
  691PSPI   GL210344   9.428  16.832   5.921 -0.0733  0.2451 -0.1378
  691PSPI   C1A10345   9.250  16.495   6.315 -0.0323 -0.0071 -0.1131
  691PSPI   C2A10346   9.116  16.439   6.784  0.3402  0.4012  0.0267
  691PSPI   C3A10347   8.800  16.083   6.921  0.1638 -0.2461  0.2382
  691PSPI   C4A10348   8.402  15.952   6.891  0.0212 -0.2083 -0.0581
  691PSPI   C1B10349   9.198  17.032   6.306  0.0005  0.2819  0.0436
  691PSPI   C2B10350   9.207  16.948   6.714 -0.2500  0.1483  0.2029
  691PSPI   C3B10351   9.111  17.032   7.099 -0.0443 -0.1887  0.0218
  691PSPI   C4B10352   9.246  17.290   7.433  0.0176 -0.0682 -0.0314
  692PSPI    C110353   7.282   8.836   4.735  0.0410  0.0870 -0.4418
  692PSPI    C210354   7.242   8.454   4.626 -0.2959 -0.0549  0.1344
  692PSPI    C310355   6.932   8.704   4.595 -0.2143  0.0546  0.1940
  692PSPI   PO410356   7.355   8.852   4.959 -0.0845  0.1473  0.0534
  692PSPI   GL110357   7.574   8.973   5.314  0.2901  0.1565 -0.0146
  692PSPI   GL210358   7.228   9.037   5.432  0.3469  0.1890 -0.0773
  692PSPI   C1A10359   7.454   8.619   5.603  0.2089  0.2914 -0.2837
  692PSPI   C2A10360   7.527   8.502   6.056  0.2859 -0.0059  0.1269
  692PSPI   C3A10361   7.481   8.550   6.396  0.1254  0.0990  0.0827
  692PSPI   C4A10362   7.551   8.721   6.852  0.2137  0.0017  0.0878
  692PSPI   C1B10363   7.112   9.230   5.779  0.3021 -0.2018 -0.1589
  692PSPI   C2B10364   6.933   9.416   6.106 -0.4485  0.1343  0.0989
  692PSPI   C3B10365   7.097   9.533   6.364 -0.4573  0.4385 -0.0363
  692PSPI   C4B10366   7.186   9.717   6.781 -0.1252 -0.0609 -0.0623
  693PSPI    C110367   7.442  11.151   5.035  0.0645  0.1170 -0.0200
  693PSPI    C210368   7.841  11.135   5.054  0.0575 -0.0030  0.0416
  693PSPI    C310369   7.662  11.408   4.822  0.1762 -0.0163 -0.0672
  693PSPI   PO410370   7.380  11.179   5.245 -0.2626 -0.0178 -0.0123
  693PSPI   GL110371   7.783  11.273   5.551  0.1506  0.1093 -0.0509
  693PSPI   GL210372   7.896  10.956   5.541  0.5777 -0.1138 -0.1002
  693PSPI   C1A10373   8.009  11.173   5.953 -0.1154  0.0827 -0.0204
  693PSPI   C2A10374   8.119  11.298   6.347 -0.0639 -0.1088  0.1368
  693PSPI   C3A10375   7.956  11.334   6.701  0.1083 -0.1315 -0.1515
  693PSPI   C4A10376   7.874  11.393   7.130  0.0868 -0.0726 -0.2052
  693PSPI   C1B10377   7.945  10.683   6.022  0.2509  0.0875  0.2181
  693PSPI   C2B10378   8.116  10.724   6.416  0.2624  0.0802 -0.0995
  693PSPI   C3B10379   8.169  10.936   6.878 -0.0412 -0.1480  0.1367
  693PSPI   C4B10380   8.076  10.937   7.366 -0.4181 -0.0968  0.0387
  694POPI    C110381  16.832  12.103   5.062 -0.1360 -0.0833 -0.1311
  694POPI    C210382  17.142  11.851   5.097 -0.0042  0.0950  0.0042
  694POPI    C310383  16.870  11.795   4.808  0.0104 -0.2145  0.0470
  694POPI   PO410384  16.664  12.112   5.355  0.2279 -0.0994  0.1980
  694POPI   GL110385  16.506  11.953   5.795 -0.2253  0.2463  0.0242
  694POPI   GL210386  16.635  12.049   6.086  0.2821 -0.4309 -0.2302
  694POPI   C1A10387  16.042  11.839   6.116 -0.2575  0.2358 -0.2059
  694POPI   D2A10388  15.888  11.743   6.626 -0.2750  0.0410 -0.0974
  694POPI   C3A10389  15.914  12.010   7.000 -0.0550 -0.0520 -0.1050
  694POPI   C4A10390  15.739  12.013   7.401 -0.1150 -0.0798 -0.1120
  694POPI   C1B10391  16.468  12.164   6.537  0.0588 -0.2106  0.3287
  694POPI   C2B10392  16.584  12.150   6.941 -0.0053 -0.0626 -0.2521
  694POPI   C3B10393  16.958  12.324   7.201 -0.3065  0.0341  0.2069
  694POPI   C4B10394  17.144  12.567   7.462  0.0054  0.0721 -0.2110
  695POPI    C110395  10.739  17.458   4.939  0.0909  0.0949  0.0274
  695POPI    C210396  11.096  17.282   4.902  0.1094  0.0964  0.1936
  695POPI    C310397  11.040  17.652   4.761  0.1196  0.0244 -0.0015
  695POPI   PO410398  10.709  17.270   5.248 -0.0941 -0.1067 -0.0680
  695POPI   GL110399  10.840  17.300   5.640  0.1562 -0.2375  0.0435
  695POPI   GL210400  10.955  17.539   5.791  0.2265  0.0009 -0.0134
  695POPI   C1A10401  10.843  17.029   6.035  0.1444 -0.1603  0.0059
  695POPI   D2A10402  10.995  16.680   6.189  0.0931 -0.1698  0.0226
  695POPI   C3A10403  10.712  16.430   6.461  0.2255 -0.1920  0.2652
  695POPI   C4A10404  10.629  16.103   6.701  0.0372  0.0246  0.1815
  695POPI   C1B10405  11.212  17.401   6.028 -0.4394 -0.1879 -0.1018
  695POPI   C2B10406  11.279  17.742   6.294 -0.3908  0.3497 -0.0542
  695POPI   C3B10407  11.149  17.827   6.654  0.3209  0.0629 -0.1415
  695POPI   C4B10408  11.263  17.777   7.110 -0.0753 -0.3442 -0.2117
  696POPI    C110409   1.974   7.021   5.341  0.4098 -0.0936  0.0665
  696POPI    C210410   2.255   7.149   5.086 -0.0877  0.1826 -0.3617
  696POPI    C310411   1.924   6.971   4.948 -0.1572 -0.0884  0.1292
  696POPI   PO410412   2.057   7.110   5.585  0.1702 -0.1302  0.1096
  696POPI   GL110413   1.965   7.434   5.920  0.2909 -0.2405  0.1477
  696POPI   GL210414   1.785   7.643   5.860  0.3724  0.2206  0.2441
  696POPI   C1A10415   2.162   7.652   6.240  0.1964 -0.5441  0.1563
  696POPI   D2A10416   2.363   8.095   6.270 -0.0456 -0.0056 -0.0399
  696POPI   C3A10417   2.154   8.309   6.577  0.3326 -0.0301 -0.1182
  696POPI   C4A10418   1.737   8.399   6.913  0.2101  0.1187 -0.0570
  696POPI   C1B10419   1.581   7.644   6.223  0.0122  0.0207 -0.0113
  696POPI   C2B10420   1.281   7.544   6.514 -0.4011 -0.1348 -0.0160
  696POPI   C3B10421   1.019   7.301   6.753 -0.4052  0.1193 -0.1658
  696POPI   C4B10422   0.728   7.394   7.112 -0.0385 -0.3420 -0.2290
  697POPI    C110423   4.643  11.058   5.103  0.3864  0.1065  0.1581
  697POPI    C210424   4.642  11.225   4.739 -0.1876 -0.1782  0.0158
  697POPI    C310425   4.697  10.830   4.778 -0.2297 -0.1640  0.2300
  697POPI   PO410426   4.786  11.200   5.314 -0.5203 -0.0215 -0.0126
  697POPI   GL110427   4.689  11.095   5.783 -0.1115 -0.0018 -0.0436
  697POPI   GL210428   4.590  11.343   5.760  0.1166  0.0137  0.0671
  697POPI   C1A10429   4.347  10.854   6.141 -0.3169 -0.0641  0.2611
  697POPI   D2A10430   3.965  10.607   6.327  0.3253  0.2417 -0.0544
  697POPI   C3A10431   3.513  10.778   6.299 -0.0478  0.1361  0.0716
  697POPI   C4A10432   3.352  11.087   6.550 -0.0548  0.0998  0.0091
  697POPI   C1B10433   4.436  11.324   6.089  0.1868 -0.1225 -0.1313
  697POPI   C2B10434   4.348  11.227   6.542  0.1687 -0.2080 -0.2038
  697POPI   C3B10435   4.260  10.804   6.719 -0.1041 -0.4863 -0.0364
  697POPI   C4B10436   4.496  10.566   6.981  0.3842  0.2254 -0.0224
  698POPI    C110437   9.656   3.153   4.984 -0.0004 -0.1749 -0.2037
  698POPI    C210438   9.984   3.200   4.761 -0.0082  0.0437 -0.1710
  698POPI    C310439   9.658   3.418   4.685 -0.0110  0.1192  0.0527
  698POPI   PO410440   9.841   3.118   5.262 -0.0703  0.0056  0.2290
  698POPI   GL110441   9.907   3.327   5.647 -0.2931 -0.1543  0.0930
  698POPI   GL210442   9.879   3.010   5.834  0.0742 -0.1060  0.0334
  698POPI   C1A10443  10.043   3.392   6.126 -0.2829  0.5020 -0.0198
  698POPI   D2A10444  10.009   3.450   6.527  0.1961 -0.1833  0.1705
  698POPI   C3A10445  10.054   3.819   6.695 -0.1964  0.0663 -0.3417
  698POPI   C4A10446  10.344   3.905   6.948 -0.2638 -0.0335 -0.1528
  698POPI   C1B10447  10.045   2.676   6.113 -0.0583  0.4193  0.0842
  698POPI   C2B10448  10.133   2.596   6.468  0.3021  0.0916  0.2326
  698POPI   C3B10449  10.331   2.618   6.942  0.1434 -0.2398  0.0106
  698POPI   C4B10450  10.297   2.587   7.407 -0.1815 -0.4019  0.0679
  699POPI    C110451   9.620   5.341   4.936 -0.0958 -0.0816  0.1057
  699POPI    C210452   9.730   5.704   4.810 -0.0641 -0.0721  0.1607
  699POPI    C310453   9.609   5.429   4.546  0.2151 -0.1251  0.0847
  699POPI   PO410454   9.543   5.376   5.131 -0.1008 -0.0454 -0.1859
  699POPI   GL110455   9.598   5.334   5.441 -0.0867  0.0003  0.1844
  699POPI   GL210456   9.454   5.180   5.602  0.2856 -0.0698 -0.3219
  699POPI   C1A10457   9.549   5.694   5.732  0.2098 -0.0479 -0.2190
  699POPI   D2A10458   9.769   6.059   5.902 -0.3933  0.0023  0.0903
  699POPI   C3A10459   9.810   6.110   6.335 -0.2122 -0.1736 -0.0211
  699POPI   C4A10460   9.851   6.031   6.697  0.1856 -0.1124  0.1882
  699POPI   C1B10461   9.413   5.309   5.995 -0.2990  0.0809 -0.3099
  699POPI   C2B10462   9.539   5.060   6.442  0.3335 -0.1827 -0.0352
  699POPI   C3B10463   9.634   5.093   6.849  0.0071 -0.1057 -0.2005
  699POPI   C4B10464   9.620   5.028   7.288  0.3232 -0.0027 -0.1818
  700POPI    C110465  11.278   5.963   4.853  0.0897  0.1286  0.0225
  700POPI    C210466  11.607   5.753   4.766 -0.1152 -0.1344 -0.1327
  700POPI    C310467  11.403   5.936   4.474 -0.1143  0.0190 -0.0383
  700POPI   PO410468  11.187   5.740   5.072 -0.3515 -0.0095 -0.3018
  700POPI   GL110469  11.235   5.940   5.532  0.1783 -0.0141  0.2561
  700POPI   GL210470  10.925   6.028   5.515  0.1949 -0.2643  0.0718
  700POPI   C1A10471  11.473   5.856   5.940  0.2188 -0.0767  0.0766
  700POPI   D2A10472  11.552   5.656   6.403  0.5437 -0.1419  0.0925
  700POPI   C3A10473  11.814   5.535   6.724 -0.0125 -0.0797  0.0350
  700POPI   C4A10474  11.987   5.839   7.025  0.2134  0.0305  0.0389
  700POPI   C1B10475  10.693   6.047   5.892  0.0099  0.0393 -0.0203
  700POPI   C2B10476  10.643   6.215   6.188  0.3032  0.0525  0.1957
  700POPI   C3B10477  10.753   6.575   6.534  0.0204 -0.1045  0.1743
  700POPI   C4B10478  10.525   6.560   6.934 -0.0001 -0.0538 -0.2261
  701POPI    C110479   1.985   2.121   5.195  0.0466  0.0217  0.2119
  701POPI    C210480   1.636   2.288   5.095  0.0700  0.1350  0.3159
  701POPI    C310481   1.979   2.461   4.984  0.0945 -0.0811  0.0432
  701POPI   PO410482   2.009   2.148   5.496  0.1385  0.1406 -0.0129
  701POPI   GL110483   2.011   2.354   5.976 -0.1383  0.0610 -0.3775
  701POPI   GL210484   1.804   2.681   6.023 -0.0715 -0.2364 -0.2267
  701POPI   C1A10485   2.163   2.156   6.292 -0.3781  0.3704 -0.3071
  701POPI   D2A10486   2.021   2.088   6.684 -0.0464 -0.4718 -0.1894
  701POPI   C3A10487   2.095   1.879   7.122  0.0382  0.5377  0.0113
  701POPI   C4A10488   2.483   1.699   7.261  0.0322  0.2819 -0.2331
  701POPI   C1B10489   1.874   3.000   6.286  0.2082  0.0380 -0.4730
  701POPI   C2B10490   2.098   3.085   6.643  0.2606  0.3269 -0.0319
  701POPI   C3B10491   2.532   2.928   6.837  0.3049  0.0638 -0.2477
  701POPI   C4B10492   2.652   2.692   6.907 -0.1256  0.0892  0.1132
  702POPI    C110493  17.685   5.130   5.161  0.0080 -0.0783 -0.0511
  702POPI    C210494  18.077   5.117   5.082 -0.0010 -0.1363 -0.0873
  702POPI    C310495  17.813   5.001   4.805 -0.0481 -0.0024 -0.0993
  702POPI   PO410496  17.689   5.175   5.436 -0.0185  0.0755 -0.1155
  702POPI   GL110497  17.415   4.947   5.809 -0.0903  0.3065  0.1347
  702POPI   GL210498  17.230   5.103   5.694  0.1570 -0.2323  0.0895
  702POPI   C1A10499  17.388   4.822   6.242  0.1490  0.0960 -0.1002
  702POPI   D2A10500  17.377   4.731   6.777  0.0879 -0.3081 -0.2809
  702POPI   C3A10501  17.238   5.061   7.159  0.3681 -0.0317 -0.0361
  702POPI   C4A10502  17.203   5.338   7.510  0.1829 -0.1484  0.0020
  702POPI   C1B10503  17.272   5.329   6.051  0.0936 -0.1863  0.1686
  702POPI   C2B10504  17.211   5.338   6.355  0.2220 -0.0604  0.1691
  702POPI   C3B10505  17.258   5.245   6.689 -0.2538 -0.0740 -0.2897
  702POPI   C4B10506  17.424   5.468   6.974 -0.0470  0.0011  0.0236
  703POPI    C110507  15.351  13.274   5.464  0.2861 -0.3684  0.2302
  703POPI    C210508  15.041  13.079   5.625 -0.0329 -0.0671 -0.0058
  703POPI    C310509  15.118  13.044   5.234  0.0074  0.1453 -0.0182
  703POPI   PO410510  15.540  13.236   5.654  0.0778 -0.1108  0.1543
  703POPI   GL110511  15.512  13.394   6.051  0.0748  0.0665  0.1761
  703POPI   GL210512  15.299  13.496   6.129 -0.0316 -0.0999  0.2010
  703POPI   C1A10513  15.632  13.054   6.397  0.0925  0.0395 -0.1645
  703POPI   D2A10514  15.991  13.170   6.585 -0.1789 -0.0684 -0.1030
  703POPI   C3A10515  16.054  13.416   7.021  0.0394  0.0284  0.1567
  703POPI   C4A10516  16.181  13.535   7.425 -0.0688  0.0942  0.1438
  703POPI   C1B10517  15.606  13.541   6.500  0.2092 -0.2125 -0.4510
  703POPI   C2B10518  15.681  13.683   6.903  0.0141 -0.0692  0.3614
  703POPI   C3B10519  15.757  13.939   7.225 -0.0896 -0.0738 -0.0671
  703POPI   C4B10520  15.972  13.995   7.579  0.1150 -0.2243  0.2109
  704POPI    C110521   4.662  13.892   5.591  0.1415  0.1777 -0.3344
  704POPI    C210522   4.303  13.770   5.719  0.3659 -0.2166 -0.0596
  704POPI    C310523   4.361  13.848   5.331 -0.0926  0.1482 -0.0633
  704POPI   PO410524   4.874  13.729   5.671 -0.1969 -0.1075  0.4443
  704POPI   GL110525   5.180  13.603   5.909  0.0132 -0.0511  0.1748
  704POPI   GL210526   5.408  13.653   6.000 -0.4203 -0.0063  0.3203
  704POPI   C1A10527   5.148  13.600   6.399 -0.2173  0.4465 -0.1552
  704POPI   D2A10528   4.941  13.498   6.758 -0.0455 -0.1877 -0.2694
  704POPI   C3A10529   5.251  13.558   7.150 -0.1531 -0.2097 -0.1785
  704POPI   C4A10530   5.474  13.238   7.307 -0.1387 -0.3731 -0.0522
  704POPI   C1B10531   5.424  14.011   6.245 -0.0273 -0.1619 -0.2393
  704POPI   C2B10532   5.398  14.373   6.526  0.0528 -0.3093  0.0440
  704POPI   C3B10533   5.151  14.435   6.947 -0.2186 -0.3532  0.1646
  704POPI   C4B10534   4.853  14.271   7.280 -0.1221 -0.2010  0.0916
  705POPI    C110535  14.937  15.236   5.372 -0.2946 -0.0230 -0.1463
  705POPI    C210536  15.086  15.473   5.086  0.1788 -0.1291  0.0037
  705POPI    C310537  15.213  15.095   5.119  0.0157 -0.1642  0.2602
  705POPI   PO410538  14.990  15.314   5.555 -0.2003  0.0543 -0.0250
  705POPI   GL110539  15.156  15.359   5.927 -0.2890 -0.0268  0.0647
  705POPI   GL210540  14.887  15.378   6.031  0.1125 -0.0091  0.2121
  705POPI   C1A10541  15.308  15.318   6.311  0.0942  0.0714 -0.0002
  705POPI   D2A10542  15.289  15.349   6.814 -0.1199  0.1872 -0.1349
  705POPI   C3A10543  15.047  15.306   7.212 -0.1568  0.1143  0.0920
  705POPI   C4A10544  15.116  15.151   7.670  0.6358  0.2389 -0.2900
  705POPI   C1B10545  14.748  15.270   6.481  0.0442 -0.0125  0.1599
  705POPI   C2B10546  14.532  15.352   6.877  0.2816  0.2707 -0.0924
  705POPI   C3B10547  14.499  15.549   7.290 -0.1905  0.2747 -0.1066
  705POPI   C4B10548  14.351  15.820   7.560 -0.0607 -0.0112 -0.0906
  706POPI    C110549   4.486  11.789   5.519 -0.2132 -0.2264 -0.4997
  706POPI    C210550   4.732  12.012   5.297 -0.0439 -0.1532 -0.2442
  706POPI    C310551   4.587  11.669   5.151  0.0987 -0.1285 -0.4490
  706POPI   PO410552   4.524  11.934   5.732  0.1872 -0.3715  0.1886
  706POPI   GL110553   4.821  11.649   6.073 -0.1665 -0.1026  0.2529
  706POPI   GL210554   5.135  11.737   6.042  0.1278 -0.1330 -0.2682
  706POPI   C1A10555   4.620  11.582   6.464 -0.4651 -0.2379  0.0919
  706POPI   D2A10556   4.651  11.636   6.854  0.0373 -0.0597  0.1348
  706POPI   C3A10557   4.949  11.487   7.187  0.3793 -0.1326 -0.2776
  706POPI   C4A10558   5.310  11.328   7.255 -0.0360  0.1188 -0.0406
  706POPI   C1B10559   5.232  11.405   6.419 -0.2304 -0.3457  0.0866
  706POPI   C2B10560   5.000  11.269   6.728  0.3711 -0.2544 -0.1713
  706POPI   C3B10561   4.592  11.078   6.977  0.0513  0.1836 -0.1752
  706POPI   C4B10562   4.488  10.848   7.433 -0.0514 -0.3060  0.1664
  707POPI    C110563  14.165  12.143   5.480 -0.0863 -0.0584  0.1038
  707POPI    C210564  13.857  12.323   5.662  0.0459  0.3979 -0.1106
  707POPI    C310565  13.843  12.252   5.268  0.0801  0.1168 -0.0630
  707POPI   PO410566  14.234  11.971   5.702 -0.2695 -0.1608 -0.0282
  707POPI   GL110567  14.187  12.042   6.186 -0.1254  0.4185 -0.0621
  707POPI   GL210568  14.438  11.866   6.182 -0.2717 -0.2791  0.0887
  707POPI   C1A10569  14.046  12.063   6.528 -0.1263  0.0916 -0.0656
  707POPI   D2A10570  13.970  11.858   7.030 -0.2360 -0.2286 -0.3878
  707POPI   C3A10571  13.787  11.417   6.975 -0.2455  0.0121  0.2168
  707POPI   C4A10572  13.453  11.150   7.051  0.1411  0.1156 -0.0695
  707POPI   C1B10573  14.250  11.527   6.466  0.0609 -0.0287 -0.2765
  707POPI   C2B10574  14.340  11.357   6.837  0.1777 -0.1255 -0.0287
  707POPI   C3B10575  14.636  11.137   7.116  0.0182 -0.1418 -0.0604
  707POPI   C4B10576  14.993  11.426   7.280 -0.1237 -0.0522 -0.1502
  708POPI    C110577   7.981  16.193   5.244 -0.0776  0.1659 -0.1548
  708POPI    C210578   8.103  15.957   4.945  0.1100 -0.1976  0.1992
  708POPI    C310579   8.237  16.333   4.971  0.0273 -0.1352 -0.2145
  708POPI   PO410580   7.992  16.100   5.492  0.1144  0.0268  0.0133
  708POPI   GL110581   7.725  15.903   5.853 -0.1674 -0.3169 -0.0535
  708POPI   GL210582   7.430  16.041   5.902 -0.1506  0.1555 -0.0344
  708POPI   C1A10583   7.771  15.816   6.256  0.0160  0.1289  0.2223
  708POPI   D2A10584   8.167  15.699   6.459 -0.0450 -0.2512  0.1707
  708POPI   C3A10585   8.589  15.974   6.423 -0.0780 -0.2600  0.3229
  708POPI   C4A10586   8.985  16.044   6.475 -0.2378 -0.4230 -0.0718
  708POPI   C1B10587   7.661  16.365   6.217 -0.0172  0.1828 -0.2880
  708POPI   C2B10588   7.824  16.196   6.581  0.0635 -0.2075  0.0535
  708POPI   C3B10589   7.834  15.975   6.947  0.0815 -0.1684 -0.1972
  708POPI   C4B10590   8.090  15.873   7.403 -0.2292 -0.1010  0.1289
  709POPI    C110591  17.749   8.433   5.264 -0.1081 -0.0377  0.1044
  709POPI    C210592  18.075   8.265   5.104 -0.1319  0.1122 -0.1066
  709POPI    C310593  17.713   8.114   5.025 -0.1320  0.0883 -0.0621
  709POPI   PO410594  17.847   8.482   5.499  0.3046 -0.1026  0.2079
  709POPI   GL110595  17.943   8.468   5.805  0.0564 -0.0614  0.2500
  709POPI   GL210596  18.272   8.274   5.853 -0.0505  0.0126 -0.0026
  709POPI   C1A10597  17.903   8.634   6.275 -0.1907  0.0292 -0.0389
  709POPI   D2A10598  17.881   8.823   6.647 -0.0600 -0.1259  0.1243
  709POPI   C3A10599  18.019   8.593   7.042 -0.0723  0.2556  0.1740
  709POPI   C4A10600  18.058   8.120   7.404  0.3958  0.4740  0.1348
  709POPI   C1B10601  18.161   8.136   6.210 -0.1429  0.0538 -0.0733
  709POPI   C2B10602  18.106   7.834   6.440 -0.4945  0.0051  0.2715
  709POPI   C3B10603  18.098   7.702   6.862 -0.3102  0.0982  0.2517
  709POPI   C4B10604  17.782   7.730   7.125  0.1897 -0.1170 -0.1432
  710POPI    C110605  17.681   3.184   5.114 -0.1115 -0.0334  0.2649
  710POPI    C210606  17.391   3.033   4.884 -0.0667 -0.0315  0.2068
  710POPI    C310607  17.710   2.809   4.976 -0.0042  0.0246  0.1275
  710POPI   PO410608  17.514   3.322   5.326  0.0514  0.1378 -0.0289
  710POPI   GL110609  17.288   3.154   5.717  0.3421  0.0854 -0.2086
  710POPI   GL210610  16.862   3.162   5.766  0.3450  0.0918 -0.1100
  710POPI   C1A10611  17.184   3.063   6.175  0.2058 -0.1546 -0.1992
  710POPI   D2A10612  17.153   3.320   6.624  0.0504  0.2047 -0.1124
  710POPI   C3A10613  17.004   3.676   6.557 -0.2250  0.0388 -0.0732
  710POPI   C4A10614  16.931   4.022   6.757 -0.1377 -0.3247 -0.3678
  710POPI   C1B10615  16.821   3.333   6.197  0.1583 -0.0855 -0.0561
  710POPI   C2B10616  16.611   3.340   6.511  0.1789 -0.1282 -0.0724
  710POPI   C3B10617  16.526   3.141   6.901 -0.1375 -0.0019 -0.0021
  710POPI   C4B10618  16.421   2.792   7.111  0.3405 -0.5030 -0.1001
  711POPI    C110619   5.580  10.217   5.168  0.1369 -0.0450 -0.2116
  711POPI    C210620   5.485  10.588   5.284 -0.0858 -0.1809  0.0520
  711POPI    C310621   5.682  10.530   4.940  0.2283  0.2019  0.1604
  711POPI   PO410622   5.654  10.141   5.401 -0.2677 -0.2759 -0.0387
  711POPI   GL110623   5.712  10.520   5.736  0.1215  0.0279  0.0958
  711POPI   GL210624   5.673  10.251   5.913  0.0613  0.1359 -0.2198
  711POPI   C1A10625   5.635  10.835   6.004  0.1758 -0.2503  0.2262
  711POPI   D2A10626   5.334  10.957   6.416 -0.1168 -0.1860  0.0570
  711POPI   C3A10627   5.578  11.238   6.774  0.0459  0.0020  0.0512
  711POPI   C4A10628   5.712  11.047   7.189 -0.0263 -0.1658 -0.0968
  711POPI   C1B10629   5.670  10.547   6.333  0.0057  0.6180  0.1500
  711POPI   C2B10630   5.729  10.633   6.781 -0.1600  0.3483 -0.0873
  711POPI   C3B10631   6.030  10.465   7.103 -0.0347 -0.1800 -0.1704
  711POPI   C4B10632   6.078  10.729   7.449 -0.1005  0.0692  0.0667
  712POPI    C110633  11.500  14.910   5.441  0.0637  0.0631 -0.1490
  712POPI    C210634  11.700  14.571   5.511  0.1058  0.1192  0.0078
  712POPI    C310635  11.358  14.562   5.304  0.1718 -0.0016 -0.0978
  712POPI   PO410636  11.384  15.220   5.606  0.1441  0.0803 -0.0636
  712POPI   GL110637  11.367  15.230   6.025 -0.1698  0.0621  0.2181
  712POPI   GL210638  11.010  15.122   5.935 -0.1989  0.0258  0.1817
  712POPI   C1A10639  11.398  14.984   6.397  0.0367 -0.3338  0.1708
  712POPI   D2A10640  11.740  14.749   6.384 -0.1512 -0.1382 -0.0238
  712POPI   C3A10641  11.874  14.469   6.790  0.0841  0.3554  0.1563
  712POPI   C4A10642  11.768  14.108   7.070 -0.2868  0.1199  0.0259
  712POPI   C1B10643  10.939  15.170   6.452 -0.1649 -0.0704 -0.4571
  712POPI   C2B10644  11.164  15.125   6.823 -0.1200 -0.1377  0.1848
  712POPI   C3B10645  11.320  15.135   7.223  0.0728 -0.0096  0.2377
  712POPI   C4B10646  11.266  14.935   7.564 -0.0979  0.4688 -0.2177
  713POPI    C110647   8.893  15.686   5.655 -0.0213  0.0322 -0.1273
  713POPI    C210648   9.014  15.761   5.281 -0.2194  0.0268 -0.1935
  713POPI    C310649   8.977  16.061   5.543  0.1658 -0.0013 -0.1019
  713POPI   PO410650   8.671  15.627   5.683  0.0600  0.4560  0.1564
  713POPI   GL110651   8.438  15.645   5.978 -0.0086 -0.1191 -0.1164
  713POPI   GL210652   8.225  15.886   5.897  0.4521  0.1041 -0.1540
  713POPI   C1A10653   8.452  15.300   6.317 -0.0799  0.2137  0.0938
  713POPI   D2A10654   8.610  15.018   6.630  0.1715  0.0686  0.0506
  713POPI   C3A10655   8.569  14.656   6.829  0.4359  0.2453  0.1931
  713POPI   C4A10656   8.632  14.278   7.004  0.3566  0.0023 -0.0549
  713POPI   C1B10657   8.236  16.183   6.205  0.2406 -0.0185  0.2266
  713POPI   C2B10658   8.278  16.345   6.643  0.3094 -0.1858  0.0176
  713POPI   C3B10659   8.452  16.484   7.029 -0.1306 -0.2794  0.0022
  713POPI   C4B10660   8.788  16.509   7.272 -0.0954  0.3544 -0.2906
  714POPI    C110661  11.554  18.426   4.987 -0.0575 -0.0223  0.0790
  714POPI    C210662  11.665  18.809   4.952  0.0859 -0.0478  0.2477
  714POPI    C310663  11.346  18.675   4.752  0.1807  0.0992 -0.0066
  714POPI   PO410664  11.556  18.439   5.306 -0.0856 -0.0080 -0.0632
  714POPI   GL110665  11.689  18.378   5.689  0.2221 -0.1040 -0.4035
  714POPI   GL210666  11.451  18.368   5.805  0.1652  0.1252  0.0931
  714POPI   C1A10667  11.889  18.444   6.046 -0.0631 -0.0267  0.1124
  714POPI   D2A10668  12.139  18.370   6.377 -0.0650  0.3245  0.2435
  714POPI   C3A10669  11.976  18.643   6.821 -0.1525  0.0820 -0.2563
  714POPI   C4A10670  11.929  19.029   7.158 -0.1325  0.0491  0.1547
  714POPI   C1B10671  11.421  18.581   6.164 -0.0074  0.0227 -0.2049
  714POPI   C2B10672  11.594  18.558   6.567  0.1662 -0.2744  0.0013
  714POPI   C3B10673  11.512  18.730   7.062  0.0533  0.1480  0.0031
  714POPI   C4B10674  11.520  18.689   7.507  0.1580 -0.2895  0.0427
  715POPI    C110675   7.708  19.120   5.151 -0.1745 -0.1479  0.0668
  715POPI    C210676   7.938  19.131   5.478 -0.2221  0.2845  0.0918
  715POPI    C310677   8.085  19.252   5.126 -0.2570  0.0788  0.0046
  715POPI   PO410678   7.417  18.931   5.265  0.2491  0.0363 -0.2027
  715POPI   GL110679   7.028  18.840   5.646 -0.0064  0.0152  0.2217
  715POPI   GL210680   7.127  18.630   5.743 -0.3912 -0.3344 -0.3846
  715POPI   C1A10681   6.819  18.893   6.059 -0.1583 -0.0939  0.1935
  715POPI   D2A10682   6.879  18.649   6.439  0.2300 -0.0915 -0.2738
  715POPI   C3A10683   6.501  18.818   6.680  0.0185  0.0585  0.1232
  715POPI   C4A10684   6.514  19.264   6.786 -0.0718 -0.2369  0.0662
  715POPI   C1B10685   7.007  18.255   6.086 -0.3299 -0.4045  0.0463
  715POPI   C2B10686   6.928  18.115   6.474 -0.0059  0.1631 -0.0841
  715POPI   C3B10687   7.105  18.015   6.820 -0.0075  0.1237  0.0030
  715POPI   C4B10688   7.538  18.239   7.079  0.1531  0.0063 -0.1710
  716POPI    C110689   7.537  13.562   5.257  0.0601 -0.0697  0.0966
  716POPI    C210690   7.190  13.368   5.211 -0.1170  0.2222  0.1759
  716POPI    C310691   7.318  13.620   4.927  0.1285 -0.0308  0.0577
  716POPI   PO410692   7.708  13.402   5.421 -0.2379  0.1330  0.0673
  716POPI   GL110693   7.726  13.595   5.858 -0.0169 -0.3186 -0.1241
  716POPI   GL210694   8.087  13.673   6.006 -0.1376 -0.1073  0.1938
  716POPI   C1A10695   7.819  13.369   6.204 -0.0125  0.1933  0.0327
  716POPI   D2A10696   7.997  12.996   6.386 -0.1569 -0.1905  0.1363
  716POPI   C3A10697   8.337  13.030   6.656  0.1463  0.1873 -0.0878
  716POPI   C4A10698   8.276  13.017   7.085 -0.3767 -0.2303 -0.2576
  716POPI   C1B10699   8.032  13.687   6.446 -0.0303 -0.4305 -0.1714
  716POPI   C2B10700   8.059  13.462   6.691  0.0427  0.1919 -0.2333
  716POPI   C3B10701   8.012  13.419   7.110 -0.1511 -0.2143 -0.2162
  716POPI   C4B10702   7.697  13.154   7.346  0.2373 -0.0138  0.1294
  717POPI    C110703  14.916  15.973   5.643  0.2624 -0.0235 -0.0599
  717POPI    C210704  14.631  15.838   5.397  0.0927 -0.0320  0.1380
  717POPI    C310705  14.696  16.231   5.431  0.1799 -0.0348  0.0111
  717POPI   PO410706  14.841  15.819   5.822  0.0537  0.1670  0.0480
  717POPI   GL110707  14.876  15.829   6.195 -0.0555  0.2616 -0.2938
  717POPI   GL210708  15.069  16.135   6.124  0.0852 -0.2572 -0.0786
  717POPI   C1A10709  14.865  15.695   6.668 -0.1965 -0.0594 -0.1726
  717POPI   D2A10710  14.878  15.768   7.116  0.0983  0.1776 -0.2393
  717POPI   C3A10711  14.977  15.705   7.585  0.1681 -0.1518 -0.2091
  717POPI   C4A10712  15.173  15.750   7.939 -0.0344 -0.0033  0.0469
  717POPI   C1B10713  14.873  16.315   6.447 -0.2448  0.0364 -0.0648
  717POPI   C2B10714  14.884  16.171   6.822 -0.0586 -0.0978  0.1366
  717POPI   C3B10715  15.122  16.201   7.291  0.1176  0.1626  0.0969
  717POPI   C4B10716  14.978  16.592   7.428 -0.0616  0.0563  0.0724
  718POPI    C110717  18.020  10.240   5.455  0.0716 -0.2637  0.1803
  718POPI    C210718  18.134  10.383   5.099 -0.1798 -0.1417  0.1469
  718POPI    C310719  17.756  10.266   5.156 -0.1954  0.0377  0.4346
  718POPI   PO410720  18.087  10.462   5.581 -0.2890 -0.0166  0.0769
  718POPI   GL110721  18.365  10.551   5.860  0.1521 -0.1670  0.3314
  718POPI   GL210722  18.749  10.616   5.690 -0.0485  0.0677  0.1077
  718POPI   C1A10723  18.521  10.529   6.249 -0.2463 -0.2413 -0.1347
  718POPI   D2A10724  18.619  10.473   6.600 -0.1398 -0.1232 -0.0774
  718POPI   C3A10725  18.524  10.824   6.922 -0.1255  0.1513  0.1014
  718POPI   C4A10726  18.697  10.653   7.312  0.2710 -0.0449  0.3388
  718POPI   C1B10727  18.765  10.217   5.929 -0.2530 -0.2053  0.0346
  718POPI   C2B10728  18.858  10.123   6.290 -0.0034  0.0129  0.0636
  718POPI   C3B10729  18.893  10.091   6.704  0.4334  0.0359 -0.1305
  718POPI   C4B10730  19.018  10.555   6.894  0.2333  0.1405  0.0033
  719POPI    C110731  16.472  10.395   5.156  0.2482 -0.0142 -0.1145
  719POPI    C210732  16.601  10.574   5.490  0.1414  0.0016 -0.0814
  719POPI    C310733  16.427  10.790   5.201  0.0840 -0.0367 -0.0755
  719POPI   PO410734  16.404  10.141   5.191 -0.1864  0.0474  0.2377
  719POPI   GL110735  16.337   9.881   5.574  0.0830 -0.3040 -0.3132
  719POPI   GL210736  16.226  10.276   5.628 -0.1553  0.0950  0.0837
  719POPI   C1A10737  16.453   9.601   5.850 -0.3479  0.1766  0.1948
  719POPI   D2A10738  16.192   9.442   6.106 -0.1328 -0.1348 -0.0122
  719POPI   C3A10739  15.793   9.278   6.144  0.0824 -0.2978  0.1084
  719POPI   C4A10740  15.416   9.180   6.309  0.0159  0.1231 -0.0091
  719POPI   C1B10741  16.401  10.183   5.959  0.3530  0.1288  0.0902
  719POPI   C2B10742  16.208   9.927   6.289  0.1003 -0.0542 -0.0429
  719POPI   C3B10743  16.039   9.969   6.643  0.0519 -0.1526 -0.2497
  719POPI   C4B10744  16.008  10.135   7.060  0.2793  0.1774 -0.1814
  720POPI    C110745   8.494   7.625   4.592 -0.0658 -0.0139 -0.0753
  720POPI    C210746   8.239   7.905   4.463  0.1241  0.1139 -0.1774
  720POPI    C310747   8.424   7.667   4.200  0.0817 -0.0041 -0.1010
  720POPI   PO410748   8.786   7.707   4.859  0.1512  0.2372 -0.1045
  720POPI   GL110749   9.021   7.939   5.191 -0.1156 -0.0010  0.1867
  720POPI   GL210750   9.219   7.647   5.296  0.1845 -0.1905 -0.2596
  720POPI   C1A10751   8.857   7.931   5.598  0.0024 -0.2550 -0.0166
  720POPI   D2A10752   8.811   8.165   6.070 -0.0009 -0.4694 -0.1543
  720POPI   C3A10753   8.803   8.525   6.179  0.0959  0.2176  0.0170
  720POPI   C4A10754   8.552   8.856   6.355 -0.0464 -0.1441  0.5733
  720POPI   C1B10755   9.378   7.895   5.641 -0.4572 -0.0284  0.0575
  720POPI   C2B10756   9.264   7.738   6.011  0.0451 -0.1788 -0.1719
  720POPI   C3B10757   9.135   7.957   6.409 -0.0372 -0.3102 -0.0578
  720POPI   C4B10758   8.772   7.842   6.529  0.0107  0.0574 -0.2900
  721POPI    C110759  18.852  11.886   5.216  0.2191  0.0531  0.0506
  721POPI    C210760  18.634  11.567   5.115  0.1141  0.2523 -0.3762
  721POPI    C310761  19.032  11.553   5.087  0.1417  0.0109  0.0510
  721POPI   PO410762  18.595  11.998   5.341 -0.2797  0.1849  0.1990
  721POPI   GL110763  18.457  11.719   5.568  0.0393 -0.2013 -0.2790
  721POPI   GL210764  18.816  11.598   5.621 -0.1666 -0.3447  0.0991
  721POPI   C1A10765  18.420  11.582   5.984  0.2307 -0.3298  0.3814
  721POPI   D2A10766  18.080  11.459   6.087  0.1222  0.3318 -0.0749
  721POPI   C3A10767  18.045  11.577   6.426 -0.1696  0.1370 -0.1056
  721POPI   C4A10768  17.870  11.737   6.807  0.1095 -0.1446 -0.0824
  721POPI   C1B10769  19.024  11.522   5.923  0.3811 -0.2249  0.0299
  721POPI   C2B10770  18.981  11.358   6.353  0.0552 -0.1128  0.1411
  721POPI   C3B10771  19.042  11.658   6.806 -0.4030 -0.0866 -0.0256
  721POPI   C4B10772  19.196  12.074   7.032 -0.2597  0.1019  0.0973
  722POPI    C110773   5.368  15.964   5.664  0.1495  0.3114 -0.1762
  722POPI    C210774   5.417  16.001   6.060 -0.0962  0.0243 -0.1154
  722POPI    C310775   5.603  16.252   5.811 -0.0698  0.3115  0.1877
  722POPI   PO410776   5.323  15.641   5.687 -0.1572 -0.3578 -0.1340
  722POPI   GL110777   5.528  15.328   5.904  0.1131 -0.2865  0.1323
  722POPI   GL210778   5.350  14.951   5.766  0.3696  0.0575 -0.0653
  722POPI   C1A10779   5.302  15.233   6.283 -0.1257 -0.0411 -0.3509
  722POPI   D2A10780   5.019  15.505   6.429  0.1462  0.1377  0.1822
  722POPI   C3A10781   5.062  15.679   6.902 -0.0223  0.1760 -0.0600
  722POPI   C4A10782   5.345  15.674   7.197  0.0307  0.1605 -0.1063
  722POPI   C1B10783   5.589  14.866   6.187 -0.0772  0.1487  0.0559
  722POPI   C2B10784   6.058  14.757   6.201 -0.0931 -0.0528 -0.3641
  722POPI   C3B10785   6.374  14.999   6.229 -0.0248 -0.0151  0.0334
  722POPI   C4B10786   6.732  15.105   6.253 -0.0699 -0.3599 -0.0182
  723POPI    C110787   7.993   1.589   4.815  0.2316 -0.0275  0.0633
  723POPI    C210788   7.721   1.795   4.606  0.1716 -0.0546  0.1145
  723POPI    C310789   7.837   1.433   4.482  0.0245 -0.1349  0.2087
  723POPI   PO410790   7.942   1.731   5.098  0.0308  0.1663 -0.1533
  723POPI   GL110791   8.026   1.733   5.630  0.0838 -0.1608  0.0973
  723POPI   GL210792   7.950   2.105   5.749 -0.0783  0.0001  0.2658
  723POPI   C1A10793   7.894   1.617   6.111  0.0058 -0.3347 -0.1801
  723POPI   D2A10794   7.774   1.237   6.381  0.0724  0.2692  0.0162
  723POPI   C3A10795   7.760   0.820   6.252 -0.3678  0.0313 -0.0747
  723POPI   C4A10796   7.508   0.372   6.085 -0.4312 -0.0309 -0.3194
  723POPI   C1B10797   7.913   2.071   6.281  0.4818  0.1197  0.3656
  723POPI   C2B10798   7.886   1.983   6.622  0.1559 -0.2199 -0.2879
  723POPI   C3B10799   7.835   1.778   7.107 -0.2033  0.1495  0.2490
  723POPI   C4B10800   8.033   1.530   7.439  0.0143 -0.4466  0.0599
  724POPI    C110801  12.702  17.224   5.004 -0.0700  0.3041 -0.2988
  724POPI    C210802  12.406  17.156   4.744 -0.0690 -0.0802 -0.2052
  724POPI    C310803  12.728  16.920   4.746  0.1284  0.1853 -0.1407
  724POPI   PO410804  12.645  17.351   5.224 -0.1529  0.0289 -0.1245
  724POPI   GL110805  12.689  17.591   5.562  0.0911  0.2227  0.0556
  724POPI   GL210806  12.970  17.538   5.835 -0.1719 -0.1715  0.1451
  724POPI   C1A10807  12.583  17.603   6.084  0.1824  0.4276 -0.2681
  724POPI   D2A10808  12.340  17.387   6.450 -0.1295 -0.3808 -0.2448
  724POPI   C3A10809  12.395  17.073   6.688 -0.2922 -0.2706  0.2064
  724POPI   C4A10810  12.517  16.858   7.011  0.1222  0.3892  0.0225
  724POPI   C1B10811  13.135  17.647   6.212  0.0866 -0.1080 -0.5271
  724POPI   C2B10812  13.364  17.663   6.581  0.0680  0.0760 -0.0326
  724POPI   C3B10813  13.540  17.514   6.947  0.0360 -0.2314  0.2815
  724POPI   C4B10814  13.601  17.294   7.305  0.1906 -0.0605 -0.1835
  725POPI    C110815   8.157  14.400   5.250  0.0380 -0.1780  0.2278
  725POPI    C210816   8.533  14.271   5.291  0.0889 -0.1555 -0.1329
  725POPI    C310817   8.439  14.647   5.390  0.1285 -0.2035  0.0927
  725POPI   PO410818   8.060  14.296   5.439 -0.0223 -0.1098  0.1618
  725POPI   GL110819   7.827  14.237   5.855 -0.0860 -0.0652 -0.0523
  725POPI   GL210820   7.755  14.525   5.832  0.0706 -0.0290  0.0768
  725POPI   C1A10821   8.110  14.236   6.235 -0.2869  0.0044 -0.0247
  725POPI   D2A10822   8.183  14.197   6.687  0.1461  0.1623 -0.2600
  725POPI   C3A10823   8.334  13.796   6.866  0.0054  0.2218 -0.1809
  725POPI   C4A10824   8.545  13.410   6.981  0.1770 -0.0091  0.2938
  725POPI   C1B10825   7.813  14.792   6.190  0.1167  0.1403 -0.1196
  725POPI   C2B10826   7.827  14.589   6.696  0.1732 -0.3503 -0.1197
  725POPI   C3B10827   8.034  14.478   7.016  0.0010  0.0555 -0.1819
  725POPI   C4B10828   8.365  14.580   7.309 -0.0022 -0.3372 -0.3400
  726POPI    C110829  16.936  18.818   5.549 -0.0981 -0.0118 -0.1934
  726POPI    C210830  16.986  18.761   5.156 -0.2522 -0.1838 -0.1891
  726POPI    C310831  17.092  18.475   5.415  0.2105  0.0796 -0.0769
  726POPI   PO410832  17.100  19.045   5.707  0.1318 -0.2526 -0.1463
  726POPI   GL110833  17.110  19.444   5.792  0.1667  0.5569 -0.0370
  726POPI   GL210834  17.359  19.439   5.867 -0.1650  0.0878  0.0050
  726POPI   C1A10835  17.010  19.410   6.293 -0.0332  0.1266 -0.0966
  726POPI   D2A10836  16.987  19.552   6.692 -0.0621 -0.1818  0.3242
  726POPI   C3A10837  16.937  19.776   6.990 -0.0055  0.2146 -0.1046
  726POPI   C4A10838  16.978  19.808   7.470 -0.0057  0.1509  0.1182
  726POPI   C1B10839  17.463  19.755   6.230  0.1965 -0.1235 -0.1411
  726POPI   C2B10840  17.369  20.001   6.617  0.0452  0.0351 -0.3548
  726POPI   C3B10841  17.456  19.990   7.048  0.0093  0.0886  0.2285
  726POPI   C4B10842  17.604  19.987   7.444 -0.2782  0.2800  0.2617
  727POPI    C110843   4.625   0.058   5.049  0.1351 -0.0586  0.1024
  727POPI    C210844   4.722  -0.063   4.680 -0.2765 -0.0723 -0.0070
  727POPI    C310845   4.666   0.326   4.755  0.0982 -0.0375  0.1164
  727POPI   PO410846   4.797   0.090   5.229  0.1020  0.0193  0.0321
  727POPI   GL110847   4.952  -0.027   5.687 -0.0113 -0.1379 -0.1480
  727POPI   GL210848   5.241   0.155   5.845  0.1894  0.1606  0.3271
  727POPI   C1A10849   4.700   0.105   6.108 -0.0669 -0.0074 -0.1035
  727POPI   D2A10850   4.662   0.157   6.485 -0.2318  0.0372 -0.0126
  727POPI   C3A10851   4.680   0.505   6.806 -0.0704  0.2303 -0.1298
  727POPI   C4A10852   4.439   0.801   6.702  0.0512 -0.2524  0.2260
  727POPI   C1B10853   5.109   0.284   6.213 -0.3412 -0.4184 -0.2769
  727POPI   C2B10854   5.241   0.397   6.576  0.1094 -0.1334 -0.1184
  727POPI   C3B10855   5.164   0.492   6.942 -0.0591  0.2074  0.0053
  727POPI   C4B10856   5.208   0.852   7.188 -0.0916 -0.1245 -0.0216
  728POPI    C110857  18.990  16.872   5.504  0.0049 -0.0467 -0.0384
  728POPI    C210858  19.127  16.497   5.483 -0.2909 -0.1820  0.3303
  728POPI    C310859  18.877  16.634   5.202  0.1070 -0.1323 -0.0100
  728POPI   PO410860  18.906  16.926   5.717  0.1701  0.0091  0.0522
  728POPI   GL110861  18.595  16.979   6.065 -0.0456  0.0813 -0.0172
  728POPI   GL210862  18.670  16.715   6.191  0.0398 -0.0230 -0.2702
  728POPI   C1A10863  18.773  17.252   6.427  0.0705  0.1614  0.0939
  728POPI   D2A10864  18.599  17.331   6.839 -0.0397 -0.1187 -0.0939
  728POPI   C3A10865  18.541  17.024   7.060  0.1838 -0.1667 -0.1749
  728POPI   C4A10866  18.735  16.774   7.296  0.2306 -0.0138 -0.1451
  728POPI   C1B10867  18.533  16.825   6.637 -0.1302 -0.1958  0.2508
  728POPI   C2B10868  18.282  16.597   6.895 -0.2313 -0.1519  0.2485
  728POPI   C3B10869  18.119  16.430   7.194 -0.1780  0.2636  0.1535
  728POPI   C4B10870  17.856  16.502   7.532  0.2279 -0.1078 -0.2853
  729POPI    C110871   0.182   5.734   5.728  0.0171  0.1150 -0.0274
  729POPI    C210872   0.493   5.619   5.503 -0.0855 -0.3454  0.0564
  729POPI    C310873   0.192   5.825   5.338  0.0191 -0.3489 -0.1412
  729POPI   PO410874   0.229   5.518   5.873  0.2207 -0.0265  0.0576
  729POPI   GL110875   0.372   5.364   6.160  0.1884  0.0443 -0.2989
  729POPI   GL210876   0.679   5.512   6.158  0.1077  0.0046  0.1288
  729POPI   C1A10877   0.426   5.135   6.533  0.1548  0.1913  0.0097
  729POPI   D2A10878   0.502   5.246   6.971  0.2094 -0.0128  0.1704
  729POPI   C3A10879   0.517   4.935   7.368  0.2680 -0.2033 -0.1525
  729POPI   C4A10880   0.106   4.709   7.557  0.1072 -0.0454  0.1044
  729POPI   C1B10881   0.944   5.358   6.472  0.0591 -0.2355 -0.0582
  729POPI   C2B10882   1.047   5.218   6.828  0.1542 -0.3579  0.0408
  729POPI   C3B10883   1.195   4.997   7.188  0.0331 -0.1035 -0.0651
  729POPI   C4B10884   1.174   5.175   7.630 -0.0215  0.0844 -0.4203
  730POPI    C110885  17.856   0.701   5.483  0.1363 -0.1906  0.0821
  730POPI    C210886  17.739   0.318   5.485 -0.1568 -0.1050 -0.0419
  730POPI    C310887  17.858   0.490   5.143  0.3074 -0.1786  0.0748
  730POPI   PO410888  17.631   0.807   5.615  0.1038 -0.0476 -0.1660
  730POPI   GL110889  17.610   0.879   5.987  0.1802  0.3107  0.0020
  730POPI   GL210890  17.576   1.282   5.925 -0.0257  0.0316 -0.0083
  730POPI   C1A10891  17.691   1.132   6.363 -0.0692 -0.1482 -0.2053
  730POPI   D2A10892  17.785   1.090   6.786  0.2060 -0.0772 -0.0309
  730POPI   C3A10893  17.994   0.843   7.180 -0.0271  0.0780  0.2116
  730POPI   C4A10894  18.303   0.576   7.232 -0.2007  0.0511  0.2647
  730POPI   C1B10895  17.400   1.596   6.222  0.3839 -0.0947  0.1083
  730POPI   C2B10896  17.324   1.855   6.556 -0.0621 -0.2833  0.2100
  730POPI   C3B10897  17.384   2.143   6.827 -0.0235  0.3569 -0.3058
  730POPI   C4B10898  17.164   2.327   6.945  0.0599  0.0793  0.0385
  731POPI    C110899   4.677  12.800   5.412 -0.1870 -0.0314  0.0590
  731POPI    C210900   5.056  12.831   5.288 -0.1509  0.0910  0.1965
  731POPI    C310901   4.881  12.471   5.311 -0.0868  0.0461  0.0073
  731POPI   PO410902   4.666  12.925   5.651 -0.2125 -0.3056 -0.5936
  731POPI   GL110903   4.818  13.212   5.984  0.2737 -0.0588 -0.0545
  731POPI   GL210904   4.706  13.513   6.036 -0.1274  0.0895 -0.1736
  731POPI   C1A10905   4.856  13.100   6.391  0.0259 -0.1479  0.0170
  731POPI   D2A10906   4.670  13.028   6.822  0.0677  0.0214 -0.0243
  731POPI   C3A10907   4.754  13.231   7.144 -0.4471  0.1338  0.1159
  731POPI   C4A10908   4.981  13.347   7.559  0.3179 -0.0810 -0.0579
  731POPI   C1B10909   4.443  13.442   6.453  0.3482 -0.0155  0.2732
  731POPI   C2B10910   4.421  13.569   6.827 -0.0058 -0.0307  0.2091
  731POPI   C3B10911   4.280  13.549   7.219 -0.1460  0.4577  0.0594
  731POPI   C4B10912   4.165  13.552   7.667  0.0418  0.0868  0.1591
  732POPI    C110913   4.376   1.416   5.072  0.1097  0.0623 -0.0546
  732POPI    C210914   4.016   1.527   5.208  0.0435 -0.1869 -0.0230
  732POPI    C310915   4.044   1.270   4.903  0.1951 -0.1418 -0.0480
  732POPI   PO410916   4.522   1.320   5.316 -0.1553  0.1815 -0.0575
  732POPI   GL110917   4.871   1.606   5.553  0.2595 -0.3035 -0.1412
  732POPI   GL210918   4.696   1.948   5.625  0.1454 -0.3420 -0.1759
  732POPI   C1A10919   5.226   1.822   5.771  0.0747 -0.0580 -0.1825
  732POPI   D2A10920   5.433   2.150   6.104 -0.1600 -0.1283 -0.0352
  732POPI   C3A10921   5.442   1.996   6.509 -0.0756  0.1906  0.0215
  732POPI   C4A10922   5.057   1.859   6.775  0.0658 -0.0697 -0.0252
  732POPI   C1B10923   4.867   2.187   6.015 -0.3299 -0.2214 -0.0423
  732POPI   C2B10924   5.061   2.293   6.457 -0.1261 -0.1570  0.0581
  732POPI   C3B10925   5.081   2.396   6.880  0.4229  0.0511  0.2636
  732POPI   C4B10926   4.883   2.722   7.049 -0.0069 -0.1359  0.0991
  733POPI    C110927  17.155  17.467   5.572  0.0313 -0.1097 -0.0318
  733POPI    C210928  17.016  17.307   5.232 -0.0852  0.0449 -0.0580
  733POPI    C310929  17.385  17.460   5.245 -0.0844  0.0483 -0.1179
  733POPI   PO410930  17.083  17.302   5.807 -0.0201  0.0972 -0.3934
  733POPI   GL110931  16.994  17.182   6.283  0.0037 -0.1186 -0.0971
  733POPI   GL210932  16.860  17.550   6.257  0.2432  0.1390 -0.0971
  733POPI   C1A10933  17.052  17.119   6.719 -0.0311 -0.1328 -0.1083
  733POPI   D2A10934  17.000  17.260   7.085 -0.0211  0.0469 -0.1546
  733POPI   C3A10935  16.960  17.227   7.455 -0.3352  0.1318  0.0642
  733POPI   C4A10936  16.848  17.464   7.790  0.0531 -0.1520  0.2674
  733POPI   C1B10937  16.767  17.534   6.685  0.2297  0.2485 -0.0029
  733POPI   C2B10938  16.653  17.636   7.087 -0.0110 -0.2502  0.1089
  733POPI   C3B10939  16.660  17.827   7.503  0.0229  0.3016 -0.0108
  733POPI   C4B10940  16.308  17.689   7.733 -0.1451  0.5145 -0.3021
  734POPI    C110941  17.434   4.580   5.300  0.0126  0.0023 -0.1264
  734POPI    C210942  17.447   4.268   5.050  0.3801 -0.0746 -0.0178
  734POPI    C310943  17.458   4.640   4.905  0.1885 -0.1132 -0.1347
  734POPI   PO410944  17.340   4.533   5.499 -0.1285  0.0670 -0.0074
  734POPI   GL110945  17.437   4.430   5.883 -0.2836  0.0415 -0.2186
  734POPI   GL210946  17.145   4.506   6.000  0.3890 -0.0437 -0.0827
  734POPI   C1A10947  17.450   4.015   6.193  0.3162  0.1326  0.2769
  734POPI   D2A10948  17.425   4.034   6.626 -0.0859 -0.1247 -0.0402
  734POPI   C3A10949  17.864   3.913   6.848  0.2128 -0.1298  0.2240
  734POPI   C4A10950  17.883   3.715   7.222  0.2748  0.0580  0.0331
  734POPI   C1B10951  17.046   4.296   6.335 -0.0565 -0.1066  0.0258
  734POPI   C2B10952  16.950   4.481   6.839 -0.1688 -0.2793 -0.0241
  734POPI   C3B10953  16.756   4.576   7.196 -0.0814  0.0603 -0.0725
  734POPI   C4B10954  16.380   4.662   7.265 -0.1668  0.0623  0.1965
  735POPI    C110955   9.049  11.700   4.902 -0.0237  0.1419 -0.1414
  735POPI    C210956   9.066  11.320   4.777  0.0700  0.0301  0.1980
  735POPI    C310957   8.761  11.554   4.667  0.0135 -0.1412 -0.0167
  735POPI   PO410958   9.145  11.721   5.186  0.3244 -0.2493  0.0469
  735POPI   GL110959   9.174  11.613   5.686 -0.1238 -0.2358  0.0350
  735POPI   GL210960   9.378  11.733   5.887 -0.2419  0.1957  0.2433
  735POPI   C1A10961   9.086  11.384   6.132 -0.3189 -0.1350 -0.1050
  735POPI   D2A10962   8.993  11.409   6.652  0.2413  0.1970  0.3014
  735POPI   C3A10963   9.020  11.409   7.029  0.0259 -0.1380 -0.4150
  735POPI   C4A10964   8.859  11.535   7.427  0.0202 -0.3080 -0.2839
  735POPI   C1B10965   9.453  11.905   6.291 -0.2447  0.1346 -0.0071
  735POPI   C2B10966   9.765  12.052   6.505  0.2979 -0.1371  0.0258
  735POPI   C3B10967   9.782  12.324   6.912 -0.0081 -0.0074  0.0459
  735POPI   C4B10968  10.064  12.539   7.156 -0.0067 -0.0449  0.0816
  736POPI    C110969   7.272   7.125   4.986  0.2479  0.3290 -0.1671
  736POPI    C210970   7.366   6.842   4.720  0.0767  0.1305 -0.0195
  736POPI    C310971   7.038   7.064   4.668 -0.0096  0.0262  0.0737
  736POPI   PO410972   7.583   7.189   5.060 -0.1356  0.3218  0.1379
  736POPI   GL110973   7.920   7.344   5.354  0.0021 -0.1339 -0.1689
  736POPI   GL210974   8.134   7.116   5.544  0.0519 -0.1222  0.0015
  736POPI   C1A10975   8.014   7.448   5.829  0.1117  0.1228 -0.3146
  736POPI   D2A10976   8.203   7.456   6.285  0.0908 -0.0223 -0.1835
  736POPI   C3A10977   7.880   7.379   6.619 -0.0070 -0.2579  0.0552
  736POPI   C4A10978   7.526   7.340   6.919  0.0838  0.1168 -0.0223
  736POPI   C1B10979   8.071   6.813   5.861  0.5043  0.0234  0.0480
  736POPI   C2B10980   7.810   6.581   6.152  0.0521 -0.0943 -0.3810
  736POPI   C3B10981   7.670   6.216   6.310  0.3497  0.0499 -0.0164
  736POPI   C4B10982   7.488   6.323   6.673 -0.1930  0.1197 -0.0137
  737POPI    C110983  16.834  16.871   5.415 -0.1449  0.0203  0.0439
  737POPI    C210984  16.915  16.917   5.026 -0.0167  0.0246  0.0708
  737POPI    C310985  16.549  16.803   5.142 -0.0942  0.1549 -0.0432
  737POPI   PO410986  17.159  16.790   5.543 -0.1361 -0.4270  0.2609
  737POPI   GL110987  17.321  16.861   6.088  0.2899 -0.1888 -0.0413
  737POPI   GL210988  17.539  16.849   6.007 -0.0030 -0.1618 -0.0665
  737POPI   C1A10989  17.317  16.722   6.537 -0.3151 -0.1148 -0.1674
  737POPI   D2A10990  17.105  16.713   6.976 -0.0445 -0.3375 -0.1214
  737POPI   C3A10991  16.697  16.592   7.201 -0.0432 -0.2940  0.1563
  737POPI   C4A10992  16.476  16.322   7.467 -0.0997 -0.1437 -0.0499
  737POPI   C1B10993  17.818  16.998   6.309  0.4015 -0.2695 -0.1353
  737POPI   C2B10994  17.638  17.123   6.732 -0.1136  0.0652  0.1496
  737POPI   C3B10995  17.517  17.185   7.179 -0.0100 -0.2326 -0.1677
  737POPI   C4B10996  17.395  17.300   7.602  0.2026 -0.2301  0.0474
  738POPI    C110997  10.670  13.889   5.413  0.0334  0.1875  0.0724
  738POPI    C210998  10.297  13.847   5.553  0.0790  0.0989  0.1685
  738POPI    C310999  10.383  13.742   5.176  0.1237 -0.3996  0.3101
  738POPI   PO411000  10.761  13.718   5.589  0.0593 -0.0848 -0.0487
  738POPI   GL111001  10.921  13.717   6.017 -0.4598 -0.0451  0.0157
  738POPI   GL211002  10.852  13.517   6.226 -0.0476  0.0231 -0.2592
  738POPI   C1A11003  10.995  14.029   6.392 -0.1956  0.4826 -0.1150
  738POPI   D2A11004  10.941  14.163   6.700  0.0945  0.0715 -0.1047
  738POPI   C3A11005  10.943  14.024   7.149  0.1861  0.0228  0.1117
  738POPI   C4A11006  10.641  14.065   7.479 -0.0663 -0.0684  0.0533
  738POPI   C1B11007  10.775  13.654   6.747  0.0368  0.0203  0.1948
  738POPI   C2B11008  10.994  13.409   6.990 -0.0518 -0.1012 -0.1130
  738POPI   C3B11009  11.264  13.379   7.238  0.2551  0.2743  0.1195
  738POPI   C4B11010  11.503  13.485   7.547 -0.0261 -0.2891  0.0787
  739POPI    C111011   4.611   0.786   4.826 -0.2257 -0.0498 -0.0532
  739POPI    C211012   4.390   0.986   4.559  0.2369  0.1360 -0.3098
  739POPI    C311013   4.675   0.736   4.434  0.2148 -0.0570  0.0148
  739POPI   PO411014   4.495   0.884   5.037  0.2209  0.1474  0.0742
  739POPI   GL111015   4.483   0.778   5.557 -0.0221  0.0673 -0.0909
  739POPI   GL211016   4.451   1.138   5.730 -0.0258  0.0378 -0.0666
  739POPI   C1A11017   4.248   0.679   5.992 -0.2409  0.0625  0.0636
  739POPI   D2A11018   3.886   0.787   6.321  0.3071  0.0414  0.1336
  739POPI   C3A11019   3.583   0.545   6.583 -0.1966 -0.2744 -0.1250
  739POPI   C4A11020   3.486   0.703   7.021 -0.1278  0.6290 -0.1304
  739POPI   C1B11021   4.447   1.583   5.945  0.0086 -0.2320 -0.1496
  739POPI   C2B11022   4.477   1.820   6.340 -0.0671  0.0106  0.1203
  739POPI   C3B11023   4.609   2.140   6.590 -0.3112 -0.2313  0.1945
  739POPI   C4B11024   4.553   2.470   6.728  0.1872 -0.3936 -0.1086
  740POPI    C111025  15.805   0.899   5.124 -0.1164 -0.2176 -0.3933
  740POPI    C211026  15.750   1.079   4.771 -0.2130  0.2585 -0.1439
  740POPI    C311027  15.763   1.296   5.106 -0.1039 -0.1851  0.1480
  740POPI   PO411028  15.518   0.722   5.150  0.1928 -0.1084 -0.3601
  740POPI   GL111029  15.495   0.380   5.503  0.2240 -0.0680 -0.0406
  740POPI   GL211030  15.750   0.154   5.562  0.3158  0.5368 -0.1945
  740POPI   C1A11031  15.107   0.325   5.903 -0.1561  0.1922 -0.1184
  740POPI   D2A11032  14.946   0.533   6.266  0.0764  0.0583 -0.2071
  740POPI   C3A11033  15.251   0.684   6.613 -0.3047 -0.1613  0.0580
  740POPI   C4A11034  15.337   1.115   6.630  0.0128  0.0897 -0.2395
  740POPI   C1B11035  15.610   0.425   5.983 -0.0795  0.3488 -0.3614
  740POPI   C2B11036  15.330   0.811   6.103  0.2940 -0.1110 -0.0645
  740POPI   C3B11037  15.437   1.253   5.997  0.2307 -0.0465  0.0302
  740POPI   C4B11038  15.445   1.586   5.741  0.1744  0.1971 -0.4995
  741POPS   CNO11039   1.617   9.054   5.680 -0.0178  0.1852 -0.2617
  741POPS   PO411040   1.771   8.576   5.537 -0.0313  0.1014 -0.2833
  741POPS   GL111041   1.864   8.561   5.950  0.2062  0.0226 -0.4115
  741POPS   GL211042   2.062   8.892   5.851  0.0909 -0.0939  0.0068
  741POPS   C1A11043   1.528   8.416   6.320  0.2221  0.0085 -0.0583
  741POPS   D2A11044   1.190   8.422   6.610  0.1873  0.1845 -0.1644
  741POPS   C3A11045   1.212   8.371   6.997 -0.0950  0.0217  0.0013
  741POPS   C4A11046   1.200   8.613   7.246 -0.0314 -0.1468  0.0059
  741POPS   C1B11047   1.876   8.935   6.272  0.0810 -0.1075 -0.1600
  741POPS   C2B11048   1.609   8.822   6.623 -0.0686  0.1411  0.4500
  741POPS   C3B11049   1.566   8.902   7.057  0.0658  0.2388  0.4530
  741POPS   C4B11050   1.602   8.927   7.461  0.1089 -0.0886 -0.0029
  742POPS   CNO11051  10.195   3.631   5.046 -0.2823  0.0771 -0.2168
  742POPS   PO411052  10.666   3.721   5.038  0.1908 -0.0341 -0.0592
  742POPS   GL111053  10.597   3.659   5.544  0.1439  0.2169  0.1056
  742POPS   GL211054  10.273   3.697   5.642  0.3537  0.0152  0.2907
  742POPS   C1A11055  10.582   3.537   6.004 -0.0513  0.0607  0.1115
  742POPS   D2A11056  10.452   3.581   6.375  0.1333  0.0179 -0.2631
  742POPS   C3A11057  10.674   3.557   6.763  0.1860  0.0281  0.3743
  742POPS   C4A11058  10.681   3.668   7.273  0.2084 -0.3259 -0.1418
  742POPS   C1B11059  10.191   3.813   5.990  0.0575  0.0151  0.1242
  742POPS   C2B11060  10.204   4.061   6.369  0.1881 -0.2105  0.1409
  742POPS   C3B11061  10.093   4.302   6.686 -0.1168  0.0267 -0.0359
  742POPS   C4B11062   9.974   4.787   6.585  0.0044  0.0529 -0.2711
  743POPS   CNO11063  15.091  13.052   6.154  0.0226 -0.2880  0.3289
  743POPS   PO411064  14.813  12.707   5.929 -0.2846 -0.1086  0.1119
  743POPS   GL111065  14.862  12.438   6.271  0.0598  0.0277 -0.2205
  743POPS   GL211066  14.537  12.431   6.330  0.4308 -0.2663  0.1975
  743POPS   C1A11067  14.928  12.403   6.675 -0.2386  0.0777  0.2538
  743POPS   D2A11068  14.882  12.305   7.083 -0.1491 -0.3391  0.1505
  743POPS   C3A11069  14.829  12.591   7.454 -0.0672  0.0029 -0.1321
  743POPS   C4A11070  14.929  13.064   7.505 -0.1080 -0.0010  0.1408
  743POPS   C1B11071  14.516  12.156   6.784 -0.0893  0.3453  0.0545
  743POPS   C2B11072  14.463  11.793   7.169 -0.2807  0.3490 -0.2047
  743POPS   C3B11073  14.210  11.584   7.524 -0.2496 -0.1748  0.2322
  743POPS   C4B11074  14.306  11.690   8.018  0.4307  0.1786  0.0156
  744POPS   CNO11075   9.295   4.146   4.822 -0.0643  0.0291 -0.1679
  744POPS   PO411076   9.223   4.558   5.047 -0.2922 -0.3444  0.0196
  744POPS   GL111077   9.390   4.531   5.434  0.0882  0.3185  0.2758
  744POPS   GL211078   9.205   4.743   5.656  0.0617 -0.2463  0.0605
  744POPS   C1A11079   9.291   4.229   5.730  0.0142 -0.0031  0.2637
  744POPS   D2A11080   9.164   4.366   6.125 -0.1132 -0.2184  0.1131
  744POPS   C3A11081   8.843   4.455   6.340  0.0798 -0.0150 -0.1596
  744POPS   C4A11082   8.708   4.279   6.786  0.0068 -0.2564 -0.2805
  744POPS   C1B11083   9.146   4.891   6.099 -0.0675  0.0849 -0.0575
  744POPS   C2B11084   8.966   4.951   6.453  0.1086  0.1566  0.0064
  744POPS   C3B11085   9.154   5.205   6.796 -0.1561 -0.1513 -0.0354
  744POPS   C4B11086   9.166   5.465   7.141 -0.2940 -0.0734  0.4062
  745POPS   CNO11087   1.629  11.469   5.035  0.4477  0.1705  0.0020
  745POPS   PO411088   1.609  11.596   5.457  0.1749 -0.2011  0.0025
  745POPS   GL111089   1.664  11.761   5.962  0.0982  0.0907 -0.1089
  745POPS   GL211090   1.897  11.512   6.086 -0.0228 -0.1360  0.0320
  745POPS   C1A11091   1.553  11.826   6.407 -0.3315 -0.0608  0.2164
  745POPS   D2A11092   1.285  12.065   6.631  0.3066  0.0033  0.2118
  745POPS   C3A11093   1.498  11.971   7.010 -0.2328  0.1674 -0.2001
  745POPS   C4A11094   1.768  11.717   7.363 -0.2713 -0.0036 -0.0307
  745POPS   C1B11095   1.717  11.185   6.348  0.3458 -0.0987  0.1165
  745POPS   C2B11096   1.839  11.042   6.794  0.2587 -0.1774  0.1168
  745POPS   C3B11097   1.774  11.131   7.190 -0.0335 -0.0033 -0.1155
  745POPS   C4B11098   2.045  11.110   7.575  0.0422 -0.0905  0.3550
  746POPS   CNO11099  11.485  17.560   5.015  0.2383  0.0929 -0.0976
  746POPS   PO411100  11.099  17.661   5.294  0.2246  0.2449 -0.1397
  746POPS   GL111101  11.137  17.921   5.556  0.1792  0.1676  0.2565
  746POPS   GL211102  11.475  17.733   5.758 -0.0575  0.0004 -0.1197
  746POPS   C1A11103  11.091  18.123   5.981 -0.1534  0.2479 -0.2570
  746POPS   D2A11104  11.143  18.266   6.421 -0.0637  0.2667 -0.1097
  746POPS   C3A11105  11.101  18.605   6.724  0.4981 -0.3028  0.0507
  746POPS   C4A11106  11.015  18.585   7.114 -0.1261  0.0149  0.1937
  746POPS   C1B11107  11.726  17.941   6.068 -0.0626 -0.3166  0.3271
  746POPS   C2B11108  11.720  18.080   6.495  0.0649  0.0009 -0.4255
  746POPS   C3B11109  11.876  18.155   6.863 -0.1840 -0.1204  0.0492
  746POPS   C4B11110  11.846  18.417   7.237  0.0716 -0.0478  0.2221
  747POPS   CNO11111   7.343   0.738   4.771 -0.0897  0.0861  0.0658
  747POPS   PO411112   7.046   0.885   5.120 -0.2580 -0.2409 -0.1614
  747POPS   GL111113   7.046   0.988   5.497  0.2039  0.1200  0.1633
  747POPS   GL211114   7.339   1.138   5.580  0.0117 -0.2080  0.1851
  747POPS   C1A11115   6.819   0.869   5.845 -0.3295  0.2246  0.2532
  747POPS   D2A11116   6.728   0.672   6.296  0.3818 -0.1189 -0.0632
  747POPS   C3A11117   6.982   0.829   6.748 -0.0457  0.2326 -0.0180
  747POPS   C4A11118   6.862   1.088   6.950 -0.2860 -0.1101 -0.2370
  747POPS   C1B11119   7.347   0.810   5.901  0.1132  0.3218  0.2976
  747POPS   C2B11120   7.221   0.635   6.317 -0.0156 -0.0681 -0.2142
  747POPS   C3B11121   7.527   0.584   6.661  0.3592  0.0044 -0.0133
  747POPS   C4B11122   7.601   0.660   7.094 -0.0204  0.5153  0.1176
  748POPS   CNO11123   2.612   3.159   5.028 -0.2839  0.0389 -0.0436
  748POPS   PO411124   2.321   3.110   5.277  0.5063  0.1136  0.0577
  748POPS   GL111125   2.388   3.358   5.653  0.0858  0.0454  0.5552
  748POPS   GL211126   2.234   3.440   5.923 -0.4927 -0.0382  0.1463
  748POPS   C1A11127   2.666   3.415   6.098  0.0060  0.1122  0.0018
  748POPS   D2A11128   2.521   3.280   6.465 -0.2946 -0.0247 -0.2319
  748POPS   C3A11129   2.641   3.449   6.868 -0.2533 -0.1302  0.0855
  748POPS   C4A11130   2.654   3.498   7.288 -0.1484 -0.1073  0.1567
  748POPS   C1B11131   2.102   3.438   6.260  0.0981 -0.2446 -0.0043
  748POPS   C2B11132   2.144   3.530   6.724 -0.0991 -0.2424  0.1534
  748POPS   C3B11133   2.275   3.938   7.077  0.0937 -0.1137  0.0243
  748POPS   C4B11134   2.480   4.292   7.118  0.1738 -0.0711  0.3948
  749POPS   CNO11135  10.840   2.498   5.328 -0.0915 -0.1259 -0.2790
  749POPS   PO411136  10.801   2.879   5.393 -0.1195 -0.0349 -0.0450
  749POPS   GL111137  10.639   2.769   5.799 -0.0052  0.1123  0.3446
  749POPS   GL211138  10.396   3.079   5.895 -0.1371 -0.0504  0.1846
  749POPS   C1A11139  10.730   2.638   6.064 -0.1593 -0.3073 -0.0352
  749POPS   D2A11140  10.654   2.488   6.468 -0.0039 -0.1608 -0.0276
  749POPS   C3A11141  10.426   2.168   6.620  0.2149 -0.2990  0.1221
  749POPS   C4A11142  10.023   2.158   6.717 -0.0937 -0.0090  0.2216
  749POPS   C1B11143  10.376   3.061   6.346  0.2129 -0.0552 -0.1094
  749POPS   C2B11144  10.564   2.954   6.733 -0.0172 -0.1644 -0.1731
  749POPS   C3B11145  10.759   3.174   7.135  0.4446 -0.0648  0.0261
  749POPS   C4B11146  10.981   3.078   7.536  0.1184 -0.0205  0.0998
  750POPS   CNO11147  16.585   2.993   5.327  0.3745  0.0447 -0.4060
  750POPS   PO411148  16.695   2.688   5.025  0.2708  0.2031  0.2347
  750POPS   GL111149  16.825   2.506   5.463  0.1041 -0.2720  0.1486
  750POPS   GL211150  16.544   2.634   5.663  0.1286 -0.1628  0.1055
  750POPS   C1A11151  17.117   2.669   5.821  0.4108 -0.0280 -0.0185
  750POPS   D2A11152  16.786   2.795   6.152  0.0933 -0.1703 -0.3048
  750POPS   C3A11153  16.950   2.814   6.595  0.0992  0.2344  0.2369
  750POPS   C4A11154  16.892   2.738   6.977  0.4544  0.0708 -0.1946
  750POPS   C1B11155  16.797   2.352   5.954 -0.4467 -0.2903  0.0139
  750POPS   C2B11156  17.049   2.010   6.042 -0.1152 -0.2121 -0.2756
  750POPS   C3B11157  16.906   1.662   6.387  0.2006  0.1459  0.0855
  750POPS   C4B11158  16.703   1.308   6.406  0.1235  0.0213 -0.2432
  751POPS   CNO11159   2.465   2.141   5.192  0.2180 -0.2352  0.0893
  751POPS   PO411160   2.788   1.857   5.334 -0.0815  0.2150 -0.1945
  751POPS   GL111161   2.789   1.732   5.713  0.0904  0.1289  0.2188
  751POPS   GL211162   2.885   2.029   5.889  0.2808 -0.1881  0.0943
  751POPS   C1A11163   2.810   1.591   6.141  0.3366  0.3199 -0.0756
  751POPS   D2A11164   2.968   1.618   6.489  0.2169 -0.0224 -0.1055
  751POPS   C3A11165   3.277   1.413   6.677  0.0023  0.0231 -0.3776
  751POPS   C4A11166   3.352   1.223   6.966 -0.0941  0.1228 -0.3404
  751POPS   C1B11167   2.801   2.054   6.385  0.1736  0.1093  0.3032
  751POPS   C2B11168   2.505   2.204   6.620 -0.0642 -0.0474 -0.0995
  751POPS   C3B11169   2.410   2.240   7.067  0.1037  0.1333 -0.2199
  751POPS   C4B11170   2.420   2.604   7.341 -0.4427 -0.2649  0.1972
  752POPS   CNO11171  10.647  16.098   4.919  0.0808  0.1108  0.0008
  752POPS   PO411172  10.853  15.941   5.336  0.1033  0.0634 -0.1963
  752POPS   GL111173  10.634  15.799   5.635  0.1873  0.0751  0.1344
  752POPS   GL211174  10.531  16.082   5.840 -0.0408  0.3688  0.0619
  752POPS   C1A11175  10.574  15.543   5.959 -0.0469  0.0214  0.0405
  752POPS   D2A11176  10.266  15.585   6.180  0.2458 -0.1030  0.0956
  752POPS   C3A11177  10.243  15.938   6.520 -0.1205 -0.1183  0.2940
  752POPS   C4A11178  10.274  15.859   6.951  0.3160  0.0522  0.2156
  752POPS   C1B11179  10.694  16.071   6.182  0.0883  0.0581 -0.0692
  752POPS   C2B11180  10.661  15.700   6.466  0.0813  0.0783 -0.0357
  752POPS   C3B11181  10.549  15.516   6.754 -0.0051 -0.0500  0.2207
  752POPS   C4B11182  10.585  15.519   7.148 -0.0694  0.3385 -0.0818
  753POPS   CNO11183  15.092  14.882   6.109  0.2234 -0.1228 -0.0169
  753POPS   PO411184  14.882  14.485   5.879  0.2120 -0.0641 -0.2672
  753POPS   GL111185  14.772  14.352   6.286  0.2334  0.1355  0.1698
  753POPS   GL211186  14.619  14.688   6.381 -0.2190  0.0845 -0.1578
  753POPS   C1A11187  14.991  14.425   6.695 -0.0655  0.2425  0.3602
  753POPS   D2A11188  14.955  14.345   7.197 -0.0457  0.0978 -0.0491
  753POPS   C3A11189  15.090  14.610   7.458 -0.4056 -0.1289 -0.1867
  753POPS   C4A11190  15.028  14.696   7.857  0.0854 -0.0666  0.1420
  753POPS   C1B11191  14.352  14.956   6.542  0.0211 -0.3610  0.0047
  753POPS   C2B11192  14.146  15.116   6.992 -0.4169  0.2785 -0.1273
  753POPS   C3B11193  14.120  15.177   7.438 -0.0470 -0.0271 -0.1364
  753POPS   C4B11194  14.137  15.384   7.808  0.1639 -0.2572  0.2459
  754POPS   CNO11195   7.389   4.549   4.616  0.2622 -0.0546  0.2009
  754POPS   PO411196   7.425   4.252   4.990 -0.1367 -0.0491  0.1142
  754POPS   GL111197   7.548   4.228   5.364  0.2205  0.0222  0.2711
  754POPS   GL211198   7.725   4.363   5.523  0.1693  0.1810  0.1333
  754POPS   C1A11199   7.466   4.277   5.884 -0.0962 -0.0311 -0.2031
  754POPS   D2A11200   7.436   3.913   6.213  0.2425 -0.0013 -0.2830
  754POPS   C3A11201   7.657   3.650   6.471  0.4598 -0.0817 -0.2130
  754POPS   C4A11202   7.650   3.496   6.887 -0.3766  0.2607 -0.1524
  754POPS   C1B11203   7.948   4.419   5.885 -0.0411  0.1361  0.0637
  754POPS   C2B11204   8.160   4.769   6.015 -0.0048 -0.0971  0.2610
  754POPS   C3B11205   7.927   4.991   6.370 -0.1533 -0.1084 -0.2954
  754POPS   C4B11206   7.732   5.266   6.837  0.0329 -0.0560  0.1963
  755POPS   CNO11207  13.722  13.407   5.445  0.0332 -0.0930  0.1052
  755POPS   PO411208  14.061  13.158   5.560  0.0420  0.1255 -0.2635
  755POPS   GL111209  14.136  13.256   6.078  0.1539  0.3109  0.2011
  755POPS   GL211210  14.151  13.551   6.191 -0.3383 -0.0563  0.0585
  755POPS   C1A11211  14.145  13.117   6.496 -0.4171 -0.0247 -0.3589
  755POPS   D2A11212  14.435  13.382   6.706  0.0470  0.0544 -0.7463
  755POPS   C3A11213  14.348  13.385   7.131  0.0010 -0.1781  0.3125
  755POPS   C4A11214  14.422  13.275   7.534 -0.2259  0.1757 -0.0994
  755POPS   C1B11215  13.907  13.537   6.460 -0.0431 -0.0719  0.0764
  755POPS   C2B11216  13.946  13.560   6.869  0.1796  0.4278 -0.1926
  755POPS   C3B11217  13.581  13.354   7.117 -0.1823  0.2646  0.0886
  755POPS   C4B11218  13.398  13.380   7.573 -0.1244 -0.2538  0.0566
  756POPS   CNO11219   4.798   3.117   4.679  0.0386  0.1455  0.1226
  756POPS   PO411220   4.400   3.186   4.898 -0.1063 -0.0081 -0.2424
  756POPS   GL111221   4.470   3.327   5.288 -0.0617  0.1637 -0.1610
  756POPS   GL211222   4.306   3.302   5.521 -0.0890  0.2744 -0.3217
  756POPS   C1A11223   4.784   3.450   5.544 -0.2305 -0.1672 -0.0261
  756POPS   D2A11224   5.165   3.543   5.734  0.0100  0.1170  0.0529
  756POPS   C3A11225   5.549   3.361   5.579  0.2262  0.0211 -0.1754
  756POPS   C4A11226   5.919   3.600   5.707  0.1522  0.1738  0.0016
  756POPS   C1B11227   4.354   3.496   5.932  0.2363 -0.1299 -0.0660
  756POPS   C2B11228   4.128   3.588   6.241  0.2103 -0.1171  0.0174
  756POPS   C3B11229   4.173   3.631   6.708  0.1076 -0.5287 -0.2924
  756POPS   C4B11230   4.364   3.878   6.949 -0.0898 -0.0304  0.1121
  757POPS   CNO11231   8.517  18.539   4.801  0.2836 -0.1713  0.1428
  757POPS   PO411232   8.849  18.685   5.073  0.0768 -0.0783  0.1028
  757POPS   GL111233   8.644  18.541   5.491 -0.1102  0.1915 -0.2630
  757POPS   GL211234   8.854  18.296   5.629  0.2373 -0.2348  0.0931
  757POPS   C1A11235   8.478  18.217   5.934 -0.0088 -0.2159  0.2346
  757POPS   D2A11236   8.323  18.126   6.280  0.0667 -0.0217  0.0305
  757POPS   C3A11237   8.450  18.156   6.704  0.0719  0.1738 -0.1362
  757POPS   C4A11238   8.201  18.030   7.141  0.1432 -0.0963  0.0851
  757POPS   C1B11239   8.956  18.411   6.090 -0.1007 -0.3621 -0.1365
  757POPS   C2B11240   8.935  18.442   6.493  0.2329 -0.0717 -0.1274
  757POPS   C3B11241   8.909  18.895   6.831  0.0201  0.1848  0.4200
  757POPS   C4B11242   8.943  19.339   6.916 -0.0236  0.1267  0.3161
  758POPS   CNO11243  12.619   1.845   5.022  0.1780  0.1322 -0.1743
  758POPS   PO411244  12.751   2.168   5.111  0.1246  0.1295  0.0813
  758POPS   GL111245  12.927   2.287   5.410  0.2294  0.2439 -0.0123
  758POPS   GL211246  12.626   2.496   5.585 -0.0362 -0.3582  0.1711
  758POPS   C1A11247  13.034   2.241   5.843  0.2373 -0.1444  0.1223
  758POPS   D2A11248  13.209   2.021   6.102  0.0428  0.1938 -0.0126
  758POPS   C3A11249  13.237   2.316   6.500  0.4561 -0.0610 -0.2994
  758POPS   C4A11250  13.219   2.671   6.687  0.0993  0.2216 -0.1689
  758POPS   C1B11251  12.621   2.671   6.000 -0.2672  0.1989 -0.4046
  758POPS   C2B11252  12.344   2.826   6.150  0.1482 -0.0626 -0.0366
  758POPS   C3B11253  12.332   2.845   6.538 -0.1854  0.3078  0.0010
  758POPS   C4B11254  12.286   2.975   6.964 -0.0282  0.3109  0.1459
  759POPS   CNO11255   4.003   1.483   5.693  0.2552  0.2899  0.1793
  759POPS   PO411256   3.780   1.796   5.660  0.1623  0.2609  0.0616
  759POPS   GL111257   4.135   1.959   5.937 -0.2437  0.1661 -0.1613
  759POPS   GL211258   3.881   2.240   6.042  0.0090  0.0215 -0.0705
  759POPS   C1A11259   4.403   2.292   6.028  0.0030  0.2283  0.1021
  759POPS   D2A11260   4.666   2.602   6.213 -0.0620  0.0470  0.6259
  759POPS   C3A11261   4.533   2.936   6.463  0.0802  0.3374  0.3286
  759POPS   C4A11262   4.447   3.015   6.955 -0.0710 -0.1132  0.0885
  759POPS   C1B11263   3.868   2.217   6.443 -0.1251 -0.0358 -0.0058
  759POPS   C2B11264   3.676   2.205   6.774  0.0166 -0.3064 -0.2354
  759POPS   C3B11265   3.687   2.081   7.187  0.0459  0.0162  0.1087
  759POPS   C4B11266   3.910   2.230   7.541  0.0374  0.0522 -0.2010
  760POPS   CNO11267   2.443  13.303   5.494  0.0008 -0.1863 -0.1170
  760POPS   PO411268   2.578  12.911   5.562  0.2858  0.1265  0.0493
  760POPS   GL111269   2.506  12.822   5.949 -0.1502  0.1191  0.0200
  760POPS   GL211270   2.257  12.673   6.038 -0.2212 -0.3571  0.4096
  760POPS   C1A11271   2.709  12.964   6.294  0.1955 -0.1448  0.2228
  760POPS   D2A11272   2.847  13.064   6.771  0.0997 -0.1505 -0.2381
  760POPS   C3A11273   3.115  13.449   6.737  0.0547 -0.1099  0.0614
  760POPS   C4A11274   3.487  13.467   6.724  0.0841  0.3747  0.0686
  760POPS   C1B11275   2.201  13.061   6.287 -0.1498 -0.0999 -0.1309
  760POPS   C2B11276   2.145  13.182   6.669  0.2172  0.0489  0.1372
  760POPS   C3B11277   2.398  13.067   7.025  0.0566 -0.3175 -0.0398
  760POPS   C4B11278   2.753  13.089   7.331 -0.0140  0.0985  0.1635
  761POPS   CNO11279  17.301  17.940   5.404 -0.2348 -0.1547 -0.0433
  761POPS   PO411280  17.610  18.165   5.515  0.1761  0.1264 -0.2725
  761POPS   GL111281  17.779  18.077   5.950  0.0850  0.2217  0.2741
  761POPS   GL211282  17.551  17.942   6.199 -0.0432 -0.1929 -0.1666
  761POPS   C1A11283  18.082  18.139   6.328  0.0826 -0.1118  0.0258
  761POPS   D2A11284  17.947  18.233   6.822  0.2265 -0.1541 -0.1457
  761POPS   C3A11285  17.979  18.054   7.340  0.0198  0.2604  0.4122
  761POPS   C4A11286  18.097  18.166   7.706 -0.1715 -0.2615  0.0297
  761POPS   C1B11287  17.518  18.050   6.588  0.1987 -0.0540 -0.3573
  761POPS   C2B11288  17.480  18.201   7.068  0.0315  0.3843 -0.0790
  761POPS   C3B11289  17.474  18.156   7.519  0.0524 -0.0688  0.1031
  761POPS   C4B11290  17.617  18.131   8.017 -0.1631 -0.1847  0.0509
  762POPS   CNO11291   3.153   6.854   5.633 -0.1202  0.0537 -0.0665
  762POPS   PO411292   2.946   7.142   5.893  0.1993 -0.0447  0.0178
  762POPS   GL111293   3.038   7.355   6.375  0.0926 -0.0771  0.1130
  762POPS   GL211294   2.816   7.603   6.396 -0.0551 -0.2562  0.0183
  762POPS   C1A11295   3.349   7.428   6.745  0.0853 -0.2450 -0.0630
  762POPS   D2A11296   3.682   7.658   6.957  0.1360 -0.3508 -0.1767
  762POPS   C3A11297   4.097   7.601   6.872 -0.0424 -0.1975  0.0289
  762POPS   C4A11298   4.314   7.256   7.047 -0.0308  0.0230  0.0571
  762POPS   C1B11299   2.496   7.693   6.688 -0.3727 -0.2182 -0.0278
  762POPS   C2B11300   2.200   7.964   6.925  0.3284  0.0952 -0.1537
  762POPS   C3B11301   2.107   8.309   7.197  0.0676 -0.1170 -0.3297
  762POPS   C4B11302   2.073   8.691   7.258  0.3383  0.0092 -0.1168
  763POPS   CNO11303  14.338  10.355   5.406  0.1137 -0.0025  0.1416
  763POPS   PO411304  14.312  10.598   5.483 -0.3609 -0.0188  0.0828
  763POPS   GL111305  14.292  10.323   5.927  0.0802 -0.1473 -0.3828
  763POPS   GL211306  14.115  10.063   5.797  0.0632 -0.0351  0.0037
  763POPS   C1A11307  14.435  10.238   6.286 -0.1654  0.1516  0.0456
  763POPS   D2A11308  14.190  10.084   6.604 -0.2359  0.1690 -0.2691
  763POPS   C3A11309  14.273  10.250   7.034 -0.1268 -0.3413  0.0611
  763POPS   C4A11310  14.344  10.662   7.083  0.1192 -0.3484  0.3502
  763POPS   C1B11311  13.759  10.249   6.024 -0.1711 -0.1989  0.3555
  763POPS   C2B11312  13.689  10.122   6.366 -0.3641  0.2892  0.1610
  763POPS   C3B11313  13.316  10.094   6.603 -0.3825  0.1568  0.1646
  763POPS   C4B11314  13.142  10.227   7.001 -0.2960  0.2191  0.2523
  764POPS   CNO11315   7.299  15.145   5.267  0.3285  0.0671 -0.0413
  764POPS   PO411316   7.499  14.942   5.568 -0.0840 -0.0599 -0.0349
  764POPS   GL111317   7.459  15.075   5.935  0.0865 -0.0564  0.0040
  764POPS   GL211318   7.153  15.149   6.009  0.4297 -0.0648  0.0353
  764POPS   C1A11319   7.398  15.006   6.399 -0.3797 -0.1419 -0.0810
  764POPS   D2A11320   7.303  14.968   6.750 -0.0347 -0.1077 -0.2686
  764POPS   C3A11321   6.853  15.095   6.826 -0.2444  0.1209  0.2109
  764POPS   C4A11322   6.533  14.784   6.704  0.5890 -0.2500  0.0451
  764POPS   C1B11323   7.282  15.589   6.133 -0.0980 -0.0841 -0.0204
  764POPS   C2B11324   7.288  15.962   6.373 -0.1850  0.0990 -0.1574
  764POPS   C3B11325   7.375  16.223   6.662  0.3419 -0.2108  0.1824
  764POPS   C4B11326   7.268  16.550   7.018  0.0736  0.3585 -0.2031
  765POPS   CNO11327  19.219   4.699   5.597 -0.1955  0.2856  0.4431
  765POPS   PO411328  19.430   5.021   5.804 -0.1523 -0.2634 -0.0223
  765POPS   GL111329  19.223   5.001   6.158 -0.2946 -0.1900 -0.0921
  765POPS   GL211330  18.876   4.794   6.274  0.5063 -0.0789 -0.0235
  765POPS   C1A11331  19.196   5.054   6.566  0.2133 -0.2182 -0.0938
  765POPS   D2A11332  19.312   4.949   6.950  0.0417  0.0366 -0.0409
  765POPS   C3A11333  19.336   5.267   7.338 -0.0646  0.1602 -0.1410
  765POPS   C4A11334  19.659   5.584   7.374  0.2865 -0.1750  0.0895
  765POPS   C1B11335  18.846   4.775   6.716  0.4249  0.2403 -0.1743
  765POPS   C2B11336  18.794   5.088   7.062 -0.2556  0.3499  0.0367
  765POPS   C3B11337  18.810   5.290   7.527 -0.0860  0.2834  0.0997
  765POPS   C4B11338  19.016   5.167   7.824  0.0095  0.2512  0.2782
  766POPS   CNO11339   7.352   5.807   4.803 -0.2545  0.0771  0.0462
  766POPS   PO411340   7.334   5.482   4.912  0.1456 -0.0010 -0.2932
  766POPS   GL111341   7.444   5.402   5.257  0.1868 -0.0029 -0.3304
  766POPS   GL211342   7.435   5.725   5.445 -0.0481 -0.2792  0.2627
  766POPS   C1A11343   7.711   5.265   5.644 -0.2692 -0.1769 -0.0925
  766POPS   D2A11344   8.044   5.213   5.904  0.0222 -0.1290  0.1108
  766POPS   C3A11345   8.460   5.019   5.751  0.2543 -0.2756  0.0665
  766POPS   C4A11346   8.677   4.861   5.965 -0.1460  0.0434  0.1316
  766POPS   C1B11347   7.504   5.924   5.846 -0.0427  0.1071  0.0363
  766POPS   C2B11348   7.284   5.843   6.215  0.1833 -0.0840 -0.0931
  766POPS   C3B11349   7.075   5.609   6.476  0.0891 -0.2496  0.0590
  766POPS   C4B11350   7.202   5.365   6.799 -0.1512  0.1682  0.1106
  767POPS   CNO11351   3.485  12.109   5.405 -0.0152 -0.0585  0.1140
  767POPS   PO411352   3.512  11.643   5.336  0.0723  0.4237  0.1475
  767POPS   GL111353   3.437  11.768   5.845 -0.1943 -0.0555  0.2266
  767POPS   GL211354   3.615  12.030   5.961  0.0009 -0.2217 -0.0229
  767POPS   C1A11355   3.322  11.509   6.198 -0.1878  0.2963 -0.1045
  767POPS   D2A11356   3.310  11.553   6.669  0.0634  0.2391 -0.1761
  767POPS   C3A11357   3.074  11.244   6.990 -0.2926 -0.3696 -0.1792
  767POPS   C4A11358   2.781  11.542   7.306  0.0648 -0.0892  0.1036
  767POPS   C1B11359   3.590  11.848   6.349 -0.0213  0.1085 -0.2692
  767POPS   C2B11360   3.564  11.981   6.827  0.2661  0.3179  0.0036
  767POPS   C3B11361   3.772  12.103   7.171  0.0199  0.1458  0.0018
  767POPS   C4B11362   3.990  12.149   7.478  0.2606 -0.0956 -0.4506
  768POPS   CNO11363  10.839   1.757   4.818  0.2888 -0.1141  0.0789
  768POPS   PO411364  10.497   2.148   4.955 -0.0362 -0.0643  0.0753
  768POPS   GL111365  10.251   2.277   5.227 -0.2490 -0.1032  0.0707
  768POPS   GL211366  10.017   1.986   5.239 -0.1714  0.1379 -0.0481
  768POPS   C1A11367  10.340   2.333   5.833 -0.2176  0.0141  0.2773
  768POPS   D2A11368  10.246   2.064   6.191 -0.1422 -0.0458 -0.0584
  768POPS   C3A11369  10.020   1.669   5.978  0.3483  0.2309  0.3717
  768POPS   C4A11370   9.946   1.271   5.919  0.3196  0.2621 -0.0468
  768POPS   C1B11371  10.427   1.918   5.586  0.2216  0.1302  0.2163
  768POPS   C2B11372  10.753   2.088   5.861  0.1642  0.1484  0.1289
  768POPS   C3B11373  10.935   2.180   6.197 -0.0009  0.0303  0.3208
  768POPS   C4B11374  11.133   2.068   6.538  0.1590 -0.1014 -0.1161
  769POPS   CNO11375   6.248  15.955   5.442 -0.0630 -0.2119 -0.3012
  769POPS   PO411376   5.841  16.214   5.385  0.1720  0.2835  0.0201
  769POPS   GL111377   6.127  16.232   5.872  0.1587 -0.0908 -0.0613
  769POPS   GL211378   5.983  16.149   6.099 -0.0572  0.2721 -0.0304
  769POPS   C1A11379   6.451  16.011   5.897  0.0711  0.0214 -0.0104
  769POPS   D2A11380   6.844  15.977   6.169  0.1741  0.4417 -0.0590
  769POPS   C3A11381   6.883  15.716   6.465 -0.1070 -0.1443 -0.0118
  769POPS   C4A11382   7.177  15.415   6.595  0.2855  0.1142 -0.1858
  769POPS   C1B11383   6.306  16.091   6.454  0.3561  0.2062  0.1615
  769POPS   C2B11384   6.453  15.820   6.714  0.1360 -0.2238  0.0029
  769POPS   C3B11385   6.761  15.613   6.916 -0.0570 -0.1345  0.0550
  769POPS   C4B11386   7.025  15.430   7.239  0.1167 -0.0957 -0.3485
  770POPS   CNO11387   4.995   9.233   4.720  0.3846  0.0562 -0.1166
  770POPS   PO411388   5.279   9.406   5.027  0.1213  0.0613  0.0389
  770POPS   GL111389   5.448   9.264   5.431  0.0374 -0.0456  0.0496
  770POPS   GL211390   5.478   8.929   5.511 -0.1721 -0.2077  0.2006
  770POPS   C1A11391   5.266   9.345   5.833 -0.1685 -0.3423  0.0589
  770POPS   D2A11392   5.378   9.536   6.185  0.0495  0.3640 -0.2548
  770POPS   C3A11393   5.587   9.922   6.308 -0.0609  0.1795 -0.1959
  770POPS   C4A11394   5.789  10.142   6.658 -0.1745  0.1296 -0.2054
  770POPS   C1B11395   5.196   8.840   5.725  0.0878 -0.0006  0.2496
  770POPS   C2B11396   5.164   8.942   6.178 -0.0367  0.3385  0.1205
  770POPS   C3B11397   5.122   8.909   6.505  0.2019 -0.3361 -0.0685
  770POPS   C4B11398   4.830   9.109   6.847 -0.1567  0.0685  0.0028
  771POPS   CNO11399  14.503   1.262   4.969  0.1500 -0.0110  0.2854
  771POPS   PO411400  14.731   0.906   5.041 -0.0482 -0.2325  0.1267
  771POPS   GL111401  14.554   1.022   5.493 -0.0409 -0.1041  0.1013
  771POPS   GL211402  14.428   1.402   5.478 -0.0856 -0.0925  0.1642
  771POPS   C1A11403  14.449   0.936   5.945 -0.2335 -0.1342 -0.2386
  771POPS   D2A11404  14.865   1.022   6.260  0.1725 -0.2680  0.0924
  771POPS   C3A11405  15.005   1.466   6.276 -0.1383 -0.0409  0.1901
  771POPS   C4A11406  15.054   1.826   6.295 -0.1002 -0.1667 -0.4108
  771POPS   C1B11407  14.542   1.548   5.913 -0.1097 -0.1392 -0.2678
  771POPS   C2B11408  14.498   1.359   6.350 -0.2842  0.0406 -0.0885
  771POPS   C3B11409  14.424   1.083   6.632 -0.2476  0.0373 -0.0665
  771POPS   C4B11410  14.497   1.077   7.086  0.3838  0.3388  0.0931
  772POPS   CNO11411  14.986  11.559   5.512  0.0111 -0.2182  0.0292
  772POPS   PO411412  15.239  11.602   5.891  0.1014 -0.0817  0.1853
  772POPS   GL111413  14.987  11.641   6.210 -0.2200  0.0495 -0.1698
  772POPS   GL211414  14.893  11.945   6.353 -0.3610 -0.0318  0.1746
  772POPS   C1A11415  15.243  11.589   6.581  0.0162  0.1910  0.0764
  772POPS   D2A11416  15.469  11.717   7.016  0.1061  0.2215  0.1674
  772POPS   C3A11417  15.218  11.959   7.276  0.2205  0.0437 -0.0265
  772POPS   C4A11418  15.217  11.846   7.673 -0.1216 -0.0715 -0.1315
  772POPS   C1B11419  15.314  12.076   6.641  0.0918  0.2259 -0.1935
  772POPS   C2B11420  15.501  12.279   6.962  0.1382 -0.1528  0.1399
  772POPS   C3B11421  15.640  12.723   6.962 -0.0419 -0.0959 -0.3062
  772POPS   C4B11422  15.603  13.140   6.915  0.0716 -0.1195 -0.1805
  773POPS   CNO11423   4.583   4.363   5.335  0.1443 -0.0212 -0.2735
  773POPS   PO411424   4.485   4.671   5.100  0.1245 -0.0007  0.0268
  773POPS   GL111425   4.604   4.872   5.417 -0.1174  0.1349 -0.0582
  773POPS   GL211426   4.414   4.765   5.612  0.0119 -0.3792  0.0730
  773POPS   C1A11427   4.863   4.961   5.859 -0.0961 -0.3254  0.0764
  773POPS   D2A11428   5.035   4.804   6.110 -0.1672  0.2737  0.3042
  773POPS   C3A11429   5.126   5.113   6.417 -0.0625 -0.0930 -0.5477
  773POPS   C4A11430   5.211   5.103   6.903 -0.0224 -0.0987  0.0041
  773POPS   C1B11431   4.365   4.852   6.011 -0.1514  0.3858 -0.2053
  773POPS   C2B11432   4.620   5.084   6.314 -0.3761 -0.3391 -0.6631
  773POPS   C3B11433   4.786   5.006   6.736  0.0261 -0.1647  0.0192
  773POPS   C4B11434   4.708   4.944   7.191 -0.2789 -0.0262  0.1474
  774POPS   CNO11435  12.700  16.381   5.041  0.1791 -0.1182 -0.0023
  774POPS   PO411436  12.745  15.982   5.445 -0.4851  0.0678  0.1743
  774POPS   GL111437  12.439  16.170   5.764  0.3292  0.0830 -0.3830
  774POPS   GL211438  12.348  15.839   5.827 -0.2147 -0.0420 -0.0494
  774POPS   C1A11439  12.404  16.141   6.242  0.0268 -0.2066 -0.4943
  774POPS   D2A11440  12.423  15.865   6.560 -0.0748  0.0494  0.0509
  774POPS   C3A11441  12.564  15.869   6.978 -0.1110 -0.0146 -0.2565
  774POPS   C4A11442  12.473  15.847   7.460  0.6275  0.1714  0.0402
  774POPS   C1B11443  12.600  15.734   6.097 -0.2061  0.2998  0.0520
  774POPS   C2B11444  12.753  15.566   6.381 -0.0587  0.2334 -0.0262
  774POPS   C3B11445  12.719  15.434   6.717 -0.1067  0.1814  0.0537
  774POPS   C4B11446  12.944  15.534   7.051 -0.0322 -0.0860  0.0797
  775POPS   CNO11447   0.828  15.089   5.425 -0.0513  0.2030  0.1417
  775POPS   PO411448   0.969  14.778   5.731 -0.3244 -0.2126 -0.0157
  775POPS   GL111449   1.261  14.876   6.080 -0.2858  0.1702 -0.0132
  775POPS   GL211450   1.573  14.710   6.048  0.1057  0.0883  0.0525
  775POPS   C1A11451   1.425  14.865   6.519 -0.2914 -0.0103  0.1017
  775POPS   D2A11452   1.334  14.962   6.865  0.2499 -0.2085  0.1206
  775POPS   C3A11453   0.987  15.184   7.055  0.1887 -0.1356 -0.0455
  775POPS   C4A11454   0.699  15.353   7.403  0.3127  0.0938 -0.0130
  775POPS   C1B11455   1.462  14.420   6.330  0.0216 -0.0883  0.1341
  775POPS   C2B11456   1.495  13.941   6.662 -0.3167 -0.1901 -0.0772
  775POPS   C3B11457   1.469  13.838   7.063  0.2010 -0.0979  0.2490
  775POPS   C4B11458   1.167  13.666   7.334 -0.2295 -0.1206  0.1663
  776POPS   CNO11459   0.981   5.478   5.415  0.1423  0.2122  0.0526
  776POPS   PO411460   0.970   5.073   5.330  0.3553  0.4068  0.1761
  776POPS   GL111461   1.130   5.046   5.570  0.0223  0.0704 -0.1062
  776POPS   GL211462   1.078   4.863   5.846  0.0989 -0.3409 -0.2849
  776POPS   C1A11463   1.570   5.086   5.780 -0.1589  0.1624  0.1332
  776POPS   D2A11464   1.967   5.232   6.016  0.2416  0.3409  0.0167
  776POPS   C3A11465   1.875   5.093   6.412  0.0472 -0.1097 -0.1623
  776POPS   C4A11466   1.640   5.259   6.840 -0.0618  0.0474  0.1662
  776POPS   C1B11467   0.989   4.918   6.155 -0.0077 -0.0779 -0.2237
  776POPS   C2B11468   0.855   4.822   6.672  0.1984 -0.0298 -0.1648
  776POPS   C3B11469   0.680   4.590   7.019  0.0209  0.1200  0.0788
  776POPS   C4B11470   0.757   4.234   7.324  0.3210 -0.1671  0.2867
  777POPS   CNO11471   4.101  16.695   4.996  0.0871  0.3385 -0.1969
  777POPS   PO411472   3.969  17.029   5.300  0.1964 -0.2773 -0.2750
  777POPS   GL111473   3.932  17.102   5.658 -0.0512 -0.0463 -0.0690
  777POPS   GL211474   3.846  17.240   5.912 -0.2037  0.2087 -0.0490
  777POPS   C1A11475   4.131  16.921   6.077  0.1586 -0.0499  0.1971
  777POPS   D2A11476   4.160  16.964   6.451  0.0103 -0.2005  0.0086
  777POPS   C3A11477   3.924  16.877   6.913 -0.1348  0.1658 -0.0891
  777POPS   C4A11478   3.863  16.608   7.276 -0.0003 -0.1210  0.3254
  777POPS   C1B11479   3.701  17.088   6.261 -0.1866 -0.0703  0.0516
  777POPS   C2B11480   3.585  17.069   6.645  0.1246  0.3290 -0.0996
  777POPS   C3B11481   3.519  17.106   7.170 -0.2872  0.0620  0.2200
  777POPS   C4B11482   3.527  17.425   7.500 -0.3121 -0.1131  0.3057
  778POPS   CNO11483   3.264   1.012   4.959  0.0334 -0.0197  0.1645
  778POPS   PO411484   3.614   0.991   5.171 -0.4796 -0.0591  0.4116
  778POPS   GL111485   3.606   0.967   5.589  0.5100  0.2440 -0.0302
  778POPS   GL211486   3.897   0.966   5.883 -0.2691  0.0176 -0.0891
  778POPS   C1A11487   3.418   1.242   5.874 -0.0316  0.2063  0.1544
  778POPS   D2A11488   3.076   1.188   6.239 -0.0949 -0.1191 -0.0996
  778POPS   C3A11489   3.137   0.843   6.522 -0.2542  0.0918  0.1637
  778POPS   C4A11490   2.957   0.796   6.865  0.0558  0.2220  0.0032
  778POPS   C1B11491   4.137   1.269   6.212  0.3872 -0.0662  0.0288
  778POPS   C2B11492   4.253   1.304   6.535 -0.3545  0.1472  0.1592
  778POPS   C3B11493   4.196   1.305   6.942  0.0595  0.2523 -0.0908
  778POPS   C4B11494   4.038   1.701   7.255 -0.0231 -0.1825 -0.0895
  779POPS   CNO11495  11.155   8.815   5.155 -0.0115 -0.1809  0.1240
  779POPS   PO411496  11.500   8.854   5.268  0.0520 -0.1395 -0.0505
  779POPS   GL111497  11.307   8.935   5.657  0.2587  0.3002  0.0636
  779POPS   GL211498  11.087   8.863   5.771  0.0013  0.0832  0.1815
  779POPS   C1A11499  11.432   9.034   6.060  0.1956 -0.1021  0.1985
  779POPS   D2A11500  11.411   9.022   6.526  0.0821 -0.2481 -0.2751
  779POPS   C3A11501  11.084   9.359   6.682 -0.3199 -0.2517  0.0490
  779POPS   C4A11502  10.694   9.395   6.799 -0.1640  0.2867 -0.2217
  779POPS   C1B11503  10.563   8.762   5.992 -0.0874 -0.0862  0.2057
  779POPS   C2B11504  10.243   9.017   6.211  0.0356 -0.1580 -0.3472
  779POPS   C3B11505  10.014   8.947   6.593  0.2807 -0.0073 -0.4560
  779POPS   C4B11506   9.980   8.919   7.026  0.0984 -0.1575 -0.1911
  780POPS   CNO11507  18.587  17.968   5.146 -0.1930  0.0027 -0.1068
  780POPS   PO411508  18.535  17.867   5.546  0.1355 -0.0226  0.0743
  780POPS   GL111509  18.579  17.769   5.957  0.1096  0.3101 -0.1136
  780POPS   GL211510  18.451  17.450   6.095  0.0450 -0.1556  0.0313
  780POPS   C1A11511  18.473  17.811   6.370  0.0179  0.0355  0.0017
  780POPS   D2A11512  18.358  17.738   6.715  0.0056 -0.2395 -0.2409
  780POPS   C3A11513  18.500  17.869   7.085  0.1076 -0.2996  0.2401
  780POPS   C4A11514  18.566  17.772   7.442 -0.1057  0.0028  0.2615
  780POPS   C1B11515  18.296  17.207   6.397  0.2407 -0.3694  0.0612
  780POPS   C2B11516  18.156  17.181   6.759 -0.3151  0.2150 -0.0382
  780POPS   C3B11517  18.023  16.996   7.085  0.4488 -0.1260 -0.0133
  780POPS   C4B11518  17.842  17.040   7.584  0.1809 -0.1804  0.0711
  781POPS   CNO11519   3.479   5.980   5.164 -0.1997 -0.2611  0.0833
  781POPS   PO411520   3.363   6.339   5.267 -0.2444 -0.0138 -0.1318
  781POPS   GL111521   3.390   6.158   5.657  0.1827  0.0041  0.0663
  781POPS   GL211522   3.274   5.871   5.766 -0.4065 -0.1739 -0.0307
  781POPS   C1A11523   3.600   6.211   6.102  0.2455 -0.1536 -0.0841
  781POPS   D2A11524   3.866   5.974   6.389 -0.2652  0.2967  0.0852
  781POPS   C3A11525   3.688   5.926   6.819 -0.0005  0.2419 -0.1475
  781POPS   C4A11526   3.580   5.646   7.168  0.0955 -0.0769  0.0707
  781POPS   C1B11527   3.456   5.643   5.969  0.3770 -0.2119 -0.1584
  781POPS   C2B11528   3.725   5.502   6.259  0.1581  0.2460  0.1853
  781POPS   C3B11529   3.944   5.502   6.702  0.0963  0.0305 -0.0975
  781POPS   C4B11530   3.855   5.240   7.018 -0.1263  0.0311 -0.1156
  782POPS   CNO11531   6.541  13.980   5.437 -0.0083  0.0335  0.1093
  782POPS   PO411532   6.261  13.722   5.710 -0.0797  0.0504 -0.0085
  782POPS   GL111533   6.267  13.943   6.109  0.1946  0.0968 -0.2780
  782POPS   GL211534   6.185  14.276   5.973  0.1646 -0.4714 -0.0865
  782POPS   C1A11535   6.457  13.863   6.402 -0.1993  0.1953 -0.0982
  782POPS   D2A11536   6.527  13.528   6.624  0.3018  0.1734  0.3959
  782POPS   C3A11537   6.219  13.387   6.892  0.0334 -0.3025 -0.0553
  782POPS   C4A11538   6.007  13.304   7.309  0.1022 -0.1557  0.0355
  782POPS   C1B11539   5.849  14.221   6.327  0.0407 -0.3095  0.2491
  782POPS   C2B11540   5.820  14.343   6.680 -0.2372  0.1513 -0.0926
  782POPS   C3B11541   5.802  14.280   7.145 -0.3563 -0.0319 -0.1582
  782POPS   C4B11542   5.561  14.649   7.251 -0.0287  0.0265  0.1692
  783POPS   CNO11543  11.135  18.794   5.150 -0.0936  0.1228 -0.2185
  783POPS   PO411544  11.333  19.211   5.102  0.0978 -0.4598  0.1267
  783POPS   GL111545  11.130  19.411   5.493  0.0136  0.2415  0.1867
  783POPS   GL211546  10.865  19.627   5.474  0.1679 -0.1769 -0.4138
  783POPS   C1A11547  11.092  19.518   5.964  0.0044 -0.1178 -0.1484
  783POPS   D2A11548  11.051  19.506   6.356  0.2239  0.2206 -0.1789
  783POPS   C3A11549  11.285  19.572   6.665  0.1948 -0.0127 -0.0307
  783POPS   C4A11550  11.452  19.973   6.973 -0.0031 -0.0818  0.2075
  783POPS   C1B11551  10.564  19.417   5.862 -0.1579 -0.1457  0.2595
  783POPS   C2B11552  10.462  19.456   6.240  0.1619  0.1704 -0.2893
  783POPS   C3B11553  10.669  19.421   6.695  0.1157  0.1506  0.0887
  783POPS   C4B11554  10.983  19.467   7.071  0.1760  0.1842  0.1178
  784POPS   CNO11555  10.613  18.585   5.259 -0.0276 -0.0253 -0.2317
  784POPS   PO411556  10.254  18.183   5.295 -0.0219  0.0640  0.0386
  784POPS   GL111557  10.248  18.476   5.670  0.1970 -0.0221 -0.0200
  784POPS   GL211558   9.987  18.582   5.692 -0.1228 -0.1452  0.0343
  784POPS   C1A11559  10.456  18.554   6.048 -0.0930 -0.0633 -0.2980
  784POPS   D2A11560  10.266  18.443   6.436  0.0641 -0.2669 -0.3266
  784POPS   C3A11561  10.574  18.577   6.753  0.0516 -0.2224 -0.3066
  784POPS   C4A11562  10.495  18.618   7.159  0.1084  0.1729 -0.4418
  784POPS   C1B11563   9.736  18.869   6.078 -0.1362 -0.0702 -0.1380
  784POPS   C2B11564   9.739  19.133   6.366  0.1317 -0.2235 -0.0407
  784POPS   C3B11565   9.531  19.456   6.631 -0.2317  0.1366  0.0323
  784POPS   C4B11566   9.658  19.439   7.072 -0.1428  0.1341 -0.2725
  785POPS   CNO11567   9.083  13.923   5.002  0.0488  0.1090 -0.0513
  785POPS   PO411568   8.915  13.845   5.326 -0.1304  0.1625  0.0215
  785POPS   GL111569   9.049  13.629   5.666 -0.0014  0.1282  0.0795
  785POPS   GL211570   8.863  13.667   5.972 -0.0603  0.4215  0.0306
  785POPS   C1A11571   9.040  13.218   5.907  0.2003  0.0720  0.0236
  785POPS   D2A11572   9.335  12.880   5.968  0.4014  0.0471  0.1214
  785POPS   C3A11573   9.528  12.829   6.355  0.1229  0.4509 -0.0542
  785POPS   C4A11574   9.750  13.014   6.565 -0.2778 -0.2638  0.1048
  785POPS   C1B11575   9.202  13.765   6.262  0.0868 -0.1463  0.0851
  785POPS   C2B11576   9.305  13.861   6.647  0.1773 -0.0667 -0.0736
  785POPS   C3B11577   9.305  14.061   7.006 -0.0843  0.0084 -0.4858
  785POPS   C4B11578   9.687  14.120   7.267 -0.1292  0.1530  0.1136
  786POPS   CNO11579  12.109   5.085   4.853  0.0536  0.2394  0.1671
  786POPS   PO411580  12.423   5.307   4.985 -0.0171 -0.1683  0.0852
  786POPS   GL111581  12.293   5.286   5.389  0.2993  0.3495 -0.2156
  786POPS   GL211582  11.985   5.164   5.446 -0.1614 -0.1644 -0.1608
  786POPS   C1A11583  12.328   5.075   5.838 -0.0806 -0.0747  0.1961
  786POPS   D2A11584  12.222   4.797   6.101 -0.0701  0.1316 -0.1134
  786POPS   C3A11585  12.059   4.849   6.374 -0.3405  0.1521 -0.1582
  786POPS   C4A11586  11.933   5.077   6.716 -0.2327 -0.2199  0.1586
  786POPS   C1B11587  11.964   5.451   5.840 -0.2833 -0.2527 -0.0995
  786POPS   C2B11588  11.949   5.804   6.131 -0.3874  0.3262  0.0551
  786POPS   C3B11589  12.160   6.178   6.158 -0.3116  0.0585  0.0041
  786POPS   C4B11590  12.199   6.527   5.848  0.2888  0.0333 -0.0531
  787POPS   CNO11591   1.772   6.517   5.169  0.1275 -0.2662 -0.0389
  787POPS   PO411592   1.579   6.732   5.411 -0.1833 -0.1245 -0.1078
  787POPS   GL111593   1.619   6.889   5.815 -0.0689 -0.0335  0.5033
  787POPS   GL211594   1.374   6.664   6.102 -0.0036 -0.0277  0.3211
  787POPS   C1A11595   1.530   7.105   6.119 -0.0723  0.0196  0.1624
  787POPS   D2A11596   1.817   7.301   6.420 -0.0651  0.2258 -0.1917
  787POPS   C3A11597   2.017   7.571   6.694  0.3246 -0.0222  0.0275
  787POPS   C4A11598   1.828   7.595   7.160 -0.0018 -0.0752 -0.0575
  787POPS   C1B11599   1.727   6.705   6.380 -0.2046 -0.0885  0.0544
  787POPS   C2B11600   1.862   6.442   6.624  0.1964  0.2586 -0.3055
  787POPS   C3B11601   2.059   6.448   7.042 -0.6157  0.2166  0.0397
  787POPS   C4B11602   2.248   6.494   7.346  0.0313  0.0430 -0.4413
  788POPS   CNO11603   6.320   5.253   4.978 -0.3563 -0.0505 -0.1752
  788POPS   PO411604   6.480   5.690   5.021 -0.0633 -0.2110 -0.3000
  788POPS   GL111605   6.776   5.751   5.326 -0.3506 -0.1352 -0.2862
  788POPS   GL211606   6.985   5.868   5.242  0.3268 -0.2481  0.1892
  788POPS   C1A11607   6.791   5.797   5.747  0.1358 -0.1514 -0.2124
  788POPS   D2A11608   6.870   6.098   6.064 -0.2432 -0.2215  0.1877
  788POPS   C3A11609   6.515   6.042   6.406  0.1630 -0.2395  0.4065
  788POPS   C4A11610   6.435   6.057   6.801 -0.1117 -0.1177  0.1673
  788POPS   C1B11611   7.127   6.148   5.636 -0.1467 -0.1732  0.0405
  788POPS   C2B11612   7.291   6.347   6.031 -0.1795  0.1413 -0.2146
  788POPS   C3B11613   7.325   6.612   6.315 -0.3785 -0.0595 -0.0675
  788POPS   C4B11614   7.123   6.810   6.679  0.0203 -0.0576 -0.6001
  789POPS   CNO11615   8.565  11.605   5.190  0.1208  0.0049  0.0932
  789POPS   PO411616   8.781  12.022   5.309  0.0482 -0.1895  0.0788
  789POPS   GL111617   8.918  12.055   5.737 -0.0342 -0.3707  0.3431
  789POPS   GL211618   8.574  12.070   5.848  0.3181  0.0733  0.0669
  789POPS   C1A11619   8.963  11.930   6.172 -0.1927  0.0591 -0.2383
  789POPS   D2A11620   8.978  11.897   6.553 -0.0442 -0.2248 -0.3415
  789POPS   C3A11621   8.726  12.104   6.753  0.0090  0.1530  0.0037
  789POPS   C4A11622   8.735  12.398   7.111  0.3991 -0.0138 -0.2587
  789POPS   C1B11623   8.702  12.357   6.149 -0.2013 -0.1485  0.4075
  789POPS   C2B11624   8.686  12.556   6.581 -0.1571 -0.3155  0.2420
  789POPS   C3B11625   8.775  12.864   6.918  0.1285 -0.0195  0.1605
  789POPS   C4B11626   8.835  13.182   7.338  0.2439 -0.0516  0.0195
  790POPS   CNO11627  10.342   0.335   5.412 -0.1486  0.0996 -0.1146
  790POPS   PO411628  10.622   0.739   5.189 -0.2000 -0.0324 -0.0871
  790POPS   GL111629  10.626   0.924   5.499  0.1568 -0.3799  0.0938
  790POPS   GL211630  10.923   0.921   5.586 -0.2935 -0.0673  0.0881
  790POPS   C1A11631  10.529   1.191   5.945 -0.1926  0.3810  0.1311
  790POPS   D2A11632  10.525   1.526   6.035  0.0218 -0.0875 -0.2064
  790POPS   C3A11633  10.492   1.690   6.433 -0.3400 -0.1817  0.1436
  790POPS   C4A11634  10.237   1.716   6.785 -0.0887 -0.3433 -0.0239
  790POPS   C1B11635  10.762   0.726   5.942 -0.2462  0.0022 -0.0897
  790POPS   C2B11636  10.890   0.714   6.342 -0.0263 -0.0312 -0.5612
  790POPS   C3B11637  11.151   0.956   6.621 -0.1168 -0.0216 -0.0465
  790POPS   C4B11638  11.352   1.270   7.050  0.2352  0.0167  0.0400
  791POPS   CNO11639   0.201   6.604   5.336  0.1464 -0.2587 -0.1446
  791POPS   PO411640  -0.036   6.966   5.520 -0.1773  0.0183  0.1961
  791POPS   GL111641  -0.306   7.388   5.775 -0.1338 -0.0889  0.0417
  791POPS   GL211642  -0.630   7.208   5.939  0.0607  0.0227  0.2515
  791POPS   C1A11643  -0.212   7.824   5.956 -0.0499 -0.0521 -0.3691
  791POPS   D2A11644  -0.138   7.851   6.450 -0.3447  0.0673 -0.0758
  791POPS   C3A11645   0.003   7.573   6.735  0.1378 -0.2420  0.1401
  791POPS   C4A11646   0.187   7.355   7.062 -0.0281 -0.1618 -0.4263
  791POPS   C1B11647  -0.788   7.273   6.247  0.1115 -0.3738  0.2852
  791POPS   C2B11648  -0.844   7.330   6.662  0.0885 -0.0261  0.0861
  791POPS   C3B11649  -1.098   7.226   7.040  0.1914  0.0216 -0.0620
  791POPS   C4B11650  -1.041   7.483   7.337 -0.1632  0.2056 -0.1770
  792POPS   CNO11651  10.351   1.032   4.851 -0.3722  0.2924  0.3758
  792POPS   PO411652  10.241   1.118   5.233  0.2466  0.2497  0.0833
  792POPS   GL111653  10.165   0.853   5.567 -0.1520  0.0526  0.3044
  792POPS   GL211654   9.914   0.612   5.524  0.1554 -0.1721 -0.1324
  792POPS   C1A11655  10.287   0.629   5.996 -0.1252  0.0862  0.0925
  792POPS   D2A11656  10.415   0.697   6.427 -0.1204  0.2015  0.0415
  792POPS   C3A11657  10.079   0.760   6.697  0.0668 -0.0164  0.0746
  792POPS   C4A11658   9.836   0.638   7.031 -0.0454  0.4122 -0.4290
  792POPS   C1B11659   9.760   0.678   5.872 -0.0638 -0.0564  0.2192
  792POPS   C2B11660   9.898   0.885   6.225 -0.1723  0.0313  0.0364
  792POPS   C3B11661  10.179   1.261   6.358 -0.0118 -0.1666 -0.2173
  792POPS   C4B11662   9.953   1.698   6.424  0.1521  0.0674 -0.1260
  793POPS   CNO11663  11.943  17.823   4.911 -0.0059 -0.1123  0.1591
  793POPS   PO411664  12.247  17.629   5.199 -0.0298  0.0393  0.2203
  793POPS   GL111665  12.213  17.747   5.640  0.0402 -0.0629  0.1727
  793POPS   GL211666  12.069  18.070   5.681 -0.1072 -0.2225 -0.3162
  793POPS   C1A11667  12.157  17.746   6.107 -0.1884 -0.2374  0.2644
  793POPS   D2A11668  12.178  17.888   6.566 -0.1839  0.2160 -0.0888
  793POPS   C3A11669  12.461  18.260   6.763  0.3109  0.0019 -0.1388
  793POPS   C4A11670  12.803  18.277   6.982  0.0299  0.1699 -0.0057
  793POPS   C1B11671  12.405  18.164   6.038  0.1678 -0.2364  0.0427
  793POPS   C2B11672  12.667  18.016   6.331  0.0820 -0.0370 -0.1865
  793POPS   C3B11673  12.944  17.892   6.603  0.0141  0.3192  0.1842
  793POPS   C4B11674  13.014  17.694   6.925 -0.0161  0.0391 -0.0962
  794POPS   CNO11675  15.917  18.027   5.702 -0.0560 -0.1883 -0.1990
  794POPS   PO411676  16.262  17.899   5.616 -0.1812  0.0434 -0.0847
  794POPS   GL111677  16.227  17.835   6.114  0.0365 -0.3923 -0.0081
  794POPS   GL211678  16.567  17.932   6.205  0.0865 -0.2350 -0.4728
  794POPS   C1A11679  16.321  17.766   6.545  0.2977 -0.0116 -0.0635
  794POPS   D2A11680  16.363  17.933   6.858 -0.1005 -0.0654 -0.0589
  794POPS   C3A11681  16.211  17.705   7.255  0.3581  0.3050 -0.2449
  794POPS   C4A11682  15.802  17.701   7.481 -0.0013  0.2057  0.0329
  794POPS   C1B11683  16.947  18.022   6.541 -0.1087 -0.2546 -0.2443
  794POPS   C2B11684  16.844  18.066   6.965  0.0040 -0.0613  0.2777
  794POPS   C3B11685  17.007  18.166   7.280  0.0979  0.3013 -0.2018
  794POPS   C4B11686  16.721  18.270   7.703  0.0298  0.0318 -0.0786
  795POPS   CNO11687   5.435   6.288   4.706  0.0002 -0.0006 -0.0656
  795POPS   PO411688   5.813   6.149   4.949  0.1163  0.4960 -0.1441
  795POPS   GL111689   6.118   6.298   5.188 -0.0170  0.1446 -0.3368
  795POPS   GL211690   6.195   6.207   5.447  0.3008 -0.1173  0.1268
  795POPS   C1A11691   6.441   6.625   5.354 -0.0165 -0.3546  0.0473
  795POPS   D2A11692   6.281   7.096   5.515  0.0654  0.3585  0.1070
  795POPS   C3A11693   6.205   7.236   6.017 -0.1735 -0.2519  0.1580
  795POPS   C4A11694   6.160   7.643   6.274 -0.0882 -0.0567 -0.2160
  795POPS   C1B11695   6.100   6.108   5.788  0.2846 -0.2738  0.2050
  795POPS   C2B11696   6.319   5.804   5.954 -0.1798 -0.3565 -0.2157
  795POPS   C3B11697   6.643   5.620   6.260 -0.1940 -0.1553 -0.0664
  795POPS   C4B11698   6.627   5.328   6.622  0.3687 -0.0970  0.2196
  796POPS   CNO11699  17.526  13.801   5.103 -0.1528 -0.1029 -0.0617
  796POPS   PO411700  17.408  13.930   5.556  0.0627  0.1648 -0.3576
  796POPS   GL111701  17.533  13.934   5.929 -0.0631  0.1651 -0.0740
  796POPS   GL211702  17.552  13.561   6.035 -0.0096  0.0015 -0.2953
  796POPS   C1A11703  17.771  13.832   6.359  0.2320 -0.1689  0.0400
  796POPS   D2A11704  17.860  13.907   6.760  0.0377  0.1876  0.2000
  796POPS   C3A11705  17.826  13.986   7.214  0.1544 -0.2635  0.1388
  796POPS   C4A11706  17.912  14.380   7.373  0.0457 -0.2989 -0.1329
  796POPS   C1B11707  17.610  13.149   6.258  0.0614 -0.0655  0.0097
  796POPS   C2B11708  17.450  13.016   6.596 -0.0362  0.0177  0.3200
  796POPS   C3B11709  17.065  13.074   6.755  0.2990  0.0710  0.1846
  796POPS   C4B11710  16.822  12.881   7.114  0.0622  0.0028 -0.1664
  797POPS   CNO11711   0.097  17.264   5.327  0.0003  0.2769  0.2185
  797POPS   PO411712   0.186  17.458   5.697 -0.0639 -0.1043  0.0167
  797POPS   GL111713  -0.083  17.237   6.152 -0.2258 -0.3351 -0.1238
  797POPS   GL211714  -0.074  16.898   6.202  0.1113  0.2690  0.0657
  797POPS   C1A11715   0.263  17.025   6.482  0.0937 -0.0406 -0.1216
  797POPS   D2A11716   0.440  17.227   6.928  0.0483  0.0597 -0.2166
  797POPS   C3A11717   0.773  17.137   7.125 -0.3846  0.1605  0.0178
  797POPS   C4A11718   0.916  16.765   7.323 -0.2135 -0.3504  0.3211
  797POPS   C1B11719  -0.205  16.848   6.639 -0.0932 -0.2496 -0.0880
  797POPS   C2B11720   0.091  16.873   7.059 -0.0541 -0.3474  0.2834
  797POPS   C3B11721   0.036  17.011   7.367  0.0809 -0.4049  0.0292
  797POPS   C4B11722   0.099  16.635   7.564 -0.2449  0.1431  0.1732
  798POPS   CNO11723  15.226  19.215   5.561 -0.0397 -0.2259 -0.1291
  798POPS   PO411724  15.182  18.822   5.451  0.0949 -0.1131  0.1226
  798POPS   GL111725  15.195  18.827   5.892  0.0382  0.2241  0.0491
  798POPS   GL211726  15.166  18.606   6.057  0.1627  0.1500  0.0891
  798POPS   C1A11727  15.370  19.167   6.057  0.3592 -0.0134  0.0199
  798POPS   D2A11728  15.305  19.439   6.390 -0.2166 -0.1325  0.3310
  798POPS   C3A11729  15.081  19.368   6.723  0.0655 -0.2200 -0.3418
  798POPS   C4A11730  14.935  19.657   7.017  0.0075 -0.2098  0.0865
  798POPS   C1B11731  15.353  18.893   6.442  0.1882 -0.2363  0.1439
  798POPS   C2B11732  15.619  19.130   6.693  0.3483  0.2275 -0.0132
  798POPS   C3B11733  15.488  18.912   7.203  0.3760  0.1354  0.0365
  798POPS   C4B11734  15.622  18.834   7.501 -0.5432  0.0294  0.1228
  799POPS   CNO11735   9.177   5.692   5.371  0.3897  0.0799 -0.0504
  799POPS   PO411736   9.198   5.914   4.889 -0.2005  0.1848  0.2279
  799POPS   GL111737   9.103   6.172   5.244  0.0377  0.3036 -0.2409
  799POPS   GL211738   8.823   6.386   5.145  0.1304  0.3475 -0.1347
  799POPS   C1A11739   9.208   6.165   5.713  0.2297 -0.0381  0.1475
  799POPS   D2A11740   9.466   6.369   6.082 -0.0724 -0.2512  0.1247
  799POPS   C3A11741   9.462   6.808   6.141 -0.2472 -0.0501 -0.1160
  799POPS   C4A11742   9.050   7.023   6.208 -0.1482 -0.3806  0.0111
  799POPS   C1B11743   8.668   6.350   5.511  0.3515  0.0968  0.2365
  799POPS   C2B11744   8.478   6.449   5.936  0.2552  0.0028  0.0574
  799POPS   C3B11745   8.482   6.250   6.347 -0.2322  0.2975  0.3182
  799POPS   C4B11746   8.493   6.312   6.765 -0.1632  0.1229 -0.2074
  800POPS   CNO11747   5.125   6.791   4.675 -0.0083 -0.2821 -0.0019
  800POPS   PO411748   5.157   6.655   5.074  0.0177  0.0550  0.4089
  800POPS   GL111749   5.408   6.737   5.480 -0.0179 -0.1140  0.1173
  800POPS   GL211750   5.505   7.032   5.474  0.3006 -0.3391 -0.0036
  800POPS   C1A11751   5.402   6.828   5.941 -0.2295  0.1541 -0.4297
  800POPS   D2A11752   5.642   6.809   6.308 -0.4060  0.2506 -0.0430
  800POPS   C3A11753   5.993   6.853   6.312  0.1891  0.0436  0.0927
  800POPS   C4A11754   6.251   7.071   6.531 -0.0367 -0.2715  0.0410
  800POPS   C1B11755   5.771   7.104   5.801  0.0406  0.2689  0.0998
  800POPS   C2B11756   5.698   7.352   6.187 -0.4637  0.0106  0.2581
  800POPS   C3B11757   5.860   7.367   6.567  0.1451 -0.2859  0.4331
  800POPS   C4B11758   6.060   7.367   6.883  0.2677 -0.0053 -0.0037
  801POPS   CNO11759   0.086  18.491   5.580  0.1241  0.3068  0.0293
  801POPS   PO411760   0.307  18.842   5.769 -0.0283 -0.2177 -0.1508
  801POPS   GL111761   0.285  18.557   6.124  0.0810  0.1942  0.0013
  801POPS   GL211762   0.057  18.349   6.095 -0.1902  0.1433  0.2649
  801POPS   C1A11763   0.309  18.711   6.558 -0.2649 -0.2685  0.2029
  801POPS   D2A11764   0.234  18.957   6.873  0.0433  0.0471  0.1255
  801POPS   C3A11765   0.088  18.868   7.310  0.0100 -0.0035  0.2872
  801POPS   C4A11766   0.215  19.077   7.597  0.2575  0.0368 -0.1083
  801POPS   C1B11767   0.110  18.169   6.515 -0.1618 -0.0445  0.1179
  801POPS   C2B11768   0.317  18.251   7.013 -0.3364  0.1988  0.2013
  801POPS   C3B11769   0.380  18.416   7.375  0.1206 -0.0052 -0.0813
  801POPS   C4B11770   0.752  18.400   7.627 -0.0690 -0.2370  0.0978
  802POPS   CNO11771   8.232   0.527   4.878  0.3510 -0.2745  0.2307
  802POPS   PO411772   8.483   0.245   5.211  0.1166 -0.2076  0.2175
  802POPS   GL111773   8.312   0.298   5.631  0.3539  0.1293 -0.0499
  802POPS   GL211774   8.388   0.077   5.811 -0.2253  0.1406  0.0666
  802POPS   C1A11775   8.056   0.498   5.957 -0.0953 -0.0223 -0.1000
  802POPS   D2A11776   7.878   0.365   6.412  0.0671 -0.1086 -0.1985
  802POPS   C3A11777   8.008   0.339   6.794 -0.1304  0.1804  0.0701
  802POPS   C4A11778   8.104   0.628   7.192  0.2658 -0.1568 -0.0318
  802POPS   C1B11779   8.362   0.250   6.335  0.1825  0.2490  0.0872
  802POPS   C2B11780   8.273   0.666   6.526  0.0336  0.0361 -0.2409
  802POPS   C3B11781   7.923   0.857   6.736 -0.2606  0.2878 -0.0874
  802POPS   C4B11782   7.861   1.286   6.961  0.5206  0.0325 -0.0853
  803POPS   CNO11783   6.928  17.958   5.103  0.3639 -0.2500  0.0807
  803POPS   PO411784   7.147  17.920   5.465 -0.0656 -0.0417 -0.0085
  803POPS   GL111785   7.142  17.797   5.903  0.0246 -0.1520  0.3056
  803POPS   GL211786   6.731  17.745   5.926  0.3375  0.3158 -0.0613
  803POPS   C1A11787   7.180  17.760   6.303  0.1244  0.2135 -0.1207
  803POPS   D2A11788   7.003  17.553   6.693  0.0715 -0.0185  0.0164
  803POPS   C3A11789   7.191  17.615   7.068 -0.1506 -0.2785  0.0914
  803POPS   C4A11790   6.896  17.646   7.427 -0.0752  0.1344  0.0349
  803POPS   C1B11791   6.501  17.857   6.315  0.3026  0.1090  0.1218
  803POPS   C2B11792   6.540  17.845   6.781 -0.0805 -0.1842  0.1503
  803POPS   C3B11793   6.529  17.937   7.229 -0.0636  0.2261  0.0504
  803POPS   C4B11794   6.217  17.994   7.498  0.0510  0.2027  0.2065
  804POPS   CNO11795  19.018   9.487   5.167  0.2104 -0.1344 -0.0233
  804POPS   PO411796  18.848   9.904   5.264 -0.1130  0.4388  0.0084
  804POPS   GL111797  19.005   9.754   5.603  0.0832  0.0024 -0.0647
  804POPS   GL211798  19.218   9.897   5.824  0.0232 -0.1068  0.1659
  804POPS   C1A11799  18.717   9.699   6.031 -0.3508 -0.0068 -0.0712
  804POPS   D2A11800  18.494   9.564   6.474 -0.0946  0.1550  0.1081
  804POPS   C3A11801  18.418   9.998   6.717 -0.0743 -0.1321 -0.1271
  804POPS   C4A11802  18.563  10.260   7.067  0.0780  0.1248 -0.1194
  804POPS   C1B11803  19.458  10.079   6.210  0.6327  0.1130 -0.0121
  804POPS   C2B11804  19.426  10.067   6.646 -0.0885  0.1412  0.3667
  804POPS   C3B11805  19.281  10.149   7.045  0.0486 -0.1924  0.0257
  804POPS   C4B11806  19.431   9.965   7.409  0.2540 -0.1831 -0.3126
  805POPS   CNO11807   4.015   4.848   5.366 -0.1834  0.0233  0.3032
  805POPS   PO411808   3.928   5.245   5.292 -0.0408 -0.0047  0.3040
  805POPS   GL111809   3.905   5.254   5.676  0.2253 -0.1665  0.0691
  805POPS   GL211810   3.767   5.066   5.835  0.3093  0.1433 -0.0105
  805POPS   C1A11811   4.166   5.330   6.042  0.0101  0.0974 -0.0239
  805POPS   D2A11812   4.135   5.167   6.388 -0.0012  0.2168  0.1243
  805POPS   C3A11813   3.672   5.067   6.479 -0.1490 -0.0972  0.0320
  805POPS   C4A11814   3.357   4.709   6.333 -0.5236 -0.3831 -0.0851
  805POPS   C1B11815   3.816   4.760   6.122 -0.2405 -0.1096 -0.0998
  805POPS   C2B11816   4.011   4.623   6.326 -0.0339  0.0911 -0.0047
  805POPS   C3B11817   4.160   4.756   6.667  0.0100  0.1840 -0.0765
  805POPS   C4B11818   4.123   4.608   7.069  0.1328  0.0350 -0.0791
  806POPS   CNO11819   6.891   9.805   4.927  0.0832  0.3506 -0.2334
  806POPS   PO411820   7.263  10.025   5.017  0.1372 -0.1057 -0.1387
  806POPS   GL111821   7.353   9.859   5.457  0.0039 -0.0043  0.1836
  806POPS   GL211822   7.481   9.559   5.452 -0.1608 -0.2353 -0.0617
  806POPS   C1A11823   7.440  10.085   5.774 -0.2225  0.0900  0.0495
  806POPS   D2A11824   7.513  10.383   6.112 -0.2305  0.0879  0.0401
  806POPS   C3A11825   7.061  10.677   6.054 -0.1473  0.0895 -0.1131
  806POPS   C4A11826   6.676  10.773   6.097  0.0871  0.4335 -0.0674
  806POPS   C1B11827   7.397   9.590   5.853  0.2750 -0.2796  0.1696
  806POPS   C2B11828   7.515   9.726   6.143 -0.2993  0.0969  0.3454
  806POPS   C3B11829   7.682   9.646   6.565 -0.2526 -0.1335 -0.2440
  806POPS   C4B11830   7.978   9.501   6.834 -0.2834 -0.0212 -0.3332
  807POPS   CNO11831  16.001  14.022   5.406 -0.1445  0.1201  0.1931
  807POPS   PO411832  15.879  13.594   5.637 -0.1093  0.0599  0.0638
  807POPS   GL111833  15.838  13.874   5.943 -0.0364 -0.2670  0.1341
  807POPS   GL211834  15.865  14.174   5.887  0.1109 -0.2359  0.0582
  807POPS   C1A11835  15.685  13.999   6.339  0.3668 -0.3060 -0.1070
  807POPS   D2A11836  15.811  14.191   6.775  0.2599  0.4327 -0.1902
  807POPS   C3A11837  15.454  14.342   6.940 -0.2015 -0.2520  0.0754
  807POPS   C4A11838  15.300  14.765   7.041  0.1475 -0.0096 -0.2051
  807POPS   C1B11839  16.105  14.267   6.224 -0.1819  0.2135 -0.1094
  807POPS   C2B11840  16.388  14.459   6.453 -0.0797  0.0390 -0.4827
  807POPS   C3B11841  16.262  14.595   6.859  0.1281  0.1405 -0.1618
  807POPS   C4B11842  16.454  14.618   7.204 -0.2062  0.1791  0.1589
  808POPS   CNO11843   6.855   0.480   5.072 -0.1209  0.1024  0.2371
  808POPS   PO411844   7.341   0.384   5.216  0.2027  0.1565  0.0110
  808POPS   GL111845   7.526   0.174   5.569 -0.1251  0.0276  0.0674
  808POPS   GL211846   7.240   0.066   5.789  0.2779 -0.1611 -0.1608
  808POPS   C1A11847   7.845   0.066   5.889 -0.0055 -0.1280 -0.4172
  808POPS   D2A11848   8.046  -0.211   6.105 -0.2506  0.1200  0.0886
  808POPS   C3A11849   7.957  -0.547   6.407  0.1957 -0.0037 -0.0264
  808POPS   C4A11850   8.046  -0.818   6.651 -0.0019 -0.1085  0.0355
  808POPS   C1B11851   7.043   0.146   6.244  0.1183  0.2091 -0.0394
  808POPS   C2B11852   7.045   0.270   6.625  0.1607 -0.2300 -0.1162
  808POPS   C3B11853   6.795   0.419   7.031  0.0376 -0.1028 -0.5396
  808POPS   C4B11854   6.527   0.819   7.217 -0.0094 -0.0393  0.1020
  809POPS   CNO11855   0.731   0.758   5.481  0.0611  0.0596 -0.1836
  809POPS   PO411856   0.815   0.364   5.512 -0.0610 -0.0628  0.1356
  809POPS   GL111857   0.806   0.146   5.855  0.0210  0.0573 -0.0069
  809POPS   GL211858   0.717  -0.222   5.946  0.2900 -0.0754 -0.1760
  809POPS   C1A11859   0.910   0.237   6.242  0.2867 -0.0536  0.0641
  809POPS   D2A11860   0.780   0.443   6.552  0.2002  0.0539  0.0237
  809POPS   C3A11861   0.624   0.364   6.993 -0.1374 -0.0369 -0.2665
  809POPS   C4A11862   0.495   0.018   7.238 -0.0933  0.1534  0.0269
  809POPS   C1B11863   0.803  -0.364   6.398  0.1655 -0.3101  0.1063
  809POPS   C2B11864   0.801  -0.547   6.568  0.1994  0.0668  0.1398
  809POPS   C3B11865   0.604  -0.543   6.984 -0.2730  0.1580 -0.2791
  809POPS   C4B11866   0.731  -0.405   7.407 -0.0168 -0.0718  0.1472
  810POPS   CNO11867  13.457  14.033   5.730  0.0270 -0.1489 -0.1651
  810POPS   PO411868  13.762  14.309   5.657  0.0384 -0.1645 -0.2390
  810POPS   GL111869  13.973  14.220   6.042  0.2327 -0.1320 -0.2540
  810POPS   GL211870  14.244  14.044   6.118 -0.0787 -0.0256 -0.0481
  810POPS   C1A11871  14.180  14.424   6.471  0.0579 -0.2551 -0.0276
  810POPS   D2A11872  14.519  14.354   6.731  0.2675  0.2353 -0.1470
  810POPS   C3A11873  14.485  14.343   7.198  0.2604  0.0577 -0.0629
  810POPS   C4A11874  14.495  14.303   7.657  0.0262 -0.0470  0.1898
  810POPS   C1B11875  14.154  13.950   6.605  0.0692 -0.0149  0.0480
  810POPS   C2B11876  14.187  13.993   7.059  0.0593  0.2544  0.0958
  810POPS   C3B11877  13.998  14.181   7.319 -0.0212  0.2640 -0.1447
  810POPS   C4B11878  13.939  14.159   7.769 -0.2523 -0.2226 -0.2320
  811YOPS   CNO11879   5.622  14.225   5.416  0.0173 -0.2302  0.2053
  811YOPS   PO411880   5.303  14.515   5.473 -0.3104 -0.0230  0.0259
  811YOPS   GL111881   5.045  14.533   5.798 -0.0189  0.0648  0.1737
  811YOPS   GL211882   4.859  14.351   5.636  0.1571 -0.0353  0.3393
  811YOPS   C1A11883   5.100  14.712   6.221 -0.0418  0.3202  0.1141
  811YOPS   D2A11884   5.360  14.877   6.670 -0.0049  0.3935 -0.1448
  811YOPS   C3A11885   5.254  15.116   7.083  0.2192 -0.3353  0.0668
  811YOPS   C4A11886   5.590  15.097   7.447  0.1859  0.0206 -0.1338
  811YOPS   C1B11887   4.681  14.413   6.115 -0.1809 -0.2252 -0.0608
  811YOPS   C2B11888   4.589  14.442   6.536 -0.0384 -0.1500 -0.0765
  811YOPS   D3B11889   4.617  14.652   6.892 -0.1057 -0.1521  0.0416
  811YOPS   C4B11890   4.477  14.643   7.390 -0.0845  0.3229 -0.2010
  812YOPS   CNO11891  18.868   9.096   4.843 -0.0039  0.1238  0.0486
  812YOPS   PO411892  18.735   9.000   5.176 -0.2144 -0.1984 -0.5241
  812YOPS   GL111893  18.787   8.890   5.650 -0.2550  0.1880 -0.1470
  812YOPS   GL211894  19.012   8.759   5.835 -0.1033 -0.0358  0.0876
  812YOPS   C1A11895  18.515   8.704   5.792  0.1109  0.2568  0.1284
  812YOPS   D2A11896  18.357   8.646   6.216 -0.2996 -0.1410 -0.0020
  812YOPS   C3A11897  18.345   8.658   6.521  0.0527  0.2300 -0.1552
  812YOPS   C4A11898  18.217   8.241   6.704 -0.4394  0.3333  0.0075
  812YOPS   C1B11899  19.161   8.775   6.270  0.2441 -0.0887 -0.1744
  812YOPS   C2B11900  19.023   8.794   6.719 -0.0947  0.3429  0.1703
  812YOPS   D3B11901  19.179   8.673   7.110  0.1010 -0.1804 -0.0393
  812YOPS   C4B11902  19.486   8.970   7.379  0.1499  0.0976 -0.0299
  813YOPS   CNO11903   4.177  16.679   5.667  0.0695 -0.2015  0.0775
  813YOPS   PO411904   4.458  16.988   5.529 -0.0095 -0.2429 -0.2079
  813YOPS   GL111905   4.420  17.266   5.785  0.2182 -0.1335 -0.3668
  813YOPS   GL211906   4.756  17.426   5.818  0.0477 -0.0473  0.0166
  813YOPS   C1A11907   4.502  17.214   6.166  0.1859 -0.3227 -0.1619
  813YOPS   D2A11908   4.463  17.524   6.636  0.1669  0.2836 -0.2388
  813YOPS   C3A11909   4.758  17.574   6.887 -0.2941  0.0424 -0.4092
  813YOPS   C4A11910   5.046  17.830   6.994  0.0236  0.0292 -0.1725
  813YOPS   C1B11911   4.980  17.461   6.187 -0.0571 -0.1180  0.1812
  813YOPS   C2B11912   5.012  17.773   6.489 -0.0734  0.0957 -0.1857
  813YOPS   D3B11913   5.007  18.141   6.565 -0.1465 -0.4247 -0.0546
  813YOPS   C4B11914   4.683  18.054   6.784  0.1041  0.0921 -0.2146
  814YOPS   CNO11915   2.120   6.151   5.283 -0.2460  0.0396 -0.1605
  814YOPS   PO411916   2.475   6.334   5.517  0.3560 -0.0631  0.2473
  814YOPS   GL111917   2.278   6.170   5.895 -0.0875 -0.2851  0.1443
  814YOPS   GL211918   2.605   6.240   6.164  0.1754 -0.1741 -0.2317
  814YOPS   C1A11919   2.198   5.965   6.259 -0.1528  0.0512  0.2099
  814YOPS   D2A11920   2.261   6.090   6.682  0.2028 -0.3062  0.2242
  814YOPS   C3A11921   2.233   5.993   7.088 -0.1389 -0.0969  0.0647
  814YOPS   C4A11922   2.077   6.000   7.462  0.0772 -0.3783 -0.1956
  814YOPS   C1B11923   2.651   6.676   6.176 -0.0938  0.0702 -0.1200
  814YOPS   C2B11924   2.828   6.897   6.501 -0.0425  0.1160 -0.0448
  814YOPS   D3B11925   2.792   7.280   6.792 -0.0505 -0.0740  0.0469
  814YOPS   C4B11926   2.440   7.459   7.122 -0.3039  0.4647  0.1239
  815YOPS   CNO11927  17.888   3.676   5.409 -0.0806  0.0514  0.0163
  815YOPS   PO411928  18.012   3.520   5.773 -0.1452 -0.0014  0.3127
  815YOPS   GL111929  17.811   3.186   6.069  0.0977  0.0197  0.1169
  815YOPS   GL211930  17.598   2.896   5.964 -0.2862 -0.0330 -0.0355
  815YOPS   C1A11931  17.546   2.977   6.462  0.1832  0.1746 -0.2694
  815YOPS   D2A11932  17.547   3.249   6.953  0.2366 -0.0511 -0.0838
  815YOPS   C3A11933  17.425   3.417   7.492 -0.0298 -0.0401 -0.2045
  815YOPS   C4A11934  17.048   3.237   7.575  0.4568  0.2038 -0.0469
  815YOPS   C1B11935  17.283   2.621   6.246 -0.0352 -0.1850  0.0506
  815YOPS   C2B11936  17.108   2.369   6.438 -0.4783 -0.2319  0.1601
  815YOPS   D3B11937  16.851   2.068   6.662  0.0190  0.1785  0.1193
  815YOPS   C4B11938  16.781   1.604   6.881  0.0428  0.1247 -0.0274
  816YOPS   CNO11939   1.808   7.954   5.029 -0.0955  0.0143 -0.1143
  816YOPS   PO411940   1.599   7.815   5.409  0.2573 -0.0073 -0.0912
  816YOPS   GL111941   1.751   8.107   5.671  0.2142 -0.0154  0.1227
  816YOPS   GL211942   1.440   8.268   5.806 -0.3477  0.1094 -0.0449
  816YOPS   C1A11943   1.859   8.093   6.074 -0.3476  0.0486  0.0747
  816YOPS   D2A11944   1.761   7.992   6.525 -0.0630 -0.1724  0.0465
  816YOPS   C3A11945   1.508   7.973   6.778 -0.0781 -0.1149 -0.0435
  816YOPS   C4A11946   1.544   7.977   7.176 -0.0571 -0.0614 -0.0485
  816YOPS   C1B11947   1.326   8.035   6.078  0.1416  0.0775  0.1430
  816YOPS   C2B11948   1.026   7.918   6.449 -0.1217 -0.1637 -0.1719
  816YOPS   D3B11949   1.007   7.887   6.927 -0.2325 -0.3175  0.2989
  816YOPS   C4B11950   0.728   8.232   7.166 -0.1422  0.0215 -0.0278
  817YOPS   CNO11951   7.977   3.281   4.893 -0.0975 -0.0049 -0.2479
  817YOPS   PO411952   7.827   3.411   5.266  0.0493  0.1312  0.1884
  817YOPS   GL111953   8.076   3.327   5.617  0.0605 -0.1120 -0.0100
  817YOPS   GL211954   8.363   3.360   5.707 -0.0424 -0.4168 -0.0586
  817YOPS   C1A11955   7.984   3.384   6.023 -0.1445 -0.1751 -0.1563
  817YOPS   D2A11956   8.412   3.519   6.225  0.2513 -0.3047 -0.2708
  817YOPS   C3A11957   8.608   3.393   6.628 -0.0709 -0.4172 -0.0485
  817YOPS   C4A11958   8.939   3.597   6.795  0.2844 -0.4271 -0.0811
  817YOPS   C1B11959   8.395   3.001   6.108  0.3176 -0.2355 -0.0326
  817YOPS   C2B11960   8.616   2.986   6.388  0.1931 -0.0606 -0.0586
  817YOPS   D3B11961   8.683   2.846   6.776  0.0344 -0.2177  0.0319
  817YOPS   C4B11962   8.480   2.725   7.159  0.2104  0.2306  0.2188
  818YOPS   CNO11963   4.585  10.327   4.661 -0.2202 -0.0031 -0.0446
  818YOPS   PO411964   4.731  10.111   5.023 -0.1067  0.0526 -0.0845
  818YOPS   GL111965   4.918  10.190   5.452  0.4635  0.1607  0.0872
  818YOPS   GL211966   5.209  10.045   5.546  0.1557 -0.0824 -0.1576
  818YOPS   C1A11967   4.846  10.200   5.812  0.0946  0.0587 -0.1463
  818YOPS   D2A11968   4.550  10.344   6.092 -0.0229 -0.0606  0.0968
  818YOPS   C3A11969   4.536  10.412   6.424 -0.2280 -0.0531 -0.0380
  818YOPS   C4A11970   4.779  10.314   6.702  0.1895  0.0168 -0.1021
  818YOPS   C1B11971   5.213   9.937   5.970 -0.1812  0.0079 -0.1280
  818YOPS   C2B11972   5.097   9.915   6.498  0.1940  0.2004  0.0737
  818YOPS   D3B11973   5.116   9.731   6.984 -0.2068  0.1552  0.0569
  818YOPS   C4B11974   5.212   9.982   7.300  0.2014 -0.1455  0.3357
  819YOPS   CNO11975   4.128  12.993   5.382  0.3067 -0.2607 -0.0438
  819YOPS   PO411976   3.820  13.073   5.696  0.1242 -0.1224  0.1990
  819YOPS   GL111977   3.565  13.018   6.081  0.1262  0.2994 -0.0836
  819YOPS   GL211978   3.235  12.886   6.171 -0.0215  0.2425  0.1047
  819YOPS   C1A11979   3.355  13.386   6.217 -0.0575 -0.1948 -0.0571
  819YOPS   D2A11980   3.336  13.771   6.365 -0.0122 -0.0241 -0.4127
  819YOPS   C3A11981   3.595  13.945   6.598 -0.3033 -0.0468 -0.2279
  819YOPS   C4A11982   3.681  14.408   6.498 -0.1323  0.1195 -0.2030
  819YOPS   C1B11983   3.334  13.009   6.578  0.2821 -0.2837 -0.2240
  819YOPS   C2B11984   3.505  13.022   6.977 -0.1431 -0.0592 -0.3244
  819YOPS   D3B11985   3.255  12.878   7.261  0.0906 -0.3242  0.0044
  819YOPS   C4B11986   3.164  12.643   7.644 -0.3695 -0.0424  0.1536
  820YOPS   CNO11987   2.970   5.039   5.414 -0.1252 -0.1046  0.1982
  820YOPS   PO411988   2.636   4.818   5.052 -0.1453 -0.4299  0.0550
  820YOPS   GL111989   2.970   4.559   5.409  0.0008  0.2092 -0.1976
  820YOPS   GL211990   3.242   4.413   5.414  0.0246 -0.1122 -0.0384
  820YOPS   C1A11991   2.935   4.521   5.836  0.0197 -0.0856 -0.1384
  820YOPS   D2A11992   2.847   4.401   6.275 -0.1122  0.3288  0.5389
  820YOPS   C3A11993   3.152   4.304   6.586 -0.0771  0.3948 -0.1666
  820YOPS   C4A11994   3.301   3.960   6.668  0.0981 -0.2520  0.0612
  820YOPS   C1B11995   3.312   4.826   5.825 -0.2386 -0.1118  0.0152
  820YOPS   C2B11996   3.358   5.109   6.026  0.1126  0.0307  0.4883
  820YOPS   D3B11997   3.243   5.323   6.331 -0.2566 -0.0098 -0.3752
  820YOPS   C4B11998   3.441   5.443   6.728 -0.2113 -0.5257  0.0298
  821YOPS   CNO11999   6.762  13.119   5.125  0.2996 -0.1350  0.1475
  821YOPS   PO412000   6.801  13.127   5.575  0.1874 -0.1128 -0.2315
  821YOPS   GL112001   6.908  13.066   5.971 -0.0474  0.2083 -0.3839
  821YOPS   GL212002   7.074  12.758   5.946  0.0938  0.1590 -0.3742
  821YOPS   C1A12003   6.930  13.095   6.332  0.0036  0.1782 -0.0564
  821YOPS   D2A12004   7.114  13.159   6.649  0.0992  0.3603 -0.5066
  821YOPS   C3A12005   7.318  13.197   7.006 -0.0416  0.1650 -0.1859
  821YOPS   C4A12006   7.422  13.694   7.064  0.0024 -0.1732 -0.1184
  821YOPS   C1B12007   6.949  12.621   6.373  0.4549  0.1811  0.2401
  821YOPS   C2B12008   6.918  12.730   6.717  0.0358 -0.2288 -0.0677
  821YOPS   D3B12009   7.116  12.599   7.139 -0.2456 -0.0908 -0.0073
  821YOPS   C4B12010   7.326  12.838   7.463  0.0531  0.2257  0.3680
  822YOPS   CNO12011  11.953  15.362   5.782  0.0647  0.0201 -0.0895
  822YOPS   PO412012  12.262  15.163   5.533 -0.2793  0.1489 -0.0591
  822YOPS   GL112013  12.350  15.214   6.037 -0.1677 -0.1882 -0.4933
  822YOPS   GL212014  12.569  15.095   6.296  0.1073  0.0554  0.1008
  822YOPS   C1A12015  12.244  15.434   6.445  0.1551  0.2092  0.3086
  822YOPS   D2A12016  12.269  15.343   6.798  0.3738 -0.1125 -0.0675
  822YOPS   C3A12017  12.404  15.393   7.234 -0.1561  0.0814 -0.2323
  822YOPS   C4A12018  12.243  15.027   7.490 -0.0999 -0.0086  0.0560
  822YOPS   C1B12019  12.645  14.966   6.704 -0.1146 -0.0101 -0.0457
  822YOPS   C2B12020  12.740  15.049   7.087 -0.0593 -0.1008  0.2384
  822YOPS   D3B12021  12.961  15.296   7.490  0.3330 -0.2165  0.0188
  822YOPS   C4B12022  13.305  15.030   7.676 -0.1536  0.1753  0.1096
  823YOPS   CNO12023  18.216  11.286   5.548 -0.0275 -0.0634 -0.0301
  823YOPS   PO412024  18.645  11.173   5.417  0.0904  0.0081 -0.1824
  823YOPS   GL112025  18.688  11.123   5.811 -0.4196  0.0085  0.0115
  823YOPS   GL212026  18.452  11.043   5.908  0.0865 -0.3400 -0.0233
  823YOPS   C1A12027  18.992  10.918   6.071 -0.3435 -0.1408  0.1794
  823YOPS   D2A12028  19.346  10.592   6.131 -0.0458  0.2464 -0.3066
  823YOPS   C3A12029  19.641  10.621   6.496  0.1051 -0.0485  0.1040
  823YOPS   C4A12030  19.673  10.542   6.926  0.2032  0.1941 -0.1649
  823YOPS   C1B12031  18.537  11.143   6.274  0.1641  0.1969  0.1801
  823YOPS   C2B12032  18.452  11.466   6.599  0.0566 -0.0553 -0.0341
  823YOPS   D3B12033  18.413  11.557   7.008 -0.1584 -0.0237  0.0416
  823YOPS   C4B12034  18.580  11.888   7.137  0.0390  0.0499  0.2798
  824YOPS   CNO12035  13.387  12.134   5.310 -0.0158 -0.3618  0.1702
  824YOPS   PO412036  13.189  11.855   5.558  0.1404  0.1108  0.0649
  824YOPS   GL112037  13.460  12.028   5.810  0.4208  0.1172 -0.2555
  824YOPS   GL212038  13.393  12.263   5.985 -0.1449 -0.0511 -0.0201
  824YOPS   C1A12039  13.660  11.939   6.216 -0.2316 -0.0603  0.0915
  824YOPS   D2A12040  13.550  11.947   6.621  0.0584  0.2439 -0.0135
  824YOPS   C3A12041  13.337  11.700   6.929 -0.1694 -0.1503  0.0283
  824YOPS   C4A12042  12.938  11.450   6.807  0.1490 -0.1654 -0.0460
  824YOPS   C1B12043  13.670  12.491   6.322  0.1013  0.2995  0.0922
  824YOPS   C2B12044  13.596  12.545   6.768  0.0380 -0.1288 -0.0697
  824YOPS   D3B12045  13.780  12.638   7.187  0.2329  0.3270  0.0615
  824YOPS   C4B12046  13.635  12.904   7.397 -0.1266  0.0342 -0.3814
  825YOPS   CNO12047   9.765  10.778   4.670 -0.0079 -0.1294 -0.3296
  825YOPS   PO412048   9.546  10.547   5.005 -0.0192  0.2990  0.3859
  825YOPS   GL112049   9.650  10.628   5.362 -0.1376 -0.2359 -0.2643
  825YOPS   GL212050   9.729  10.360   5.571  0.0117 -0.0734 -0.1286
  825YOPS   C1A12051   9.610  10.787   5.859  0.0542  0.3088  0.3105
  825YOPS   D2A12052   9.530  10.741   6.258 -0.0181 -0.2872 -0.0094
  825YOPS   C3A12053   9.450  10.575   6.640  0.0282  0.0493 -0.1307
  825YOPS   C4A12054   9.273  10.649   6.992  0.1563  0.0855 -0.0780
  825YOPS   C1B12055   9.756  10.294   6.005  0.4380  0.3227 -0.0370
  825YOPS   C2B12056   9.834  10.290   6.453  0.2157 -0.0645  0.1698
  825YOPS   D3B12057   9.928  10.313   6.866  0.1814  0.1367 -0.3081
  825YOPS   C4B12058  10.209  10.515   7.013  0.1334 -0.0784  0.0947
  826YOPS   CNO12059   3.032  13.165   5.810  0.3658  0.0799 -0.1609
  826YOPS   PO412060   2.857  13.549   5.645 -0.2613 -0.2649 -0.1405
  826YOPS   GL112061   2.807  13.597   6.011  0.0286  0.2222 -0.0586
  826YOPS   GL212062   2.578  13.378   6.005  0.1738  0.0391  0.0448
  826YOPS   C1A12063   2.885  13.757   6.455  0.2879  0.0723 -0.2292
  826YOPS   D2A12064   2.834  13.923   6.788 -0.1872 -0.1197 -0.1785
  826YOPS   C3A12065   3.020  13.886   7.151 -0.0586 -0.0610  0.1351
  826YOPS   C4A12066   3.352  13.856   7.105 -0.1489 -0.3420 -0.0618
  826YOPS   C1B12067   2.550  13.415   6.493 -0.1277  0.0431  0.0206
  826YOPS   C2B12068   2.335  13.710   6.742 -0.1530  0.1502  0.0427
  826YOPS   D3B12069   2.368  14.019   6.992  0.0027  0.3611 -0.0251
  826YOPS   C4B12070   2.312  13.903   7.250 -0.1221  0.0910 -0.1218
  827YOPS   CNO12071  10.807   6.969   5.474 -0.1011 -0.3475  0.1418
  827YOPS   PO412072  10.602   7.397   5.330 -0.0374  0.1712 -0.0176
  827YOPS   GL112073  10.445   7.253   5.783  0.0952 -0.2004 -0.3490
  827YOPS   GL212074  10.649   7.319   6.006 -0.1181 -0.2097  0.2394
  827YOPS   C1A12075  10.303   6.974   6.062  0.1492  0.0824  0.0938
  827YOPS   D2A12076  10.319   6.739   6.419 -0.1629 -0.1884 -0.0394
  827YOPS   C3A12077  10.218   6.370   6.577 -0.0639  0.4139  0.0784
  827YOPS   C4A12078  10.506   6.102   6.658  0.5032 -0.2079 -0.1409
  827YOPS   C1B12079  10.478   7.349   6.369  0.0588 -0.2456 -0.3550
  827YOPS   C2B12080  10.425   7.071   6.783  0.3460 -0.2296 -0.2928
  827YOPS   D3B12081  10.069   6.913   6.905 -0.0538 -0.1436 -0.1707
  827YOPS   C4B12082  10.070   6.374   7.026 -0.1208 -0.3572  0.0773
  828YOPS   CNO12083   3.315   7.361   5.494  0.1795  0.1307 -0.2788
  828YOPS   PO412084   3.717   7.349   5.252 -0.0295 -0.1236 -0.1162
  828YOPS   GL112085   4.083   7.326   5.693 -0.3418  0.0979  0.2704
  828YOPS   GL212086   3.979   7.568   5.922  0.0566 -0.3790  0.1253
  828YOPS   C1A12087   4.154   7.034   6.046  0.0294 -0.6532  0.0131
  828YOPS   D2A12088   4.163   6.914   6.459 -0.1412 -0.1684  0.0345
  828YOPS   C3A12089   4.380   6.826   6.868  0.1234  0.3097  0.3166
  828YOPS   C4A12090   4.145   6.394   7.061  0.3489  0.1464  0.0924
  828YOPS   C1B12091   3.807   7.371   6.324  0.1363  0.0864  0.2056
  828YOPS   C2B12092   3.790   7.251   6.697  0.2127  0.2322  0.1858
  828YOPS   D3B12093   3.589   7.176   7.062  0.2266  0.0428 -0.1171
  828YOPS   C4B12094   3.111   7.178   7.153 -0.1457 -0.1062  0.1512
  829YOPS   CNO12095  18.220   1.767   5.303  0.2849  0.0490 -0.0043
  829YOPS   PO412096  18.150   1.646   5.683  0.1643 -0.0478 -0.1743
  829YOPS   GL112097  18.075   1.577   6.002  0.3195 -0.0087  0.0075
  829YOPS   GL212098  18.280   1.323   6.190  0.3685  0.0973 -0.0234
  829YOPS   C1A12099  17.879   1.571   6.373 -0.3563 -0.0230  0.2703
  829YOPS   D2A12100  17.684   1.611   6.818  0.2253 -0.0922 -0.1328
  829YOPS   C3A12101  17.559   1.752   7.131 -0.4055  0.1122  0.0888
  829YOPS   C4A12102  17.233   1.663   7.267  0.1166 -0.3613 -0.0862
  829YOPS   C1B12103  18.483   1.295   6.639 -0.0804 -0.0040  0.0436
  829YOPS   C2B12104  18.686   1.391   6.949 -0.1278  0.2305  0.1562
  829YOPS   D3B12105  19.012   1.535   7.147  0.2553  0.2586  0.0252
  829YOPS   C4B12106  19.373   1.662   6.972  0.1665 -0.0491  0.2389
  830YOPS   CNO12107   2.115   5.789   4.944 -0.1562  0.0970  0.1936
  830YOPS   PO412108   2.018   5.477   5.138 -0.2059  0.0243  0.2398
  830YOPS   GL112109   2.255   5.649   5.492  0.0296 -0.0181  0.4195
  830YOPS   GL212110   2.490   5.861   5.397  0.2231  0.1413  0.4191
  830YOPS   C1A12111   2.356   5.682   5.884  0.0588 -0.0532  0.1000
  830YOPS   D2A12112   2.429   5.552   6.242  0.2971 -0.3540  0.1519
  830YOPS   C3A12113   2.632   5.809   6.509 -0.0462 -0.4109 -0.0427
  830YOPS   C4A12114   2.985   5.532   6.675 -0.0017 -0.2369 -0.2822
  830YOPS   C1B12115   2.789   5.882   5.785  0.1082 -0.0385  0.0639
  830YOPS   C2B12116   3.010   5.948   6.201 -0.3283  0.2816 -0.0177
  830YOPS   D3B12117   3.272   5.909   6.581  0.0160  0.0765  0.2021
  830YOPS   C4B12118   3.110   5.869   6.986 -0.1166 -0.0367  0.2347
  831YOPS   CNO12119   2.624  10.773   5.045 -0.1090  0.3221  0.2141
  831YOPS   PO412120   2.864  11.047   5.246  0.2981 -0.0633  0.0424
  831YOPS   GL112121   2.822  11.152   5.745  0.0807 -0.0393 -0.1369
  831YOPS   GL212122   2.510  11.336   5.748 -0.0951 -0.0785  0.1881
  831YOPS   C1A12123   3.002  10.980   6.159  0.2100 -0.2610 -0.2943
  831YOPS   D2A12124   2.827  11.010   6.566  0.0029  0.1696 -0.0460
  831YOPS   C3A12125   2.413  10.974   6.776 -0.1855 -0.1409 -0.0618
  831YOPS   C4A12126   2.236  11.040   7.121 -0.0493 -0.0744 -0.3256
  831YOPS   C1B12127   2.347  11.614   6.132  0.4088 -0.1019  0.0314
  831YOPS   C2B12128   2.100  11.872   6.461  0.1888 -0.1108  0.1912
  831YOPS   D3B12129   2.014  12.011   6.898 -0.1629 -0.3077  0.1156
  831YOPS   C4B12130   2.214  12.109   7.278  0.0323  0.1491  0.0312
  832YOPS   CNO12131   0.510   6.186   5.201 -0.0100 -0.0870 -0.0401
  832YOPS   PO412132   0.705   6.322   5.582  0.2224 -0.1303  0.0675
  832YOPS   GL112133   0.802   6.398   5.996  0.0788 -0.4030 -0.2708
  832YOPS   GL212134   0.437   6.437   6.144  0.1238 -0.3714  0.2764
  832YOPS   C1A12135   0.993   6.463   6.394 -0.2134 -0.0869 -0.1340
  832YOPS   D2A12136   1.335   6.387   6.554 -0.0347  0.0021 -0.2367
  832YOPS   C3A12137   1.508   6.268   6.996  0.2613  0.1926 -0.3328
  832YOPS   C4A12138   1.687   6.622   7.253 -0.0240 -0.0096 -0.0100
  832YOPS   C1B12139   0.332   6.721   6.606 -0.1485 -0.2182 -0.0522
  832YOPS   C2B12140   0.057   6.651   7.046 -0.1419 -0.3209 -0.2160
  832YOPS   D3B12141   0.003   6.647   7.471  0.0471  0.3441  0.3846
  832YOPS   C4B12142   0.097   6.216   7.682  0.2767 -0.3149 -0.0787
  833YOPS   CNO12143  18.171  15.188   5.598  0.0239  0.1918  0.0656
  833YOPS   PO412144  18.564  14.845   5.564  0.1947  0.0048 -0.0400
  833YOPS   GL112145  18.479  14.952   5.973 -0.0515  0.1828  0.0355
  833YOPS   GL212146  18.136  14.971   6.045 -0.1196  0.0650  0.0945
  833YOPS   C1A12147  18.734  15.084   6.270  0.0936 -0.1303  0.2636
  833YOPS   D2A12148  18.753  15.134   6.658  0.0166 -0.2016  0.4581
  833YOPS   C3A12149  18.743  15.297   7.064  0.0003 -0.1167 -0.0409
  833YOPS   C4A12150  18.914  15.591   7.270  0.1034  0.1271  0.0208
  833YOPS   C1B12151  18.307  15.231   6.431 -0.0635  0.0479  0.0430
  833YOPS   C2B12152  18.296  15.465   6.875  0.0159 -0.1420  0.2664
  833YOPS   D3B12153  18.243  15.368   7.273 -0.1257 -0.0237 -0.4502
  833YOPS   C4B12154  18.457  15.662   7.554 -0.3939 -0.0611  0.0127
  834YOPS   CNO12155   7.142  11.542   4.959 -0.0465 -0.2951 -0.1344
  834YOPS   PO412156   6.964  11.799   5.386  0.1280 -0.3369  0.1798
  834YOPS   GL112157   6.878  11.745   5.753 -0.1698 -0.0049 -0.0128
  834YOPS   GL212158   6.536  11.675   5.831  0.0140  0.2568  0.1086
  834YOPS   C1A12159   6.980  11.732   6.200 -0.0044 -0.3115 -0.0968
  834YOPS   D2A12160   7.049  11.655   6.669 -0.0431 -0.1333 -0.3263
  834YOPS   C3A12161   7.422  11.512   6.855 -0.0602  0.2355  0.0872
  834YOPS   C4A12162   7.278  11.294   7.350 -0.2749  0.2181  0.0727
  834YOPS   C1B12163   6.488  11.566   6.266  0.3188  0.1139 -0.3253
  834YOPS   C2B12164   6.593  11.562   6.611 -0.0088 -0.1869  0.2504
  834YOPS   D3B12165   6.738  11.432   7.006  0.0472 -0.1277 -0.2276
  834YOPS   C4B12166   6.766  11.267   7.395  0.0389 -0.1146 -0.3832
  835YOPS   CNO12167  13.278   4.299   4.937 -0.3754  0.1243  0.0386
  835YOPS   PO412168  13.254   4.305   5.345  0.4679  0.0760  0.1381
  835YOPS   GL112169  13.000   4.347   5.782  0.0920 -0.2025 -0.1618
  835YOPS   GL212170  12.849   4.078   5.925 -0.0628 -0.0445  0.1101
  835YOPS   C1A12171  12.852   4.564   6.163  0.4765 -0.1261 -0.2682
  835YOPS   D2A12172  12.509   4.572   6.442 -0.2191  0.0996  0.0168
  835YOPS   C3A12173  12.334   4.653   6.771 -0.1029 -0.0872 -0.2875
  835YOPS   C4A12174  12.697   4.609   7.141  0.1128 -0.0960 -0.1084
  835YOPS   C1B12175  12.760   4.141   6.336 -0.0652  0.0560  0.0011
  835YOPS   C2B12176  12.507   4.205   6.797  0.2846  0.1825 -0.3474
  835YOPS   D3B12177  12.192   4.075   6.962  0.0430  0.2466 -0.2526
  835YOPS   C4B12178  12.322   4.223   7.318 -0.2790 -0.0012 -0.1176
  836YOPS   CNO12179   7.522   6.311   4.539 -0.0508  0.1619  0.0779
  836YOPS   PO412180   7.739   6.462   4.946  0.0254 -0.0353 -0.2150
  836YOPS   GL112181   7.483   6.670   5.164  0.0649  0.0673  0.1391
  836YOPS   GL212182   7.696   6.816   5.374  0.0861 -0.0218  0.1438
  836YOPS   C1A12183   6.989   6.607   5.314 -0.1082 -0.4577  0.0948
  836YOPS   D2A12184   6.687   6.308   5.604 -0.1371  0.2147  0.0602
  836YOPS   C3A12185   6.439   6.356   5.996  0.1247 -0.6032 -0.1382
  836YOPS   C4A12186   6.170   6.706   5.851  0.2603  0.0965  0.1463
  836YOPS   C1B12187   7.620   7.062   5.820 -0.1453 -0.0995  0.1192
  836YOPS   C2B12188   7.230   7.115   5.970  0.3388  0.0922 -0.3896
  836YOPS   D3B12189   6.967   7.078   6.333  0.1622 -0.4155 -0.2356
  836YOPS   C4B12190   6.581   6.961   6.214  0.1123  0.0555  0.0608
  837YOPS   CNO12191   8.799   3.704   5.087  0.2779  0.0009 -0.1168
  837YOPS   PO412192   8.528   4.095   5.142 -0.1891 -0.1762  0.2118
  837YOPS   GL112193   8.550   3.846   5.472 -0.1548 -0.0749  0.3064
  837YOPS   GL212194   8.782   3.857   5.562  0.0970 -0.3374 -0.1200
  837YOPS   C1A12195   8.243   3.891   5.803 -0.1125 -0.1015 -0.1904
  837YOPS   D2A12196   8.002   3.929   6.243  0.1092 -0.0756  0.0147
  837YOPS   C3A12197   7.850   4.141   6.554 -0.0788 -0.0227  0.2740
  837YOPS   C4A12198   7.745   4.513   6.323  0.2129 -0.2909  0.0766
  837YOPS   C1B12199   8.656   3.986   6.051 -0.1780  0.1060 -0.0977
  837YOPS   C2B12200   8.581   3.889   6.507  0.1909  0.1598  0.2093
  837YOPS   D3B12201   8.224   3.763   6.644  0.2408 -0.0631  0.1953
  837YOPS   C4B12202   8.018   3.359   6.509 -0.0190 -0.3070 -0.1169
  838YOPS   CNO12203   1.264   6.290   5.548 -0.2038  0.0942  0.1704
  838YOPS   PO412204   1.683   6.260   5.668 -0.0020 -0.1822  0.0066
  838YOPS   GL112205   1.767   6.358   6.051 -0.1749 -0.0311 -0.0705
  838YOPS   GL212206   1.691   6.132   6.293  0.1904  0.0509  0.1445
  838YOPS   C1A12207   2.191   6.507   6.286  0.3674 -0.4477 -0.1450
  838YOPS   D2A12208   2.429   6.558   6.679  0.1710 -0.0838 -0.1781
  838YOPS   C3A12209   2.667   6.787   6.969 -0.0967  0.0401 -0.1544
  838YOPS   C4A12210   2.572   6.994   7.255 -0.2062 -0.1975  0.0671
  838YOPS   C1B12211   1.770   5.977   6.743  0.1200  0.2017  0.0371
  838YOPS   C2B12212   1.836   5.702   7.126  0.5439  0.0953 -0.1444
  838YOPS   D3B12213   1.970   5.379   7.490  0.0735  0.1313 -0.2042
  838YOPS   C4B12214   2.332   5.365   7.333 -0.0164  0.1810 -0.3063
  839YOPS   CNO12215  12.495   8.607   5.385  0.0575 -0.0061  0.4033
  839YOPS   PO412216  12.956   8.558   5.215  0.0361  0.0535 -0.0707
  839YOPS   GL112217  12.981   8.766   5.641  0.2915  0.0030  0.1718
  839YOPS   GL212218  12.760   8.972   5.645 -0.1176 -0.1067 -0.0914
  839YOPS   C1A12219  12.924   8.929   6.091  0.0453 -0.1365  0.3613
  839YOPS   D2A12220  12.781   8.755   6.518 -0.0120  0.0628 -0.0388
  839YOPS   C3A12221  12.608   8.798   6.948 -0.3520 -0.0323 -0.1138
  839YOPS   C4A12222  12.868   8.925   7.309  0.1154 -0.0833  0.1498
  839YOPS   C1B12223  12.359   8.916   5.773 -0.0967  0.0381 -0.0614
  839YOPS   C2B12224  12.066   9.234   5.923  0.0307  0.2483  0.0006
  839YOPS   D3B12225  11.833   9.300   6.220  0.0871 -0.0095 -0.2102
  839YOPS   C4B12226  11.921   9.230   6.682  0.0949 -0.3811 -0.0362
  840YOPS   CNO12227   6.648   1.209   5.185  0.2232 -0.1962 -0.3004
  840YOPS   PO412228   6.224   1.124   5.321  0.3640 -0.2954  0.2469
  840YOPS   GL112229   5.941   1.123   5.702  0.3370 -0.2512  0.0625
  840YOPS   GL212230   5.571   1.310   5.727 -0.2127 -0.2718 -0.1150
  840YOPS   C1A12231   5.986   1.352   6.098  0.0218 -0.0937  0.1900
  840YOPS   D2A12232   6.058   1.724   6.347 -0.1991  0.2040  0.1404
  840YOPS   C3A12233   6.055   1.746   6.756 -0.0023  0.0690  0.1097
  840YOPS   C4A12234   6.060   1.323   6.904  0.0706  0.1017  0.0567
  840YOPS   C1B12235   5.346   1.266   5.990 -0.1366  0.0812  0.1938
  840YOPS   C2B12236   5.290   1.343   6.402 -0.2800  0.1403 -0.2277
  840YOPS   D3B12237   5.345   1.145   6.729 -0.2452  0.0536  0.3537
  840YOPS   C4B12238   5.580   1.234   7.157 -0.3015 -0.0072  0.2372
  841POPE   NH312239  14.426   5.006   5.307  0.1576  0.1578  0.2081
  841POPE   PO412240  13.989   4.920   5.451 -0.2483 -0.1235 -0.0765
  841POPE   GL112241  14.006   4.786   5.797  0.0938  0.0852 -0.0859
  841POPE   GL212242  14.260   4.527   5.792 -0.0006  0.2297 -0.0023
  841POPE   C1A12243  14.005   4.684   6.200  0.0165  0.0291  0.0492
  841POPE   D2A12244  14.255   4.784   6.457  0.1169  0.4342  0.2114
  841POPE   C3A12245  14.331   4.632   6.887  0.2885 -0.1349  0.0766
  841POPE   C4A12246  14.301   4.579   7.273 -0.0574 -0.2827  0.1309
  841POPE   C1B12247  14.381   4.364   6.094 -0.1074 -0.0452 -0.1867
  841POPE   C2B12248  14.657   4.373   6.540 -0.1194  0.1619  0.0859
  841POPE   C3B12249  14.850   4.376   6.808 -0.1571 -0.5020  0.3337
  841POPE   C4B12250  14.793   4.647   7.139  0.0071 -0.0161  0.1547
  842POPE   NH312251  17.523  12.630   5.512 -0.1886 -0.1220 -0.1872
  842POPE   PO412252  17.158  12.671   5.614 -0.0083  0.0178  0.1061
  842POPE   GL112253  17.200  12.426   5.971 -0.2769  0.1108 -0.0751
  842POPE   GL212254  17.444  12.671   6.187 -0.0105  0.2234  0.0943
  842POPE   C1A12255  17.101  12.135   6.121  0.0236  0.1185 -0.3537
  842POPE   D2A12256  16.906  11.867   6.427 -0.1440 -0.1105 -0.1296
  842POPE   C3A12257  16.987  11.935   6.874  0.1718 -0.0156 -0.1294
  842POPE   C4A12258  17.029  11.783   7.254  0.0190  0.0659  0.2693
  842POPE   C1B12259  17.787  12.649   6.530 -0.1510 -0.0454 -0.0305
  842POPE   C2B12260  17.879  12.956   6.883 -0.1270  0.0183 -0.1275
  842POPE   C3B12261  18.055  12.872   7.275  0.1034 -0.0723 -0.4160
  842POPE   C4B12262  17.991  12.880   7.647 -0.0073  0.1913  0.0023
  843POPE   NH312263  15.469  15.256   5.563 -0.1409  0.0357  0.1403
  843POPE   PO412264  15.734  15.519   5.700 -0.0017 -0.0337 -0.0684
  843POPE   GL112265  15.836  15.405   6.113 -0.1562 -0.3648 -0.2705
  843POPE   GL212266  16.186  15.458   6.152 -0.0156 -0.1826 -0.0958
  843POPE   C1A12267  15.743  15.454   6.445  0.2269 -0.1602 -0.3386
  843POPE   D2A12268  15.773  15.486   6.909 -0.3367 -0.0551 -0.3658
  843POPE   C3A12269  15.571  15.207   7.189  0.2746  0.3329  0.3258
  843POPE   C4A12270  15.586  15.382   7.670  0.2757 -0.1053  0.0214
  843POPE   C1B12271  16.199  15.305   6.619 -0.1820  0.2629 -0.4101
  843POPE   C2B12272  16.188  15.099   7.014 -0.1019  0.5885  0.2883
  843POPE   C3B12273  16.084  14.898   7.419  0.1834  0.1668 -0.2761
  843POPE   C4B12274  15.911  14.545   7.735 -0.1300 -0.2780  0.0444
  844POPE   NH312275  18.994   5.425   5.735  0.0787  0.0179 -0.0909
  844POPE   PO412276  18.974   5.954   5.711  0.0179  0.0729 -0.0776
  844POPE   GL112277  19.122   5.974   6.097  0.2707 -0.0274 -0.0358
  844POPE   GL212278  19.533   5.914   6.191  0.0301  0.0108 -0.3595
  844POPE   C1A12279  18.962   6.011   6.538  0.2932 -0.1552 -0.0248
  844POPE   D2A12280  18.900   6.031   6.990 -0.1593 -0.1054  0.1660
  844POPE   C3A12281  18.852   6.439   7.281 -0.1050  0.0186  0.1754
  844POPE   C4A12282  18.713   6.709   7.556  0.1730 -0.0678 -0.3351
  844POPE   C1B12283  19.957   6.047   6.389  0.0435 -0.4110  0.2378
  844POPE   C2B12284  19.952   6.169   6.710 -0.0928  0.1928 -0.1967
  844POPE   C3B12285  20.257   6.216   6.967 -0.3133 -0.0914 -0.1476
  844POPE   C4B12286  20.204   6.470   7.365  0.0429 -0.1286  0.1960
  845POPE   NH312287  11.591   0.340   5.232  0.2120 -0.0246  0.1104
  845POPE   PO412288  11.749  -0.016   5.377  0.2032  0.0454  0.0163
  845POPE   GL112289  11.581   0.240   5.821  0.0036  0.2889 -0.1172
  845POPE   GL212290  11.422   0.571   5.641  0.0366 -0.3060  0.1122
  845POPE   C1A12291  11.531   0.421   6.218  0.1070  0.2780 -0.0573
  845POPE   D2A12292  11.719   0.632   6.490 -0.1076 -0.0371  0.1906
  845POPE   C3A12293  11.762   1.036   6.763 -0.3091 -0.3454  0.0782
  845POPE   C4A12294  11.863   1.218   7.088 -0.1390  0.2456 -0.1055
  845POPE   C1B12295  11.305   0.792   6.041 -0.0222  0.0242 -0.0142
  845POPE   C2B12296  11.480   1.009   6.226 -0.2049 -0.5118 -0.1454
  845POPE   C3B12297  11.411   1.337   6.418 -0.0569 -0.0131 -0.0029
  845POPE   C4B12298  11.611   1.569   6.707  0.0564 -0.2099  0.1103
  846POPE   NH312299  16.287   2.532   5.269 -0.1814  0.2806  0.0439
  846POPE   PO412300  16.036   2.211   5.216 -0.0637  0.1394 -0.2126
  846POPE   GL112301  15.878   2.374   5.632  0.1219  0.2093 -0.0538
  846POPE   GL212302  15.996   2.537   5.880 -0.0595 -0.1627  0.1446
  846POPE   C1A12303  15.895   2.023   5.893  0.0103 -0.3365 -0.1377
  846POPE   D2A12304  15.824   1.684   6.168  0.1336  0.1069  0.1190
  846POPE   C3A12305  15.454   1.570   6.395  0.2657 -0.2836 -0.3470
  846POPE   C4A12306  15.287   1.668   6.789 -0.2632 -0.0142  0.1441
  846POPE   C1B12307  16.309   2.483   6.109  0.2315  0.0074 -0.4577
  846POPE   C2B12308  16.566   2.421   6.480  0.1332  0.0495  0.3177
  846POPE   C3B12309  16.605   2.324   7.001 -0.3063  0.0488  0.1511
  846POPE   C4B12310  16.290   2.320   7.235  0.1892 -0.5182  0.1742
  847POPE   NH312311  12.239  15.660   5.382  0.1653 -0.1696 -0.0917
  847POPE   PO412312  11.899  15.975   5.333  0.0628  0.0911  0.3803
  847POPE   GL112313  11.835  15.918   5.650 -0.0687  0.2553 -0.2949
  847POPE   GL212314  11.606  15.720   5.735  0.2810 -0.1690  0.0548
  847POPE   C1A12315  11.990  15.908   6.199  0.2056 -0.2107  0.0532
  847POPE   D2A12316  11.809  15.708   6.564 -0.0774  0.1363 -0.0171
  847POPE   C3A12317  11.848  15.913   6.957  0.1990  0.0417  0.0072
  847POPE   C4A12318  11.917  15.824   7.376  0.1796 -0.3343 -0.3356
  847POPE   C1B12319  11.598  15.670   6.070  0.0698 -0.1466 -0.2695
  847POPE   C2B12320  11.784  15.281   6.294  0.2259 -0.2158  0.0044
  847POPE   C3B12321  11.640  15.112   6.783  0.1289  0.1039 -0.4424
  847POPE   C4B12322  11.491  14.725   6.858  0.0230 -0.1395  0.0253
  848POPE   NH312323  10.130   7.586   4.984  0.0395 -0.2298  0.2145
  848POPE   PO412324  10.037   8.008   5.100  0.3811  0.1384 -0.0276
  848POPE   GL112325  10.299   7.844   5.430  0.2203  0.1978 -0.2624
  848POPE   GL212326  10.637   7.788   5.685 -0.1587 -0.0164  0.5000
  848POPE   C1A12327  10.046   7.599   5.725  0.1022  0.1277  0.1846
  848POPE   D2A12328   9.771   7.535   6.098 -0.4247 -0.0698  0.1082
  848POPE   C3A12329   9.426   7.296   6.134  0.3616 -0.1036 -0.0839
  848POPE   C4A12330   9.161   7.462   6.419  0.1224  0.0738 -0.1359
  848POPE   C1B12331  10.256   7.977   6.037 -0.0505  0.4139  0.0579
  848POPE   C2B12332  10.125   8.048   6.419  0.3746  0.1788  0.1261
  848POPE   C3B12333   9.896   7.873   6.807  0.0034  0.0446  0.1827
  848POPE   C4B12334   9.622   7.900   7.125 -0.2342 -0.0323  0.1876
  849POPE   NH312335  10.032  16.870   5.620  0.2964 -0.1277 -0.2556
  849POPE   PO412336  10.201  16.558   5.453  0.2465 -0.0338  0.0239
  849POPE   GL112337  10.103  16.403   5.830 -0.0242 -0.1944 -0.6121
  849POPE   GL212338   9.832  16.371   5.937 -0.0224 -0.4625  0.3930
  849POPE   C1A12339  10.148  16.365   6.298 -0.0001  0.1879 -0.2070
  849POPE   D2A12340  10.134  16.407   6.705 -0.0587  0.1023  0.0932
  849POPE   C3A12341  10.437  16.418   7.090  0.1438 -0.0800 -0.1389
  849POPE   C4A12342  10.638  16.703   7.313 -0.1089  0.1752  0.1236
  849POPE   C1B12343   9.775  16.706   6.294  0.0382  0.5202 -0.1223
  849POPE   C2B12344   9.606  16.670   6.757 -0.0146  0.2181  0.0218
  849POPE   C3B12345   9.463  16.562   7.115 -0.3004 -0.0127 -0.2680
  849POPE   C4B12346   9.199  16.722   7.506  0.1495 -0.0484 -0.0215
  850POPE   NH312347  18.068   7.909   5.494 -0.2493 -0.0799 -0.2493
  850POPE   PO412348  17.784   7.651   5.324  0.0293 -0.1338 -0.2020
  850POPE   GL112349  17.537   7.599   5.681  0.1512  0.0225 -0.0914
  850POPE   GL212350  17.721   7.457   5.959 -0.3031 -0.1217 -0.5390
  850POPE   C1A12351  17.299   7.834   6.122 -0.2773 -0.2100  0.0764
  850POPE   D2A12352  17.231   7.782   6.572 -0.1344 -0.0339 -0.3073
  850POPE   C3A12353  17.315   7.867   7.026  0.1502  0.1638 -0.2829
  850POPE   C4A12354  17.360   7.565   7.386 -0.0422  0.1164 -0.0912
  850POPE   C1B12355  17.656   7.608   6.296 -0.1673  0.2873 -0.2091
  850POPE   C2B12356  17.597   7.520   6.714 -0.0298  0.1817  0.0701
  850POPE   C3B12357  17.670   7.272   7.006  0.1316  0.0355  0.1761
  850POPE   C4B12358  17.727   7.262   7.451  0.2901 -0.1910  0.0587
  851POPE   NH312359  18.598   1.880   5.622 -0.2459  0.1729  0.2897
  851POPE   PO412360  18.926   2.243   5.548 -0.0022 -0.1652  0.1808
  851POPE   GL112361  18.736   2.228   5.996 -0.1082  0.2539 -0.1633
  851POPE   GL212362  18.552   2.428   6.208  0.1869 -0.1265  0.3740
  851POPE   C1A12363  18.973   2.146   6.183 -0.0290 -0.1480 -0.0059
  851POPE   D2A12364  19.284   2.463   6.462  0.0721 -0.2135  0.2377
  851POPE   C3A12365  19.469   2.193   6.749 -0.1585  0.1995  0.2522
  851POPE   C4A12366  19.736   2.277   7.114  0.1190 -0.2124 -0.0676
  851POPE   C1B12367  18.817   2.382   6.573  0.0959  0.1565 -0.0399
  851POPE   C2B12368  19.119   2.473   6.910  0.1036  0.1819  0.0754
  851POPE   C3B12369  19.113   2.787   7.158  0.0173  0.0755  0.4245
  851POPE   C4B12370  18.880   3.029   7.295 -0.1580  0.3452 -0.1328
  852POPE   NH312371   9.108  17.088   5.631  0.0427 -0.2812  0.1020
  852POPE   PO412372   8.649  16.824   5.671  0.0718 -0.0840  0.2638
  852POPE   GL112373   8.315  16.795   5.829 -0.0653  0.1810 -0.1321
  852POPE   GL212374   8.099  16.899   5.713 -0.1733  0.0610  0.2590
  852POPE   C1A12375   8.072  16.727   6.227 -0.1307  0.0607 -0.2619
  852POPE   D2A12376   8.148  16.799   6.668 -0.1582 -0.0905 -0.0975
  852POPE   C3A12377   8.210  17.118   6.789  0.0493 -0.2180  0.0571
  852POPE   C4A12378   8.276  17.463   7.116  0.3234  0.2515  0.0046
  852POPE   C1B12379   7.703  16.853   5.942  0.2243 -0.0393  0.1146
  852POPE   C2B12380   7.631  16.860   6.404 -0.1994 -0.0051 -0.4642
  852POPE   C3B12381   7.631  16.743   6.734  0.1790 -0.0956  0.1607
  852POPE   C4B12382   7.752  16.501   7.026 -0.0739 -0.1236 -0.0452
  853POPE   NH312383  10.017   0.722   5.049 -0.3879 -0.0429 -0.0187
  853POPE   PO412384   9.809   0.300   5.200  0.2523  0.1387  0.3039
  853POPE   GL112385   9.971   0.005   5.492 -0.0514 -0.0981 -0.2085
  853POPE   GL212386  10.163  -0.240   5.499 -0.0770  0.5084 -0.2055
  853POPE   C1A12387   9.963   0.180   5.949 -0.1617 -0.0170 -0.4465
  853POPE   D2A12388   9.939   0.390   6.332 -0.1272 -0.1225  0.0398
  853POPE   C3A12389  10.089   0.226   6.713 -0.1839  0.1014 -0.1258
  853POPE   C4A12390  10.344   0.386   7.030  0.0416  0.1168 -0.0004
  853POPE   C1B12391  10.266  -0.195   5.873 -0.0780 -0.1901  0.1036
  853POPE   C2B12392  10.219  -0.315   6.265  0.0629  0.3610  0.0514
  853POPE   C3B12393  10.071  -0.340   6.712 -0.3758  0.2787 -0.2108
  853POPE   C4B12394   9.902  -0.198   7.117  0.0912 -0.1668  0.2893
  854POPE   NH312395  16.304  16.175   5.670  0.0459 -0.1283 -0.1478
  854POPE   PO412396  16.636  15.957   5.565  0.2539 -0.0692  0.3404
  854POPE   GL112397  16.954  15.968   5.887 -0.1484  0.1956 -0.2477
  854POPE   GL212398  16.778  15.546   5.950  0.0631  0.0183 -0.2681
  854POPE   C1A12399  17.081  15.859   6.343 -0.1332 -0.0969 -0.1200
  854POPE   D2A12400  17.199  15.862   6.807  0.3108  0.1214  0.0432
  854POPE   C3A12401  17.366  15.525   7.031 -0.3537 -0.2443  0.0058
  854POPE   C4A12402  17.437  15.479   7.464  0.0099 -0.2619 -0.3497
  854POPE   C1B12403  16.645  15.503   6.372 -0.1618  0.1802 -0.0995
  854POPE   C2B12404  16.991  15.433   6.681  0.1588 -0.2683 -0.3622
  854POPE   C3B12405  16.730  15.481   7.013 -0.2103 -0.0975 -0.1397
  854POPE   C4B12406  16.343  15.546   7.048  0.1030 -0.0874  0.2840
  855POPE   NH312407  19.137   4.161   5.561 -0.0815 -0.0729 -0.0751
  855POPE   PO412408  19.594   4.347   5.677  0.1963  0.3317 -0.0294
  855POPE   GL112409  19.440   4.220   6.007 -0.2217  0.1731  0.1457
  855POPE   GL212410  19.116   4.413   6.076  0.1706 -0.2393  0.0071
  855POPE   C1A12411  19.439   4.046   6.441 -0.0605  0.1460  0.0480
  855POPE   D2A12412  19.459   3.981   6.849  0.1192 -0.0536  0.2370
  855POPE   C3A12413  19.713   3.857   7.142 -0.0270 -0.1580  0.1233
  855POPE   C4A12414  19.866   3.652   7.592 -0.2061 -0.0720  0.5639
  855POPE   C1B12415  18.836   4.328   6.461 -0.1021  0.2825  0.1021
  855POPE   C2B12416  18.858   4.148   6.858  0.0337  0.2625  0.0022
  855POPE   C3B12417  18.664   3.993   7.327  0.2150 -0.2304 -0.2024
  855POPE   C4B12418  18.201   3.909   7.545 -0.0935  0.0654 -0.0294
  856POPE   NH312419  15.234   2.362   4.674  0.5189  0.0169  0.4497
  856POPE   PO412420  15.192   2.491   5.108 -0.0899 -0.1007  0.2303
  856POPE   GL112421  15.174   2.548   5.596  0.0664  0.0116 -0.0234
  856POPE   GL212422  15.479   2.543   5.839 -0.0058 -0.2045  0.2098
  856POPE   C1A12423  15.017   2.951   5.673  0.1219 -0.1306 -0.2127
  856POPE   D2A12424  14.851   3.128   6.041 -0.2287  0.0560 -0.1060
  856POPE   C3A12425  14.854   2.975   6.425  0.0494 -0.3339  0.2301
  856POPE   C4A12426  15.055   3.126   6.779 -0.0754  0.0239 -0.1865
  856POPE   C1B12427  15.155   2.554   6.162  0.2590  0.2155  0.1172
  856POPE   C2B12428  14.802   2.598   6.058  0.0779 -0.1993  0.1356
  856POPE   C3B12429  14.369   2.404   6.049  0.0164  0.0813 -0.4514
  856POPE   C4B12430  13.973   2.707   5.816 -0.1393 -0.1358 -0.0156
  857POPE   NH312431   1.969   4.186   5.271 -0.0506  0.0604 -0.2024
  857POPE   PO412432   1.605   4.255   5.069 -0.1529 -0.3647 -0.1192
  857POPE   GL112433   1.384   4.241   5.485  0.0314  0.0942  0.0654
  857POPE   GL212434   1.462   3.997   5.677 -0.1559  0.4187  0.0282
  857POPE   C1A12435   1.518   4.571   5.791  0.0270  0.0459 -0.0526
  857POPE   D2A12436   1.868   4.693   6.050 -0.0787  0.0017 -0.2055
  857POPE   C3A12437   1.967   4.487   6.367 -0.0691  0.0481 -0.0518
  857POPE   C4A12438   2.064   4.324   6.747 -0.0308  0.1346 -0.0648
  857POPE   C1B12439   1.626   3.660   6.016  0.0001  0.0919 -0.0599
  857POPE   C2B12440   1.777   3.804   6.448  0.4413 -0.0814 -0.1127
  857POPE   C3B12441   1.773   3.950   6.869 -0.0964  0.0426 -0.3911
  857POPE   C4B12442   1.673   4.012   7.219  0.1485 -0.1170 -0.2046
  858POPE   NH312443  15.657  10.345   5.629 -0.1558 -0.0444 -0.0239
  858POPE   PO412444  15.803   9.984   5.464  0.4090 -0.0748  0.1193
  858POPE   GL112445  15.901   9.841   5.876 -0.0268 -0.1104  0.1892
  858POPE   GL212446  15.817  10.075   6.043 -0.0952 -0.2083  0.4994
  858POPE   C1A12447  15.702   9.708   6.347 -0.3457 -0.0674 -0.0106
  858POPE   D2A12448  15.774   9.550   6.743  0.1840  0.3517  0.1065
  858POPE   C3A12449  15.494   9.391   7.152 -0.0879  0.0472  0.0852
  858POPE   C4A12450  15.416   9.186   7.538  0.1451  0.0330  0.6133
  858POPE   C1B12451  15.646  10.242   6.360  0.3068  0.2357  0.3418
  858POPE   C2B12452  15.626  10.292   6.813 -0.1942  0.0665 -0.1045
  858POPE   C3B12453  15.622  10.336   7.318  0.2869 -0.3498  0.3046
  858POPE   C4B12454  15.552  10.618   7.551  0.2556  0.0703 -0.2182
  859POPE   NH312455   3.815   0.272   4.979 -0.0401 -0.1737  0.0544
  859POPE   PO412456   3.678   0.126   5.279  0.0030  0.2599 -0.2958
  859POPE   GL112457   3.724   0.125   5.761  0.1348  0.0484 -0.1183
  859POPE   GL212458   3.805   0.391   5.942  0.1772  0.4501  0.0510
  859POPE   C1A12459   3.535   0.073   6.196  0.1089 -0.2346  0.0767
  859POPE   D2A12460   3.616  -0.007   6.560  0.2859 -0.4779  0.3233
  859POPE   C3A12461   3.285  -0.184   6.892 -0.1744  0.0722 -0.0659
  859POPE   C4A12462   3.214  -0.053   7.413  0.1024  0.0371  0.4129
  859POPE   C1B12463   3.454   0.703   6.025 -0.5220  0.0190  0.0992
  859POPE   C2B12464   3.579   1.156   6.294  0.0655 -0.2365 -0.2227
  859POPE   C3B12465   3.734   1.179   6.596  0.0725 -0.0566 -0.0417
  859POPE   C4B12466   3.938   0.919   6.815  0.2506  0.0969  0.1561
  860POPE   NH312467   3.640  18.049   5.434  0.0203 -0.1254  0.1670
  860POPE   PO412468   4.051  18.022   5.240  0.1787 -0.1052  0.2239
  860POPE   GL112469   4.097  18.200   5.587  0.0509  0.1394  0.1267
  860POPE   GL212470   4.135  18.561   5.637 -0.0853 -0.1234  0.1538
  860POPE   C1A12471   4.354  18.151   5.968  0.0814  0.0544 -0.0645
  860POPE   D2A12472   4.697  18.290   6.265  0.2309  0.0228  0.0884
  860POPE   C3A12473   4.580  18.540   6.698  0.1484  0.2087 -0.1637
  860POPE   C4A12474   4.453  18.793   6.933  0.0302  0.2867 -0.1338
  860POPE   C1B12475   4.315  18.620   6.062 -0.1949  0.1884  0.0303
  860POPE   C2B12476   4.582  18.781   6.233  0.2368  0.2285 -0.0501
  860POPE   C3B12477   4.978  19.034   6.394  0.2121 -0.2135  0.0140
  860POPE   C4B12478   5.292  19.146   6.506  0.2514 -0.0559 -0.0527
  861POPE   NH312479  13.540   5.174   5.435  0.0573 -0.1911  0.3201
  861POPE   PO412480  13.189   5.280   5.314  0.0075  0.1990 -0.2664
  861POPE   GL112481  13.125   5.293   5.732  0.6521 -0.0746  0.1329
  861POPE   GL212482  12.776   5.248   5.779 -0.0703  0.1376  0.0615
  861POPE   C1A12483  13.188   5.119   6.009 -0.2974 -0.4273 -0.1101
  861POPE   D2A12484  13.142   5.051   6.403 -0.0413 -0.1500 -0.1552
  861POPE   C3A12485  12.915   4.861   6.696  0.7120  0.0645  0.0729
  861POPE   C4A12486  12.959   4.456   6.751 -0.3475  0.0590  0.0088
  861POPE   C1B12487  12.693   5.051   6.215 -0.0029 -0.0877 -0.1911
  861POPE   C2B12488  12.474   5.118   6.545  0.1048 -0.0135  0.3639
  861POPE   C3B12489  12.448   5.114   6.984 -0.3391  0.1303  0.0708
  861POPE   C4B12490  12.299   5.474   7.264  0.2103  0.2389  0.0125
  862POPE   NH312491  14.049  10.990   5.367 -0.1742  0.1062 -0.0103
  862POPE   PO412492  14.208  11.424   5.407  0.0228 -0.0759 -0.2553
  862POPE   GL112493  14.220  11.343   5.860  0.1553  0.1840 -0.0613
  862POPE   GL212494  14.019  11.606   5.981 -0.3117  0.0876 -0.0633
  862POPE   C1A12495  14.138  11.119   6.257  0.0922 -0.0199 -0.1733
  862POPE   D2A12496  14.253  10.948   6.591 -0.0864  0.5671  0.0794
  862POPE   C3A12497  14.425  10.646   6.530  0.0365 -0.0994  0.4170
  862POPE   C4A12498  14.839  10.446   6.275 -0.3161 -0.0628  0.3004
  862POPE   C1B12499  13.720  11.458   6.353  0.2017 -0.1479  0.0415
  862POPE   C2B12500  13.340  11.560   6.364  0.1494 -0.4131 -0.0041
  862POPE   C3B12501  13.040  11.862   6.453  0.2980  0.2478 -0.0021
  862POPE   C4B12502  12.762  12.182   6.629 -0.2653 -0.3783  0.1439
  863POPE   NH312503   9.575   9.111   4.355  0.0253  0.0863  0.2487
  863POPE   PO412504   9.201   9.303   4.585  0.0699  0.2032 -0.2865
  863POPE   GL112505   9.392   9.050   5.032 -0.3031 -0.0300 -0.0097
  863POPE   GL212506   9.570   8.782   5.127  0.2433  0.1917  0.1431
  863POPE   C1A12507   9.415   9.313   5.463  0.0803 -0.0531 -0.0484
  863POPE   D2A12508   9.569   9.780   5.567 -0.2549 -0.0088 -0.4431
  863POPE   C3A12509   9.288  10.043   5.683  0.0492 -0.0570  0.1811
  863POPE   C4A12510   9.310  10.346   5.810 -0.1791  0.0097  0.4414
  863POPE   C1B12511   9.648   8.854   5.543  0.2189  0.1484  0.3094
  863POPE   C2B12512   9.586   8.773   5.912  0.3094  0.1142 -0.2918
  863POPE   C3B12513   9.735   8.735   6.218  0.0371 -0.0804 -0.0041
  863POPE   C4B12514   9.499   8.806   6.688 -0.1140 -0.1751  0.3895
  864POPE   NH312515   1.297   9.516   5.406 -0.5686 -0.1987  0.0609
  864POPE   PO412516   1.634   9.342   5.258 -0.1285  0.2072  0.1942
  864POPE   GL112517   1.825   9.467   5.657 -0.1314  0.2585  0.1113
  864POPE   GL212518   2.079   9.532   5.528 -0.0307  0.0355 -0.0544
  864POPE   C1A12519   2.106   9.357   6.015  0.3479  0.0546 -0.2520
  864POPE   D2A12520   2.178   9.299   6.485  0.0066  0.2052 -0.0100
  864POPE   C3A12521   2.474   9.202   6.694  0.0986  0.1083  0.0168
  864POPE   C4A12522   2.615   9.132   7.108 -0.0123 -0.0095 -0.0925
  864POPE   C1B12523   2.160   9.881   5.860  0.3034  0.0429  0.1155
  864POPE   C2B12524   2.243  10.105   6.140  0.0717 -0.1664 -0.1078
  864POPE   C3B12525   2.385  10.489   6.149 -0.0343  0.1092  0.2818
  864POPE   C4B12526   2.700  10.631   5.984  0.1311  0.0245 -0.1899
  865POPE   NH312527   6.694  12.185   5.510 -0.0889 -0.1190 -0.0510
  865POPE   PO412528   6.268  12.253   5.701  0.1754  0.1189  0.1336
  865POPE   GL112529   5.906  12.342   5.980 -0.0240 -0.0620  0.1671
  865POPE   GL212530   5.640  12.039   5.937  0.1030 -0.2025  0.1741
  865POPE   C1A12531   5.742  12.334   6.392 -0.1129 -0.1569 -0.1192
  865POPE   D2A12532   5.640  12.238   6.625  0.1377  0.2532  0.1838
  865POPE   C3A12533   5.531  12.394   7.005 -0.2131 -0.0520  0.4080
  865POPE   C4A12534   5.242  12.348   7.371 -0.2577 -0.1586  0.1176
  865POPE   C1B12535   5.544  11.808   6.318 -0.0351 -0.1229 -0.1803
  865POPE   C2B12536   5.680  11.724   6.739  0.1743 -0.1765  0.0804
  865POPE   C3B12537   5.791  11.534   7.179 -0.1631 -0.2902 -0.2492
  865POPE   C4B12538   5.888  11.663   7.606  0.1606 -0.0138  0.1668
  866POPE   NH312539   2.022  16.839   5.585 -0.1545  0.0008  0.1213
  866POPE   PO412540   1.989  16.419   5.282  0.0835 -0.0726 -0.0462
  866POPE   GL112541   1.920  16.356   5.802 -0.1759  0.3331  0.1496
  866POPE   GL212542   1.851  16.067   5.934 -0.1406 -0.3168 -0.0129
  866POPE   C1A12543   1.779  16.411   6.333  0.1546  0.2460 -0.0727
  866POPE   D2A12544   1.784  16.456   6.792  0.1591 -0.1783 -0.1862
  866POPE   C3A12545   1.668  16.925   7.090 -0.3513 -0.5266  0.4432
  866POPE   C4A12546   2.042  17.130   7.172  0.1250 -0.2833  0.0416
  866POPE   C1B12547   1.861  15.933   6.482  0.0030  0.0627  0.1231
  866POPE   C2B12548   1.962  16.040   6.905  0.2443  0.0199 -0.0865
  866POPE   C3B12549   2.148  16.030   7.200 -0.2109  0.0561  0.0630
  866POPE   C4B12550   2.366  16.130   7.598  0.1659  0.0132  0.3398
  867POPE   NH312551   0.446  13.046   5.502  0.1364 -0.1951 -0.2788
  867POPE   PO412552   0.569  12.722   5.487 -0.2560  0.0371  0.1859
  867POPE   GL112553   0.854  12.577   5.838 -0.0596 -0.1986 -0.0076
  867POPE   GL212554   1.196  12.714   6.016  0.0799  0.1105  0.7022
  867POPE   C1A12555   0.873  12.362   6.282 -0.0702 -0.1087  0.1018
  867POPE   D2A12556   0.631  12.333   6.722 -0.0503 -0.4087  0.1004
  867POPE   C3A12557   0.369  11.935   6.779 -0.0837 -0.1400 -0.3114
  867POPE   C4A12558   0.514  11.624   7.093  0.2227 -0.2960 -0.2249
  867POPE   C1B12559   1.282  12.972   6.375 -0.0020  0.0371  0.2673
  867POPE   C2B12560   1.383  12.819   6.764  0.1941  0.0868 -0.2493
  867POPE   C3B12561   1.272  12.557   7.026 -0.0761 -0.3212 -0.1624
  867POPE   C4B12562   0.864  12.387   7.194  0.2857  0.1032 -0.1845
  868POPE   NH312563  13.312   0.268   5.327  0.2480  0.2114  0.2981
  868POPE   PO412564  13.714   0.432   5.113 -0.2755 -0.0879 -0.1900
  868POPE   GL112565  13.779   0.333   5.552 -0.0784  0.3439 -0.0554
  868POPE   GL212566  14.092   0.182   5.758 -0.1037 -0.2659 -0.3755
  868POPE   C1A12567  13.722   0.423   5.963  0.0665 -0.0304 -0.0596
  868POPE   D2A12568  13.661   0.613   6.398 -0.0174  0.2124  0.0789
  868POPE   C3A12569  13.924   0.542   6.716  0.1591  0.1788 -0.0303
  868POPE   C4A12570  14.258   0.671   6.881  0.2557 -0.1461  0.0060
  868POPE   C1B12571  14.143   0.422   6.215 -0.1620 -0.2043  0.0919
  868POPE   C2B12572  14.357   0.688   6.391 -0.0029  0.2869  0.1979
  868POPE   C3B12573  14.801   0.775   6.685 -0.0542  0.3414 -0.1201
  868POPE   C4B12574  15.021   0.927   7.039  0.1043 -0.0465 -0.4212
  869POPE   NH312575   9.992   5.651   5.203 -0.4683 -0.1797 -0.0450
  869POPE   PO412576  10.283   5.942   4.916  0.1004 -0.1338  0.1758
  869POPE   GL112577  10.475   5.879   5.326 -0.0751  0.0082  0.0590
  869POPE   GL212578  10.297   6.075   5.579 -0.1457  0.1989  0.2762
  869POPE   C1A12579  10.605   5.660   5.655  0.1891  0.1318  0.0995
  869POPE   D2A12580  10.571   5.518   6.109 -0.1883 -0.0038  0.0855
  869POPE   C3A12581  10.712   5.754   6.381  0.2351 -0.0180 -0.0313
  869POPE   C4A12582  10.551   5.680   6.866  0.0423  0.1197 -0.1988
  869POPE   C1B12583  10.224   5.936   6.008  0.0265 -0.0810 -0.1116
  869POPE   C2B12584  10.179   5.811   6.439  0.0876  0.2409 -0.1425
  869POPE   C3B12585  10.063   5.516   6.639  0.1408  0.1286  0.1550
  869POPE   C4B12586  10.030   5.266   7.097 -0.2551 -0.1319  0.0961
  870POPE   NH312587  14.686  14.036   5.871  0.0080  0.0015  0.1991
  870POPE   PO412588  14.456  13.696   5.829 -0.1531 -0.1002 -0.0385
  870POPE   GL112589  14.799  13.615   6.246 -0.0624 -0.2319 -0.1025
  870POPE   GL212590  14.689  13.840   6.405  0.1226 -0.0485 -0.4875
  870POPE   C1A12591  14.999  13.308   6.516  0.0123  0.1137  0.1361
  870POPE   D2A12592  14.938  13.348   7.009  0.1887 -0.1493  0.3035
  870POPE   C3A12593  15.272  13.359   7.239 -0.4266  0.4336  0.0326
  870POPE   C4A12594  15.591  13.482   7.415 -0.2428 -0.4461 -0.0823
  870POPE   C1B12595  14.643  13.805   6.887  0.1068  0.0032 -0.0009
  870POPE   C2B12596  14.717  13.825   7.249  0.0041  0.4191  0.4689
  870POPE   C3B12597  14.847  13.577   7.523  0.4069  0.2529  0.0494
  870POPE   C4B12598  15.259  13.314   7.780  0.0462  0.0531  0.1524
  871YOPE   NH312599  14.068  15.654   5.303  0.0125  0.1780 -0.1957
  871YOPE   PO412600  13.925  15.676   5.772  0.2083 -0.1664 -0.4183
  871YOPE   GL112601  13.704  15.667   6.090 -0.0276 -0.0623  0.2460
  871YOPE   GL212602  13.890  15.788   6.288 -0.0068 -0.5562  0.1048
  871YOPE   C1A12603  13.327  15.661   6.313  0.3237  0.2176 -0.0858
  871YOPE   D2A12604  13.162  15.733   6.703  0.2636 -0.2570  0.2936
  871YOPE   C3A12605  13.462  15.557   6.931 -0.0052  0.1150  0.2047
  871YOPE   C4A12606  13.482  15.786   7.412 -0.3192 -0.1442 -0.1675
  871YOPE   C1B12607  13.709  15.958   6.584 -0.3989 -0.1467 -0.0853
  871YOPE   C2B12608  13.509  16.070   7.011 -0.0345  0.0427 -0.2980
  871YOPE   D3B12609  13.120  16.030   7.160 -0.3173 -0.4275  0.2323
  871YOPE   C4B12610  12.856  16.165   7.384  0.2492 -0.2023  0.0080
  872YOPE   NH312611  13.835   7.546   5.110  0.0401 -0.0815 -0.1754
  872YOPE   PO412612  14.250   7.683   5.078  0.1323  0.0039 -0.2646
  872YOPE   GL112613  14.299   7.745   5.461 -0.0752  0.0365 -0.2877
  872YOPE   GL212614  14.021   7.811   5.593  0.0578  0.2938  0.1115
  872YOPE   C1A12615  14.577   7.952   5.736  0.1692  0.0466  0.1683
  872YOPE   D2A12616  14.756   8.325   5.678  0.3194  0.2554  0.0706
  872YOPE   C3A12617  14.598   8.719   5.963 -0.1901  0.0243  0.1451
  872YOPE   C4A12618  14.727   8.648   6.340  0.1411 -0.0585  0.0378
  872YOPE   C1B12619  14.042   7.821   6.020 -0.1679 -0.0433  0.0992
  872YOPE   C2B12620  14.137   8.030   6.430 -0.0605 -0.1251 -0.1357
  872YOPE   D3B12621  14.083   8.281   6.873 -0.2047  0.0564  0.2408
  872YOPE   C4B12622  13.965   8.254   7.218 -0.0819  0.0468 -0.2936
  873YOPE   NH312623  13.163   3.561   5.129 -0.3419  0.0682 -0.0597
  873YOPE   PO412624  13.343   3.833   5.312  0.0697 -0.2544 -0.2391
  873YOPE   GL112625  13.438   3.889   5.744 -0.0803  0.1057 -0.2329
  873YOPE   GL212626  13.497   3.562   5.761 -0.1382 -0.3142 -0.3433
  873YOPE   C1A12627  13.273   4.098   6.158  0.1995  0.2494  0.0340
  873YOPE   D2A12628  13.265   4.122   6.500  0.3504 -0.1109  0.0906
  873YOPE   C3A12629  13.520   3.928   6.920  0.0844 -0.0797  0.1175
  873YOPE   C4A12630  13.468   3.938   7.342  0.0175 -0.1936  0.1710
  873YOPE   C1B12631  13.624   3.590   6.110 -0.1811  0.1962  0.0880
  873YOPE   C2B12632  13.595   3.588   6.501  0.0519  0.0212  0.1793
  873YOPE   D3B12633  13.614   3.420   6.992 -0.4613  0.2632  0.6135
  873YOPE   C4B12634  13.858   3.435   7.342  0.1988  0.0408 -0.1087
  874YOPE   NH312635  11.181  12.461   5.373  0.2011 -0.2503  0.0409
  874YOPE   PO412636  11.450  12.079   5.457  0.1011 -0.0549 -0.2050
  874YOPE   GL112637  11.179  11.853   5.631  0.0215 -0.1347  0.2753
  874YOPE   GL212638  10.828  12.019   5.597  0.1167 -0.3555 -0.1483
  874YOPE   C1A12639  11.119  11.413   5.898 -0.2054  0.0263  0.0722
  874YOPE   D2A12640  10.929  11.317   6.209 -0.0734 -0.0074 -0.2612
  874YOPE   C3A12641  10.967  11.267   6.736 -0.2794 -0.1786 -0.3674
  874YOPE   C4A12642  10.894  10.876   6.979 -0.2906 -0.3545  0.0085
  874YOPE   C1B12643  10.854  11.944   6.004 -0.2951  0.0443  0.1979
  874YOPE   C2B12644  10.777  11.809   6.294  0.1345 -0.0872  0.0658
  874YOPE   D3B12645  10.660  11.730   6.743  0.3229  0.0866 -0.1520
  874YOPE   C4B12646  10.617  11.943   7.069 -0.1956  0.0848 -0.0915
  875YOPE   NH312647  16.919  11.573   5.450 -0.0029  0.3321 -0.0707
  875YOPE   PO412648  16.591  11.257   5.616  0.2259  0.0126 -0.0205
  875YOPE   GL112649  16.905  11.120   5.891  0.0136 -0.1482  0.0593
  875YOPE   GL212650  17.218  11.105   5.960 -0.0265 -0.1539 -0.0470
  875YOPE   C1A12651  17.084  10.919   6.375  0.1744  0.0285  0.1547
  875YOPE   D2A12652  17.200  10.928   6.809 -0.0315 -0.4123  0.0399
  875YOPE   C3A12653  16.922  10.647   7.019  0.2094  0.0049  0.0164
  875YOPE   C4A12654  16.847  10.238   7.375 -0.1176  0.0813  0.2643
  875YOPE   C1B12655  17.538  10.808   6.192 -0.0770 -0.0384  0.2833
  875YOPE   C2B12656  17.489  10.688   6.503  0.0242  0.0119  0.1218
  875YOPE   D3B12657  17.422  10.425   6.817 -0.4764  0.2202  0.0112
  875YOPE   C4B12658  17.355  10.087   7.073  0.1939 -0.2287 -0.0706
  876YOPE   NH312659   9.681   3.580   5.260 -0.2429 -0.2398  0.1253
  876YOPE   PO412660   9.284   3.598   5.000 -0.1368 -0.2551  0.0895
  876YOPE   GL112661   9.282   3.263   5.294 -0.1202  0.0693 -0.0301
  876YOPE   GL212662   9.432   3.212   5.592 -0.0078 -0.1077  0.0186
  876YOPE   C1A12663   9.106   2.813   5.537  0.0738  0.0220  0.2770
  876YOPE   D2A12664   9.268   2.520   5.746 -0.2797  0.0080  0.0897
  876YOPE   C3A12665   9.466   2.835   5.938 -0.3504 -0.0140  0.0158
  876YOPE   C4A12666   9.711   2.954   6.321  0.1158 -0.1011  0.0934
  876YOPE   C1B12667   9.587   3.309   5.999  0.0235  0.1207  0.1489
  876YOPE   C2B12668   9.522   3.400   6.393 -0.2088  0.0474  0.0614
  876YOPE   D3B12669   9.383   3.539   6.849 -0.1604  0.0394  0.0022
  876YOPE   C4B12670   9.117   3.492   7.225  0.2115  0.0136  0.1667
  877YOPE   NH312671   0.317   0.077   5.612  0.1572 -0.0907 -0.0801
  877YOPE   PO412672  -0.156  -0.014   5.793 -0.0142 -0.2529  0.3731
  877YOPE   GL112673  -0.433   0.041   6.182 -0.1046 -0.0748 -0.0902
  877YOPE   GL212674  -0.729   0.151   6.094 -0.0166  0.0748  0.1597
  877YOPE   C1A12675  -0.506  -0.062   6.615  0.2071  0.0763  0.0418
  877YOPE   D2A12676  -0.379  -0.093   6.997 -0.1648  0.1678 -0.0167
  877YOPE   C3A12677  -0.087   0.190   7.222 -0.0002  0.0996 -0.1441
  877YOPE   C4A12678   0.030   0.676   7.267  0.1028  0.0604  0.1196
  877YOPE   C1B12679  -0.846   0.262   6.464  0.1780 -0.1505 -0.1914
  877YOPE   C2B12680  -0.897   0.091   6.897 -0.1966 -0.2015  0.0065
  877YOPE   D3B12681  -1.106  -0.179   7.220 -0.1370 -0.2253  0.0654
  877YOPE   C4B12682  -1.441  -0.131   7.604 -0.0963  0.3351  0.1062
  878YOPE   NH312683  16.866   0.512   5.004  0.1184 -0.3032 -0.1191
  878YOPE   PO412684  16.771   0.985   5.255  0.3140  0.0690 -0.0881
  878YOPE   GL112685  16.526   0.922   5.676 -0.3052  0.0647 -0.0111
  878YOPE   GL212686  16.786   1.103   5.799  0.0474 -0.1887 -0.1288
  878YOPE   C1A12687  16.318   1.043   6.077  0.2611 -0.4256  0.0868
  878YOPE   D2A12688  16.221   1.206   6.397  0.2822  0.2400 -0.2449
  878YOPE   C3A12689  16.360   1.188   6.793  0.1860 -0.0566 -0.2820
  878YOPE   C4A12690  16.384   1.360   7.059  0.0157 -0.3956 -0.1132
  878YOPE   C1B12691  17.100   1.221   6.049  0.1821  0.1609  0.0766
  878YOPE   C2B12692  17.189   1.266   6.499  0.2343  0.2297 -0.1776
  878YOPE   D3B12693  17.259   1.327   6.943 -0.2621  0.2328  0.2236
  878YOPE   C4B12694  17.580   1.190   7.227  0.0031 -0.2200 -0.3246
  879YOPE   NH312695   3.320  18.919   5.164  0.4271 -0.1421 -0.0751
  879YOPE   PO412696   3.000  18.631   5.096  0.1599 -0.0046  0.1072
  879YOPE   GL112697   3.059  18.779   5.565 -0.2268  0.1849 -0.2123
  879YOPE   GL212698   2.789  18.729   5.777  0.2432 -0.1725 -0.0748
  879YOPE   C1A12699   3.293  18.995   5.836 -0.1328 -0.1124 -0.2304
  879YOPE   D2A12700   3.699  18.871   5.941  0.1697 -0.2288  0.1170
  879YOPE   C3A12701   3.839  18.818   6.270  0.1487 -0.0265  0.0703
  879YOPE   C4A12702   4.199  18.918   6.534 -0.1370  0.0618  0.1035
  879YOPE   C1B12703   2.800  18.666   6.284 -0.2185 -0.0873  0.3763
  879YOPE   C2B12704   2.771  18.684   6.755  0.3431 -0.0810  0.3413
  879YOPE   D3B12705   2.871  18.841   7.202 -0.0436 -0.0443 -0.0893
  879YOPE   C4B12706   2.755  19.117   7.531 -0.2421 -0.1875  0.1711
  880YOPE   NH312707   9.803  16.116   5.520 -0.1103  0.1879  0.0056
  880YOPE   PO412708   9.491  15.814   5.447 -0.2265  0.1989  0.2131
  880YOPE   GL112709   9.463  15.698   5.871 -0.2178  0.0203 -0.2924
  880YOPE   GL212710   9.897  15.844   5.960  0.2755 -0.1369 -0.1645
  880YOPE   C1A12711   9.376  16.034   6.165 -0.0622  0.0237  0.1227
  880YOPE   D2A12712   9.698  16.253   6.483  0.1334 -0.1920  0.0183
  880YOPE   C3A12713   9.776  16.133   6.929 -0.3188 -0.2062  0.0250
  880YOPE   C4A12714   9.986  16.192   7.294  0.1479  0.3419  0.0093
  880YOPE   C1B12715   9.721  15.737   6.388  0.2383  0.0164 -0.0281
  880YOPE   C2B12716   9.381  15.821   6.644  0.2737  0.1710 -0.0878
  880YOPE   D3B12717   9.190  15.772   6.967 -0.1505  0.0102  0.0100
  880YOPE   C4B12718   9.259  16.147   7.199 -0.0631 -0.1277 -0.1774
  881YOPE   NH312719   6.291   7.266   5.064  0.2662 -0.1478 -0.0419
  881YOPE   PO412720   6.766   7.311   5.056  0.1221 -0.2609 -0.0358
  881YOPE   GL112721   6.863   7.105   5.364 -0.1706  0.1795  0.0818
  881YOPE   GL212722   7.217   7.107   5.492  0.1447  0.0655 -0.3761
  881YOPE   C1A12723   6.724   6.856   5.675 -0.0085 -0.0584 -0.0817
  881YOPE   D2A12724   6.877   6.592   6.051  0.1431 -0.0687 -0.1098
  881YOPE   C3A12725   6.664   6.595   6.522  0.1369  0.2034  0.1773
  881YOPE   C4A12726   6.609   6.959   6.830 -0.0365 -0.0459  0.0956
  881YOPE   C1B12727   7.305   6.737   5.683  0.1130  0.0454 -0.1940
  881YOPE   C2B12728   7.562   6.390   5.591 -0.3664  0.0691 -0.0918
  881YOPE   D3B12729   7.968   6.260   5.798 -0.0252 -0.2383  0.2111
  881YOPE   C4B12730   8.031   5.974   6.072  0.0754 -0.1108  0.0411
  882YOPE   NH312731  10.665  14.204   5.799  0.2936  0.3885 -0.1584
  882YOPE   PO412732  11.106  14.152   5.733  0.0056 -0.1934  0.2909
  882YOPE   GL112733  11.340  14.178   6.044  0.4421  0.3193  0.2859
  882YOPE   GL212734  11.628  14.375   6.025 -0.3749 -0.0868  0.3709
  882YOPE   C1A12735  11.351  14.364   6.451  0.2856 -0.1717  0.1053
  882YOPE   D2A12736  11.358  14.264   6.915  0.2296 -0.2605  0.1062
  882YOPE   C3A12737  11.476  14.502   7.288 -0.0216 -0.0637 -0.1702
  882YOPE   C4A12738  11.813  14.770   7.253  0.0874 -0.1388  0.0035
  882YOPE   C1B12739  11.913  14.120   6.306 -0.0245  0.1351 -0.1776
  882YOPE   C2B12740  11.755  13.824   6.655  0.1827  0.1119  0.1180
  882YOPE   D3B12741  11.820  13.541   6.966  0.1310 -0.0914 -0.3422
  882YOPE   C4B12742  11.712  13.117   7.081 -0.0601  0.2396  0.1434
  883YOPE   NH312743   6.998   2.329   4.870  0.4066 -0.0046  0.0921
  883YOPE   PO412744   6.779   2.051   5.179 -0.1040 -0.2807  0.0705
  883YOPE   GL112745   6.721   1.823   5.561  0.0725  0.3581  0.2801
  883YOPE   GL212746   6.939   1.623   5.465  0.3780  0.0598 -0.1132
  883YOPE   C1A12747   6.509   1.811   5.937 -0.0984 -0.1934 -0.0161
  883YOPE   D2A12748   6.509   1.898   6.414  0.2658 -0.3022 -0.0616
  883YOPE   C3A12749   6.343   2.194   6.649  0.0709 -0.1503 -0.0638
  883YOPE   C4A12750   5.916   2.213   6.898 -0.3580 -0.1808  0.0854
  883YOPE   C1B12751   6.996   1.401   5.849  0.1830  0.2151 -0.0107
  883YOPE   C2B12752   7.121   1.133   6.204  0.0907 -0.0076  0.2562
  883YOPE   D3B12753   7.310   1.163   6.469  0.0286 -0.2291  0.2992
  883YOPE   C4B12754   7.442   1.068   6.820 -0.2610 -0.3127 -0.3129
  884YOPE   NH312755  12.496  12.417   5.758 -0.1049 -0.3278 -0.0801
  884YOPE   PO412756  12.136  12.461   5.773  0.1061  0.2231  0.0104
  884YOPE   GL112757  11.840  12.475   6.079  0.0860 -0.0984  0.2510
  884YOPE   GL212758  11.827  12.838   6.074 -0.0002  0.2821 -0.1669
  884YOPE   C1A12759  11.670  12.295   6.431 -0.0893  0.1802 -0.3740
  884YOPE   D2A12760  11.895  12.100   6.799  0.1367  0.0901  0.0120
  884YOPE   C3A12761  11.777  11.701   6.943  0.1150 -0.1997  0.2218
  884YOPE   C4A12762  11.680  11.578   7.370 -0.1207  0.1503 -0.2861
  884YOPE   C1B12763  11.764  12.902   6.484 -0.0728 -0.5446  0.1559
  884YOPE   C2B12764  11.700  12.679   6.903 -0.2490  0.0606  0.2531
  884YOPE   D3B12765  11.789  12.468   7.157  0.2475 -0.2510 -0.2152
  884YOPE   C4B12766  11.771  12.338   7.624  0.1378 -0.2695  0.0862
  885YOPE   NH312767  11.066   7.269   5.156  0.2153  0.0523 -0.1392
  885YOPE   PO412768  11.296   6.872   5.393 -0.0950  0.1122  0.0202
  885YOPE   GL112769  11.231   6.936   5.718 -0.1196 -0.1223 -0.1770
  885YOPE   GL212770  11.117   7.224   5.777  0.0477  0.0507  0.0670
  885YOPE   C1A12771  11.275   6.812   6.095  0.1845  0.1873  0.0234
  885YOPE   D2A12772  11.210   6.700   6.529 -0.1092  0.0992  0.1572
  885YOPE   C3A12773  11.405   6.338   6.762  0.3407 -0.2334 -0.0859
  885YOPE   C4A12774  11.520   5.924   6.887  0.0189 -0.1842  0.1180
  885YOPE   C1B12775  11.085   7.676   6.093 -0.0295 -0.0315  0.0833
  885YOPE   C2B12776  10.969   7.750   6.559  0.1297 -0.1144 -0.1426
  885YOPE   D3B12777  10.769   7.387   6.821  0.0787  0.0875 -0.2365
  885YOPE   C4B12778  10.652   7.394   7.248  0.3290 -0.4497 -0.0926
  886YOPE   NH312779  18.534  16.610   5.587  0.0899 -0.3151 -0.0860
  886YOPE   PO412780  18.105  16.825   5.563  0.3095 -0.0626  0.2119
  886YOPE   GL112781  18.134  16.664   5.886  0.1147 -0.1263 -0.1841
  886YOPE   GL212782  17.988  16.410   5.844 -0.1935 -0.2031  0.1030
  886YOPE   C1A12783  18.200  16.635   6.321 -0.1200  0.0919  0.3224
  886YOPE   D2A12784  18.173  16.230   6.561  0.0168 -0.0465 -0.0727
  886YOPE   C3A12785  18.158  15.956   6.976 -0.0602  0.0502 -0.0044
  886YOPE   C4A12786  17.891  15.598   7.060  0.2042  0.1199  0.0665
  886YOPE   C1B12787  17.732  16.476   6.233 -0.3507 -0.0976  0.4017
  886YOPE   C2B12788  17.808  16.597   6.704 -0.2869 -0.0424  0.0074
  886YOPE   D3B12789  17.606  16.709   7.060 -0.0718  0.0882  0.1037
  886YOPE   C4B12790  17.330  16.812   7.427 -0.1199 -0.4067  0.0620
  887YOPE   NH312791  13.706   9.855   5.092 -0.0863 -0.0526 -0.3301
  887YOPE   PO412792  14.045   9.672   5.288  0.0349 -0.1546  0.0744
  887YOPE   GL112793  14.248   9.640   5.791 -0.1026  0.1523  0.3801
  887YOPE   GL212794  14.597   9.898   5.931 -0.0208  0.1328 -0.1740
  887YOPE   C1A12795  13.996   9.715   6.202  0.1565 -0.1671  0.0349
  887YOPE   D2A12796  13.891   9.661   6.624  0.1716 -0.0110  0.2368
  887YOPE   C3A12797  14.104   9.654   7.082  0.1743  0.1521  0.1575
  887YOPE   C4A12798  14.512   9.807   7.247  0.1219 -0.1155 -0.0886
  887YOPE   C1B12799  14.492   9.678   6.261 -0.0980  0.0117 -0.0054
  887YOPE   C2B12800  14.483   9.698   6.688 -0.1809  0.4267  0.1669
  887YOPE   D3B12801  14.708   9.417   7.014  0.2462 -0.1166 -0.0621
  887YOPE   C4B12802  14.978   9.196   7.251 -0.2935  0.0329 -0.0771
  888YOPE   NH312803   3.376  12.911   5.634  0.0006 -0.0283  0.0661
  888YOPE   PO412804   3.444  13.369   5.593 -0.0420  0.1552 -0.0590
  888YOPE   GL112805   3.757  13.544   5.887 -0.0481 -0.0867 -0.0592
  888YOPE   GL212806   3.905  13.869   6.029  0.1052  0.2405 -0.1356
  888YOPE   C1A12807   3.848  13.454   6.335  0.2293  0.4222 -0.1730
  888YOPE   D2A12808   3.960  13.582   6.697  0.2913  0.0215 -0.0768
  888YOPE   C3A12809   3.839  13.482   7.124  0.2430  0.1274  0.2921
  888YOPE   C4A12810   3.666  13.207   7.388 -0.3756 -0.1736  0.0478
  888YOPE   C1B12811   4.271  13.876   6.234  0.1454  0.2957  0.0138
  888YOPE   C2B12812   4.690  13.885   6.501 -0.2328 -0.2140 -0.0503
  888YOPE   D3B12813   5.023  13.992   6.747  0.3908 -0.2461  0.1373
  888YOPE   C4B12814   5.505  13.912   6.805  0.1358  0.0676 -0.1014
  889YOPE   NH312815  16.760   8.231   5.248  0.2147  0.1569 -0.2324
  889YOPE   PO412816  16.969   7.981   5.549  0.1718 -0.1121 -0.2489
  889YOPE   GL112817  16.852   8.102   5.857  0.0379 -0.1609  0.3399
  889YOPE   GL212818  16.588   7.859   5.883  0.0384  0.3091 -0.1407
  889YOPE   C1A12819  16.792   7.963   6.292 -0.2956 -0.1238  0.3545
  889YOPE   D2A12820  16.334   7.838   6.442 -0.2577  0.0782 -0.2237
  889YOPE   C3A12821  16.218   7.564   6.899  0.1424 -0.1178 -0.3279
  889YOPE   C4A12822  16.435   7.429   7.363  0.0094  0.0929 -0.0292
  889YOPE   C1B12823  16.361   7.499   6.041  0.0834 -0.1097  0.2042
  889YOPE   C2B12824  16.187   7.314   6.395  0.1072 -0.1154  0.0312
  889YOPE   D3B12825  16.078   7.128   6.719 -0.0199 -0.0250 -0.0736
  889YOPE   C4B12826  16.129   7.097   7.116  0.0236 -0.0728 -0.0699
  890YOPE   NH312827   7.516   7.671   5.144  0.1290  0.2305  0.0407
  890YOPE   PO412828   7.117   7.563   5.329 -0.2568 -0.1062 -0.1445
  890YOPE   GL112829   7.351   7.644   5.689  0.1057 -0.0696  0.0368
  890YOPE   GL212830   7.663   7.651   5.620  0.2304 -0.2773  0.0233
  890YOPE   C1A12831   7.240   7.826   6.095  0.0866 -0.1139  0.4961
  890YOPE   D2A12832   7.216   7.577   6.538  0.1874  0.0187 -0.4849
  890YOPE   C3A12833   6.893   7.477   6.867 -0.3126  0.1218 -0.0424
  890YOPE   C4A12834   6.597   7.438   7.132 -0.0157  0.4591 -0.0060
  890YOPE   C1B12835   7.604   7.458   6.105 -0.0454  0.1409 -0.1018
  890YOPE   C2B12836   7.505   7.177   6.364 -0.0246  0.0472 -0.0254
  890YOPE   D3B12837   7.669   6.923   6.740  0.1643  0.0969  0.2032
  890YOPE   C4B12838   7.494   6.744   7.037  0.2070 -0.0410 -0.3335
  891YOPE   NH312839  12.747  17.903   5.159 -0.1425  0.2902  0.4414
  891YOPE   PO412840  13.034  18.169   5.059  0.0191 -0.0815 -0.1648
  891YOPE   GL112841  12.956  18.445   5.439 -0.2549  0.2290 -0.0966
  891YOPE   GL212842  12.753  18.660   5.669  0.1481 -0.1139  0.1447
  891YOPE   C1A12843  13.314  18.617   5.790  0.1502  0.3022  0.0504
  891YOPE   D2A12844  13.670  18.383   5.936 -0.2260  0.1183  0.3896
  891YOPE   C3A12845  13.680  18.536   6.430  0.1026  0.2577 -0.2200
  891YOPE   C4A12846  13.700  18.926   6.543 -0.3645  0.0046  0.2313
  891YOPE   C1B12847  12.932  18.518   6.070 -0.0104 -0.0267 -0.2717
  891YOPE   C2B12848  13.176  18.761   6.386  0.1241 -0.0282  0.4560
  891YOPE   D3B12849  13.194  18.648   6.847 -0.1302  0.0281  0.1716
  891YOPE   C4B12850  13.103  18.622   7.150 -0.3094 -0.1111 -0.1641
  892YOPE   NH312851   3.291   1.892   5.549  0.2301 -0.2385 -0.0190
  892YOPE   PO412852   3.490   2.294   5.542 -0.1815 -0.0048 -0.1288
  892YOPE   GL112853   3.358   2.271   6.038 -0.1028 -0.0537  0.1973
  892YOPE   GL212854   2.994   2.515   5.976 -0.0459  0.0902 -0.0881
  892YOPE   C1A12855   3.289   2.157   6.383  0.0500  0.2492 -0.3521
  892YOPE   D2A12856   3.308   1.900   6.703  0.2122 -0.5454  0.1739
  892YOPE   C3A12857   3.579   1.676   6.951  0.4398 -0.2924  0.1407
  892YOPE   C4A12858   3.398   1.583   7.356  0.0619 -0.0875 -0.0205
  892YOPE   C1B12859   2.868   2.561   6.441  0.1475 -0.1386 -0.2154
  892YOPE   C2B12860   2.966   2.304   6.809 -0.2319  0.2216 -0.2515
  892YOPE   D3B12861   3.215   2.138   7.181  0.1286  0.1338  0.0627
  892YOPE   C4B12862   3.341   2.194   7.594  0.3420  0.0489  0.2327
  893YOPE   NH312863  12.823   0.171   5.301  0.2940 -0.2679  0.1499
  893YOPE   PO412864  12.524  -0.105   5.381 -0.1974  0.0874 -0.2299
  893YOPE   GL112865  12.302  -0.258   5.653 -0.0692  0.2783  0.0470
  893YOPE   GL212866  12.236  -0.646   5.673 -0.1199  0.1034  0.0267
  893YOPE   C1A12867  12.220  -0.162   6.036  0.0403  0.2656 -0.1226
  893YOPE   D2A12868  12.218  -0.383   6.433  0.1977  0.2201 -0.2364
  893YOPE   C3A12869  12.284  -0.209   6.775  0.1309 -0.1488 -0.3492
  893YOPE   C4A12870  12.465  -0.140   7.196  0.1962  0.4040  0.0214
  893YOPE   C1B12871  12.427  -0.616   6.050  0.1976 -0.0160 -0.0680
  893YOPE   C2B12872  12.670  -0.651   6.474  0.2291 -0.1346  0.0764
  893YOPE   D3B12873  12.626  -0.531   6.841  0.0209 -0.0167 -0.0473
  893YOPE   C4B12874  12.282  -0.580   7.183  0.0847 -0.2462 -0.3249
  894YOPE   NH312875  10.870  12.197   5.112  0.0306  0.1640  0.0512
  894YOPE   PO412876  10.701  11.730   5.222  0.0060 -0.0470 -0.2316
  894YOPE   GL112877  10.492  11.590   5.604  0.1767 -0.2811  0.2001
  894YOPE   GL212878  10.155  11.531   5.629 -0.3052 -0.1048  0.0397
  894YOPE   C1A12879  10.460  11.512   6.028 -0.1448 -0.0037 -0.1425
  894YOPE   D2A12880  10.466  11.437   6.409 -0.3098  0.0304 -0.4698
  894YOPE   C3A12881  10.490  11.059   6.509 -0.1915  0.0079 -0.1660
  894YOPE   C4A12882  10.488  10.775   6.701  0.0245  0.2884  0.0280
  894YOPE   C1B12883  10.148  11.016   5.650 -0.0814 -0.1596 -0.3076
  894YOPE   C2B12884  10.120  10.643   5.773  0.1737  0.2097 -0.1598
  894YOPE   D3B12885  10.246  10.261   6.019  0.2326  0.1827  0.0060
  894YOPE   C4B12886  10.488   9.970   6.073 -0.1044  0.1121 -0.2595
  895YOPE   NH312887  19.120  10.276   5.418  0.3140  0.1575 -0.1580
  895YOPE   PO412888  19.636  10.105   5.593 -0.4508  0.1584  0.0462
  895YOPE   GL112889  19.949   9.864   5.902  0.3440 -0.1516 -0.3694
  895YOPE   GL212890  19.689   9.679   6.031  0.1246 -0.3496  0.2241
  895YOPE   C1A12891  20.189   9.775   6.264 -0.1545  0.3512  0.0212
  895YOPE   D2A12892  20.235   9.613   6.657 -0.2318 -0.1018  0.0242
  895YOPE   C3A12893  20.455   9.277   6.831  0.0051  0.0602 -0.4606
  895YOPE   C4A12894  20.315   8.932   6.832  0.2186  0.2329  0.0912
  895YOPE   C1B12895  19.722   9.697   6.520  0.0835 -0.0298  0.1796
  895YOPE   C2B12896  19.610   9.620   6.850 -0.1581  0.1615  0.0326
  895YOPE   D3B12897  19.363   9.451   7.161 -0.0872  0.0238  0.1433
  895YOPE   C4B12898  19.067   9.658   7.345 -0.2124 -0.3770 -0.3769
  896YOPE   NH312899  14.790  19.092   5.312  0.1645 -0.0516  0.1752
  896YOPE   PO412900  14.417  19.089   5.447 -0.1497  0.3982  0.0128
  896YOPE   GL112901  14.062  18.860   5.619  0.0165  0.2316 -0.1051
  896YOPE   GL212902  13.835  18.973   5.718 -0.0495  0.0066  0.1137
  896YOPE   C1A12903  14.101  18.646   6.138  0.4573 -0.1340  0.0385
  896YOPE   D2A12904  14.233  18.495   6.463  0.0349  0.0771  0.1843
  896YOPE   C3A12905  13.906  18.648   6.852 -0.2702  0.0580  0.3317
  896YOPE   C4A12906  13.773  18.927   7.092 -0.3272  0.1364 -0.0575
  896YOPE   C1B12907  13.589  18.974   6.060 -0.2621 -0.2059 -0.0353
  896YOPE   C2B12908  13.705  19.351   6.320 -0.3573  0.2321  0.1173
  896YOPE   D3B12909  13.659  19.373   6.861  0.1517  0.1869 -0.0895
  896YOPE   C4B12910  13.596  19.364   7.288  0.0186 -0.0984 -0.1367
  897YOPE   NH312911   9.258  10.970   5.244  0.3086  0.0279  0.2854
  897YOPE   PO412912   9.453  11.332   5.340 -0.4075 -0.0712  0.1902
  897YOPE   GL112913   9.613  11.286   5.796 -0.2206 -0.2146 -0.2177
  897YOPE   GL212914   9.288  11.139   5.729  0.1590  0.0175 -0.0549
  897YOPE   C1A12915   9.576  11.323   6.233  0.0111  0.0457  0.0255
  897YOPE   D2A12916   9.530  11.483   6.617  0.3390 -0.1500  0.2509
  897YOPE   C3A12917   9.397  11.119   6.792 -0.2171  0.0654 -0.0258
  897YOPE   C4A12918   9.430  11.156   7.209 -0.0784 -0.1711 -0.3548
  897YOPE   C1B12919   9.097  10.906   6.008  0.0310  0.5272  0.0494
  897YOPE   C2B12920   9.063  10.879   6.523 -0.0028 -0.3710 -0.0448
  897YOPE   D3B12921   8.852  10.521   6.727 -0.1960  0.1832  0.2212
  897YOPE   C4B12922   8.385  10.520   6.742 -0.0485  0.1729  0.1564
  898YOPE   NH312923  18.938  13.592   5.531  0.1105  0.6441 -0.3600
  898YOPE   PO412924  18.676  13.930   5.356  0.2778  0.2030 -0.1177
  898YOPE   GL112925  18.715  14.183   5.727 -0.0251  0.1744 -0.1390
  898YOPE   GL212926  19.096  14.142   5.768 -0.2331  0.1266 -0.2364
  898YOPE   C1A12927  18.714  14.117   6.203  0.1290  0.0964 -0.0923
  898YOPE   D2A12928  18.736  13.834   6.547 -0.0168 -0.1614 -0.1053
  898YOPE   C3A12929  18.817  13.925   6.860 -0.2910 -0.0861 -0.0456
  898YOPE   C4A12930  19.035  14.169   7.096  0.1938  0.1259  0.4311
  898YOPE   C1B12931  19.132  14.361   6.205 -0.1160 -0.2141  0.0676
  898YOPE   C2B12932  19.162  14.200   6.624 -0.2385 -0.1958  0.2438
  898YOPE   D3B12933  19.549  14.058   6.860  0.2776 -0.1542  0.1058
  898YOPE   C4B12934  20.009  14.207   6.765  0.0625 -0.1676 -0.1017
  899YOPE   NH312935  16.210   5.462   4.887  0.3708  0.1129  0.0708
  899YOPE   PO412936  16.636   5.349   5.031 -0.3665 -0.0260  0.0470
  899YOPE   GL112937  16.621   5.462   5.459  0.0687  0.0106 -0.0144
  899YOPE   GL212938  16.637   5.244   5.658 -0.1327 -0.0715 -0.0097
  899YOPE   C1A12939  16.284   5.689   5.741 -0.0900 -0.2480 -0.0900
  899YOPE   D2A12940  15.859   5.644   5.673  0.0255  0.1682 -0.1995
  899YOPE   C3A12941  15.575   5.903   5.752 -0.0730  0.0641 -0.0212
  899YOPE   C4A12942  15.242   6.008   5.906 -0.4184 -0.1415 -0.3261
  899YOPE   C1B12943  16.476   5.339   6.067 -0.0044 -0.1965  0.1375
  899YOPE   C2B12944  16.296   5.719   6.306 -0.1243  0.2877  0.1997
  899YOPE   D3B12945  15.905   5.929   6.191 -0.2100 -0.1324 -0.0134
  899YOPE   C4B12946  15.605   6.089   6.315  0.1081  0.1455  0.1617
  900YOPE   NH312947  14.999  17.688   5.687 -0.0269 -0.0390  0.1957
  900YOPE   PO412948  15.038  18.177   5.761  0.2066 -0.1521 -0.3320
  900YOPE   GL112949  15.046  17.984   6.155 -0.2182 -0.0411  0.0260
  900YOPE   GL212950  15.343  18.145   6.251  0.2819  0.0750 -0.1117
  900YOPE   C1A12951  14.964  17.948   6.559  0.1367 -0.3760  0.2333
  900YOPE   D2A12952  14.968  18.158   7.053 -0.5111 -0.1268 -0.0740
  900YOPE   C3A12953  14.818  18.511   7.094  0.2872 -0.0954 -0.2539
  900YOPE   C4A12954  14.913  18.922   7.042 -0.2975 -0.1084 -0.3405
  900YOPE   C1B12955  15.396  18.040   6.728  0.0759  0.0744  0.0200
  900YOPE   C2B12956  15.494  17.850   7.051 -0.1117  0.3149  0.2354
  900YOPE   D3B12957  15.297  17.922   7.400  0.4351  0.1768  0.2859
  900YOPE   C4B12958  14.993  17.928   7.768 -0.1198 -0.0235 -0.2690
  901YOPE   NH312959   5.435  17.476   5.300 -0.0513 -0.0978 -0.0417
  901YOPE   PO412960   5.813  17.641   5.642  0.3508  0.1871  0.0889
  901YOPE   GL112961   5.809  17.630   6.053  0.0397  0.1464  0.0439
  901YOPE   GL212962   5.590  17.410   6.170  0.1182  0.1290 -0.0942
  901YOPE   C1A12963   5.999  17.672   6.490 -0.1898 -0.0973 -0.0415
  901YOPE   D2A12964   6.094  17.796   6.868 -0.2060 -0.3324 -0.0249
  901YOPE   C3A12965   6.176  18.210   6.951 -0.1124 -0.1122  0.1184
  901YOPE   C4A12966   6.070  18.605   7.006  0.3989  0.2380 -0.3358
  901YOPE   C1B12967   5.541  17.530   6.557 -0.0747 -0.2812 -0.2689
  901YOPE   C2B12968   5.570  17.674   6.923 -0.2488 -0.0990 -0.0687
  901YOPE   D3B12969   5.386  17.621   7.386  0.2291  0.1819 -0.2039
  901YOPE   C4B12970   5.396  17.449   7.719 -0.1229  0.1724 -0.2077
  902YOPE   NH312971  15.889  17.638   5.383  0.1683  0.0233 -0.1139
  902YOPE   PO412972  15.490  17.487   5.493  0.0767 -0.1953  0.1673
  902YOPE   GL112973  15.429  17.656   5.891 -0.1389  0.5147 -0.2851
  902YOPE   GL212974  15.623  17.790   6.044 -0.0143  0.2273 -0.0272
  902YOPE   C1A12975  15.363  17.627   6.389 -0.2461  0.0195  0.2494
  902YOPE   D2A12976  15.166  17.612   6.775 -0.5360 -0.0198  0.2924
  902YOPE   C3A12977  14.912  17.319   6.910 -0.1009 -0.1777 -0.2880
  902YOPE   C4A12978  14.970  17.050   7.253  0.2100 -0.1691  0.0271
  902YOPE   C1B12979  15.799  17.986   6.403 -0.0700 -0.0784  0.4205
  902YOPE   C2B12980  15.881  17.991   6.838 -0.0209  0.0801 -0.0992
  902YOPE   D3B12981  15.931  18.164   7.208 -0.0202  0.1778  0.2000
  902YOPE   C4B12982  15.842  18.264   7.636  0.3308 -0.0791  0.0584
  903YOPE   NH312983  18.946   7.762   5.340  0.3463  0.1656 -0.0339
  903YOPE   PO412984  18.609   7.821   5.517  0.0073 -0.1041  0.1442
  903YOPE   GL112985  18.537   7.737   5.910 -0.0726 -0.0172 -0.2943
  903YOPE   GL212986  18.220   7.705   5.965  0.0652  0.0750  0.0397
  903YOPE   C1A12987  18.604   7.782   6.361  0.2582  0.0442  0.2119
  903YOPE   D2A12988  18.661   7.784   6.762  0.0941  0.3930 -0.1345
  903YOPE   C3A12989  18.422   8.021   7.119 -0.1722  0.1649 -0.1675
  903YOPE   C4A12990  18.429   8.427   7.254  0.0122 -0.3607 -0.0102
  903YOPE   C1B12991  17.997   7.296   6.406  0.0302 -0.1662  0.0889
  903YOPE   C2B12992  18.000   6.937   6.615 -0.2663  0.3824  0.3567
  903YOPE   D3B12993  17.898   6.500   6.641  0.1129  0.1319 -0.3306
  903YOPE   C4B12994  17.681   6.152   6.416  0.0365 -0.0845 -0.1054
  904YOPE   NH312995   3.064  15.824   5.368 -0.1124  0.0048 -0.4497
  904YOPE   PO412996   2.864  16.188   5.467 -0.0824 -0.2188  0.1651
  904YOPE   GL112997   2.824  16.378   5.858 -0.0295 -0.1184 -0.0040
  904YOPE   GL212998   3.041  16.184   6.038  0.1217 -0.0379  0.2116
  904YOPE   C1A12999   2.753  16.645   6.193  0.1054  0.0431  0.0962
  904YOPE   D2A13000   2.850  16.782   6.593  0.1300 -0.1199  0.0829
  904YOPE   C3A13001   2.819  16.463   6.930 -0.0232 -0.3107 -0.0289
  904YOPE   C4A13002   3.062  16.063   7.101 -0.2651 -0.0937 -0.2192
  904YOPE   C1B13003   3.005  16.174   6.447 -0.3254 -0.1475  0.1141
  904YOPE   C2B13004   3.355  16.116   6.710  0.1097 -0.2029 -0.0664
  904YOPE   D3B13005   3.623  15.769   6.936 -0.3173 -0.1604  0.1426
  904YOPE   C4B13006   4.093  15.549   7.031  0.2100 -0.0002  0.0610
  905YOPE   NH313007   8.835   1.531   5.353 -0.2862  0.0727 -0.0942
  905YOPE   PO413008   8.801   1.961   5.122 -0.1563  0.2270 -0.0745
  905YOPE   GL113009   9.129   1.959   5.467 -0.1662 -0.1553  0.0372
  905YOPE   GL213010   9.513   2.066   5.404  0.1010 -0.0522 -0.2055
  905YOPE   C1A13011   9.180   2.009   5.923  0.1302  0.0119 -0.0884
  905YOPE   D2A13012   9.044   2.038   6.351  0.2406  0.1763 -0.0068
  905YOPE   C3A13013   9.091   2.007   6.819 -0.2874  0.0021  0.2516
  905YOPE   C4A13014   8.969   1.795   7.091 -0.0900  0.0530 -0.1352
  905YOPE   C1B13015   9.551   1.703   5.723  0.1326  0.1022  0.1308
  905YOPE   C2B13016   9.529   1.739   6.145  0.0331 -0.3261 -0.0233
  905YOPE   D3B13017   9.474   1.815   6.509 -0.0063  0.2692 -0.0956
  905YOPE   C4B13018   9.375   1.506   6.869  0.0863  0.0810  0.4581
  906YOPE   NH313019   4.127  15.015   5.436 -0.1217  0.0145 -0.1344
  906YOPE   PO413020   4.321  14.739   5.592 -0.0280  0.1632 -0.0820
  906YOPE   GL113021   4.070  14.533   5.713 -0.1162  0.0909 -0.0197
  906YOPE   GL213022   4.308  14.267   5.890  0.1819  0.0686  0.1277
  906YOPE   C1A13023   3.794  14.634   6.055 -0.2649 -0.1011  0.1720
  906YOPE   D2A13024   3.396  14.837   6.168  0.2760  0.1837  0.0890
  906YOPE   C3A13025   3.438  14.876   6.641  0.1775 -0.0551 -0.0453
  906YOPE   C4A13026   3.650  14.762   7.095 -0.0499  0.4954 -0.2166
  906YOPE   C1B13027   4.151  14.334   6.358  0.0034 -0.2959 -0.1359
  906YOPE   C2B13028   4.130  14.063   6.700  0.2169 -0.2790 -0.2385
  906YOPE   D3B13029   3.999  13.933   7.054  0.0660  0.0517 -0.2016
  906YOPE   C4B13030   3.767  14.028   7.484  0.0559  0.4575  0.0808
  907YOPE   NH313031  12.771   5.499   5.274 -0.0256  0.0033  0.1241
  907YOPE   PO413032  13.056   5.800   5.090 -0.0326 -0.0635 -0.1845
  907YOPE   GL113033  12.985   6.018   5.501 -0.5098 -0.1143  0.2302
  907YOPE   GL213034  12.673   5.953   5.497 -0.2071 -0.1309 -0.1699
  907YOPE   C1A13035  13.202   6.134   5.969 -0.0322 -0.0287 -0.0476
  907YOPE   D2A13036  13.383   6.505   6.083 -0.5646  0.0300  0.1481
  907YOPE   C3A13037  13.623   6.493   6.318  0.3042  0.1333  0.2052
  907YOPE   C4A13038  13.724   6.333   6.771  0.1602 -0.3072  0.0834
  907YOPE   C1B13039  12.853   5.755   5.884 -0.2605  0.0464  0.0319
  907YOPE   C2B13040  12.874   5.477   6.145 -0.1207  0.1018  0.1047
  907YOPE   D3B13041  12.820   5.426   6.523 -0.0246 -0.1095 -0.2712
  907YOPE   C4B13042  12.758   5.497   6.997  0.1629  0.2233 -0.2812
  908YOPE   NH313043   3.616   7.811   5.582  0.1002  0.0762 -0.1129
  908YOPE   PO413044   3.881   8.199   5.346 -0.2125  0.1951 -0.3544
  908YOPE   GL113045   3.936   8.180   5.810 -0.3471  0.0897  0.4737
  908YOPE   GL213046   3.702   8.314   5.853 -0.2134 -0.0259  0.0700
  908YOPE   C1A13047   4.062   8.086   6.251  0.2050  0.0029 -0.2084
  908YOPE   D2A13048   3.977   7.928   6.565  0.1531 -0.1521  0.2180
  908YOPE   C3A13049   4.229   8.139   6.884 -0.0125  0.1673  0.3729
  908YOPE   C4A13050   4.294   8.459   7.074  0.1937 -0.1642  0.0970
  908YOPE   C1B13051   3.649   8.463   6.222  0.1197 -0.1731 -0.3774
  908YOPE   C2B13052   3.773   8.413   6.731 -0.0147  0.0706  0.0777
  908YOPE   D3B13053   3.797   8.241   7.081 -0.1262  0.3540 -0.3014
  908YOPE   C4B13054   3.928   8.348   7.475  0.1639  0.0246  0.1046
  909YOPE   NH313055   1.326   0.409   5.666 -0.1111  0.0038  0.1511
  909YOPE   PO413056   1.257  -0.053   5.705 -0.1075 -0.0494  0.2474
  909YOPE   GL113057   1.297  -0.030   6.130 -0.0381  0.0047 -0.1493
  909YOPE   GL213058   1.540   0.162   6.114 -0.0745  0.3788  0.0237
  909YOPE   C1A13059   1.210  -0.164   6.594 -0.0015  0.2047 -0.5454
  909YOPE   D2A13060   1.507  -0.231   7.053  0.0102  0.2315 -0.1311
  909YOPE   C3A13061   1.302  -0.412   7.417  0.1344  0.0832  0.1156
  909YOPE   C4A13062   1.352  -0.141   7.660 -0.3569 -0.0722 -0.0625
  909YOPE   C1B13063   1.674  -0.046   6.510  0.1387 -0.1843  0.0858
  909YOPE   C2B13064   1.943  -0.246   6.817 -0.1951  0.1414  0.0463
  909YOPE   D3B13065   2.024  -0.400   7.307  0.1085  0.0763  0.1882
  909YOPE   C4B13066   2.204  -0.390   7.606  0.0488  0.0363 -0.1146
  910YOPE   NH313067   4.813   3.520   4.922 -0.0603 -0.2911  0.1285
  910YOPE   PO413068   5.191   3.789   5.080  0.0813 -0.1941  0.1271
  910YOPE   GL113069   5.545   3.964   5.114 -0.1166  0.1109 -0.2014
  910YOPE   GL213070   5.688   3.641   5.178  0.1026 -0.0339  0.2492
  910YOPE   C1A13071   5.957   4.206   5.338  0.2168  0.0994 -0.2425
  910YOPE   D2A13072   5.991   4.218   5.681  0.0241  0.0230 -0.0179
  910YOPE   C3A13073   5.828   4.090   6.071  0.4748  0.0016 -0.1964
  910YOPE   C4A13074   5.599   3.735   6.167 -0.2304 -0.0989  0.2767
  910YOPE   C1B13075   5.540   3.873   5.636 -0.0081  0.1030  0.1846
  910YOPE   C2B13076   5.210   4.060   5.858  0.2899 -0.2453  0.4346
  910YOPE   D3B13077   5.229   4.378   6.191 -0.1627 -0.1015 -0.2541
  910YOPE   C4B13078   5.138   4.541   6.662 -0.0511  0.1514 -0.0827
  911YOPE   NH313079   0.850  12.325   5.356 -0.1185 -0.0232  0.0130
  911YOPE   PO413080   1.252  12.031   5.315  0.2744 -0.1761  0.0733
  911YOPE   GL113081   1.254  11.988   5.693 -0.0369 -0.1518 -0.1166
  911YOPE   GL213082   0.904  11.964   5.692  0.1357  0.0164  0.1243
  911YOPE   C1A13083   1.169  11.904   6.099 -0.1040 -0.0275  0.2401
  911YOPE   D2A13084   0.845  11.879   6.588 -0.1734  0.0882  0.5609
  911YOPE   C3A13085   0.918  11.879   7.018 -0.2044  0.2499 -0.1846
  911YOPE   C4A13086   0.871  11.946   7.608  0.4014  0.1657  0.2613
  911YOPE   C1B13087   0.772  11.632   6.114 -0.7340 -0.2589  0.1413
  911YOPE   C2B13088   0.433  11.575   6.417 -0.0743  0.2386 -0.1154
  911YOPE   D3B13089   0.212  11.420   6.776  0.1260 -0.0557  0.1884
  911YOPE   C4B13090   0.095  11.413   7.190 -0.3199 -0.1501 -0.0969
  912YOPE   NH313091   8.757   7.158   4.749 -0.0004  0.0244  0.1271
  912YOPE   PO413092   8.563   6.901   5.095 -0.1810  0.1953  0.2592
  912YOPE   GL113093   8.611   7.106   5.361 -0.1636  0.1128 -0.0223
  912YOPE   GL213094   8.844   7.326   5.248  0.0474  0.5114 -0.1728
  912YOPE   C1A13095   8.538   7.109   5.778 -0.4779 -0.0837 -0.3982
  912YOPE   D2A13096   8.470   6.965   6.186 -0.1239 -0.1418  0.0672
  912YOPE   C3A13097   8.750   6.707   6.486  0.1604 -0.1088 -0.2921
  912YOPE   C4A13098   9.201   6.542   6.527 -0.2338 -0.0339  0.1079
  912YOPE   C1B13099   8.958   7.395   5.672  0.2360  0.1467  0.1234
  912YOPE   C2B13100   8.786   7.462   6.056  0.0848 -0.0036  0.0402
  912YOPE   D3B13101   8.652   7.308   6.438 -0.0401  0.1288 -0.0100
  912YOPE   C4B13102   8.387   7.318   6.838 -0.1193  0.0670  0.1032
  913YOPE   NH313103   7.378   3.263   5.294 -0.0200 -0.0691  0.1335
  913YOPE   PO413104   6.986   3.359   5.107 -0.2639  0.0934  0.1480
  913YOPE   GL113105   6.817   3.347   5.449 -0.1077 -0.0754  0.0560
  913YOPE   GL213106   6.899   3.597   5.631  0.1692  0.4268 -0.1503
  913YOPE   C1A13107   6.863   3.140   5.839  0.2261 -0.0712 -0.1797
  913YOPE   D2A13108   6.939   2.994   6.270  0.2872  0.1757 -0.1304
  913YOPE   C3A13109   6.576   3.036   6.497 -0.1306  0.1368 -0.3442
  913YOPE   C4A13110   6.184   3.102   6.601 -0.0856  0.0371  0.2031
  913YOPE   C1B13111   6.901   3.606   6.140 -0.1359 -0.0752  0.1774
  913YOPE   C2B13112   6.603   3.599   6.394  0.1876  0.1493  0.1128
  913YOPE   D3B13113   6.490   3.652   6.772 -0.2244 -0.0885  0.1092
  913YOPE   C4B13114   6.225   3.841   7.113 -0.1818 -0.0636 -0.2616
  914YOPE   NH313115  14.097   0.911   5.154  0.2781 -0.0072  0.1793
  914YOPE   PO413116  13.704   1.014   5.194  0.0039  0.4746  0.0385
  914YOPE   GL113117  13.751   1.176   5.613 -0.3109 -0.0689  0.1496
  914YOPE   GL213118  14.012   0.885   5.690 -0.0211  0.2486  0.1242
  914YOPE   C1A13119  13.918   1.368   6.012 -0.1605  0.0746 -0.1214
  914YOPE   D2A13120  14.026   1.481   6.475  0.0680  0.1721  0.1186
  914YOPE   C3A13121  13.951   1.668   6.749 -0.1935  0.2718  0.4660
  914YOPE   C4A13122  13.809   1.994   7.073 -0.2255 -0.0649 -0.1787
  914YOPE   C1B13123  13.919   0.877   6.097 -0.0942  0.0199 -0.0273
  914YOPE   C2B13124  13.923   1.024   6.495 -0.1563  0.0845 -0.0009
  914YOPE   D3B13125  14.025   1.202   6.953  0.0282 -0.0800 -0.2536
  914YOPE   C4B13126  14.043   1.061   7.271 -0.3941  0.0718 -0.0699
  915YOPE   NH313127   3.304   9.359   5.388  0.1867 -0.0904 -0.3284
  915YOPE   PO413128   2.933   9.486   5.553  0.1821  0.0496  0.2481
  915YOPE   GL113129   3.081   9.725   5.848 -0.0785 -0.0886  0.1191
  915YOPE   GL213130   3.432   9.614   5.799  0.1039 -0.1158 -0.0856
  915YOPE   C1A13131   3.249   9.728   6.274  0.1398 -0.3057 -0.2593
  915YOPE   D2A13132   3.369   9.945   6.790 -0.2834  0.1340  0.1862
  915YOPE   C3A13133   3.368  10.445   6.713 -0.3811  0.2226  0.0324
  915YOPE   C4A13134   3.168  10.731   6.905  0.3321 -0.2336 -0.0510
  915YOPE   C1B13135   3.655   9.922   5.934  0.0475  0.1716  0.3187
  915YOPE   C2B13136   3.856  10.283   5.853 -0.1690  0.0855  0.0013
  915YOPE   D3B13137   4.196  10.530   5.832 -0.0906 -0.2282 -0.0753
  915YOPE   C4B13138   4.604  10.631   5.709 -0.0184  0.1354 -0.0486
  916YOPE   NH313139  12.069  13.605   5.537 -0.1246 -0.2494  0.0593
  916YOPE   PO413140  12.408  13.352   5.575 -0.1499  0.0740  0.1053
  916YOPE   GL113141  12.234  13.207   6.031 -0.6465  0.0442 -0.1454
  916YOPE   GL213142  12.213  13.060   6.301  0.1116  0.0348  0.3981
  916YOPE   C1A13143  12.335  13.470   6.496  0.2792  0.2631 -0.2960
  916YOPE   D2A13144  12.397  13.706   6.869  0.2647  0.0299 -0.2041
  916YOPE   C3A13145  12.804  13.742   7.072 -0.4057  0.0624 -0.0901
  916YOPE   C4A13146  13.176  13.558   7.180  0.0105  0.1823  0.0924
  916YOPE   C1B13147  12.190  12.634   6.425  0.4289 -0.1933 -0.1356
  916YOPE   C2B13148  12.412  12.658   6.882  0.2057  0.1444  0.0634
  916YOPE   D3B13149  12.688  12.760   7.261  0.1287  0.1554  0.1014
  916YOPE   C4B13150  12.841  12.870   7.683  0.0071 -0.1241  0.0709
  917YOPE   NH313151  11.609   5.489   4.352  0.0136 -0.3038  0.2009
  917YOPE   PO413152  11.622   5.280   4.700  0.1430 -0.0997  0.0508
  917YOPE   GL113153  11.523   5.129   5.261  0.0185  0.1265 -0.1605
  917YOPE   GL213154  11.509   5.422   5.422  0.1557 -0.2094 -0.1033
  917YOPE   C1A13155  11.618   4.928   5.690  0.3280 -0.4142  0.1350
  917YOPE   D2A13156  11.677   4.737   6.045 -0.0181 -0.1548 -0.1623
  917YOPE   C3A13157  11.560   4.365   6.238  0.2168  0.0176 -0.1202
  917YOPE   C4A13158  11.215   4.156   6.493 -0.0252 -0.1254  0.0546
  917YOPE   C1B13159  11.401   5.375   5.815 -0.1423 -0.1353 -0.1927
  917YOPE   C2B13160  11.232   5.014   6.067  0.2696 -0.3182 -0.1059
  917YOPE   D3B13161  11.200   4.563   5.833  0.1047 -0.0850 -0.0143
  917YOPE   C4B13162  11.200   4.212   5.940  0.0535  0.3705 -0.1740
  918YOPE   NH313163  18.286   6.381   5.345 -0.0524 -0.2644  0.1877
  918YOPE   PO413164  18.750   6.549   5.492 -0.2281 -0.0957  0.0195
  918YOPE   GL113165  19.016   6.456   5.929  0.1441  0.2257  0.2981
  918YOPE   GL213166  19.177   6.654   5.873 -0.1925  0.1299 -0.1569
  918YOPE   C1A13167  19.155   6.504   6.369  0.3423  0.2294  0.3512
  918YOPE   D2A13168  19.401   6.289   6.618  0.2785 -0.1757 -0.2517
  918YOPE   C3A13169  19.675   6.342   7.038 -0.0997  0.0465  0.0324
  918YOPE   C4A13170  19.720   6.536   7.404  0.3116  0.1521 -0.2545
  918YOPE   C1B13171  19.358   6.961   6.229  0.1392  0.0573  0.3050
  918YOPE   C2B13172  19.210   7.079   6.607 -0.2515 -0.2608  0.0975
  918YOPE   D3B13173  18.968   6.841   6.750 -0.0534 -0.0375  0.0646
  918YOPE   C4B13174  18.869   6.461   6.745  0.0196  0.2767 -0.1445
  919YOPE   NH313175   5.039   2.605   5.314 -0.0320 -0.0619  0.0010
  919YOPE   PO413176   4.703   2.838   5.097 -0.0402  0.3328  0.1094
  919YOPE   GL113177   4.722   2.928   5.529 -0.1696 -0.1313  0.1294
  919YOPE   GL213178   4.579   2.660   5.684 -0.4288 -0.3832 -0.0672
  919YOPE   C1A13179   4.738   3.095   5.984  0.4442 -0.0075  0.2968
  919YOPE   D2A13180   5.012   3.354   6.171  0.0763 -0.0947  0.2273
  919YOPE   C3A13181   5.102   3.799   6.251 -0.0984  0.0359  0.3011
  919YOPE   C4A13182   5.478   4.036   6.529 -0.1393  0.0411  0.0866
  919YOPE   C1B13183   4.307   2.888   5.829 -0.1775  0.3349 -0.4497
  919YOPE   C2B13184   4.199   2.615   6.318 -0.1176  0.0831  0.2831
  919YOPE   D3B13185   4.097   2.664   6.790  0.1304 -0.4682  0.1289
  919YOPE   C4B13186   4.121   2.610   7.276  0.1253  0.0967  0.1717
  920YOPE   NH313187  12.021   9.832   5.183 -0.0424 -0.0706  0.0035
  920YOPE   PO413188  12.177  10.161   5.296  0.1225  0.0362  0.0889
  920YOPE   GL113189  12.352  10.004   5.640 -0.3894  0.1603  0.0624
  920YOPE   GL213190  12.614   9.860   5.667 -0.6042 -0.2201 -0.0202
  920YOPE   C1A13191  12.271  10.195   6.027  0.0398 -0.1780 -0.1860
  920YOPE   D2A13192  11.952  10.501   6.094  0.1413  0.4209 -0.7022
  920YOPE   C3A13193  11.808  10.747   6.334 -0.4027  0.1521  0.1737
  920YOPE   C4A13194  11.511  10.852   6.731 -0.2389  0.0339 -0.0472
  920YOPE   C1B13195  12.679   9.870   6.128  0.3216 -0.0953  0.0361
  920YOPE   C2B13196  12.484   9.945   6.605  0.0006  0.1743  0.2039
  920YOPE   D3B13197  12.576  10.107   6.949  0.0401 -0.1844 -0.0059
  920YOPE   C4B13198  12.245  10.196   7.156 -0.0829  0.1492  0.0262
  921YOPE   NH313199  18.890   0.456   5.801  0.3630 -0.0109 -0.2580
  921YOPE   PO413200  19.000   0.781   5.499  0.1320  0.1713 -0.0133
  921YOPE   GL113201  19.241   0.882   5.870  0.1863  0.3864 -0.1043
  921YOPE   GL213202  19.527   0.668   5.893  0.1076  0.0263 -0.0702
  921YOPE   C1A13203  19.320   0.933   6.270 -0.1661  0.0961  0.0196
  921YOPE   D2A13204  19.395   1.238   6.610 -0.1151 -0.3585  0.0386
  921YOPE   C3A13205  19.542   1.197   7.008 -0.4496  0.1265  0.0561
  921YOPE   C4A13206  19.322   1.215   7.432 -0.1489  0.1596 -0.2735
  921YOPE   C1B13207  19.617   0.385   6.339 -0.1527  0.0067 -0.2068
  921YOPE   C2B13208  19.777   0.013   6.534 -0.1893  0.0547 -0.1768
  921YOPE   D3B13209  20.029  -0.112   6.839 -0.2241 -0.0492 -0.0215
  921YOPE   C4B13210  20.339  -0.464   6.935 -0.2737  0.0014  0.0718
  922YOPE   NH313211  12.736   2.714   5.146 -0.2481  0.2229 -0.1117
  922YOPE   PO413212  13.164   2.989   5.020 -0.2418 -0.2030  0.0304
  922YOPE   GL113213  13.281   2.815   5.273  0.1484  0.1203 -0.1943
  922YOPE   GL213214  13.277   3.121   5.508  0.0390  0.0870  0.0917
  922YOPE   C1A13215  13.056   2.725   5.679 -0.0025 -0.1711 -0.2536
  922YOPE   D2A13216  13.116   2.670   6.128 -0.0003 -0.3899 -0.0499
  922YOPE   C3A13217  12.787   2.645   6.477  0.1023  0.1865 -0.1602
  922YOPE   C4A13218  12.738   2.779   6.860  0.0868 -0.0584  0.0964
  922YOPE   C1B13219  13.386   3.114   5.912 -0.1458 -0.3236 -0.1138
  922YOPE   C2B13220  13.284   3.209   6.304  0.0977 -0.0325  0.1548
  922YOPE   D3B13221  13.161   3.254   6.746  0.1748  0.2307 -0.0713
  922YOPE   C4B13222  13.169   2.941   7.103 -0.1502  0.0083 -0.0270
  923YOPE   NH313223  18.676   2.637   5.730 -0.0468 -0.2055  0.0776
  923YOPE   PO413224  18.264   2.677   5.681  0.4165  0.1605 -0.1928
  923YOPE   GL113225  18.171   2.895   6.039 -0.1839  0.0521 -0.0212
  923YOPE   GL213226  18.485   2.975   6.193  0.1585  0.2446  0.1766
  923YOPE   C1A13227  18.086   2.745   6.464  0.1659  0.0853  0.0967
  923YOPE   D2A13228  17.735   2.568   6.643  0.1081  0.3379 -0.2795
  923YOPE   C3A13229  17.511   2.674   6.964 -0.3322  0.0702  0.1504
  923YOPE   C4A13230  17.311   2.841   7.278 -0.0537 -0.4100 -0.1537
  923YOPE   C1B13231  18.466   2.917   6.628 -0.3572 -0.1719  0.1815
  923YOPE   C2B13232  18.653   2.745   6.933 -0.0310  0.3356 -0.1982
  923YOPE   D3B13233  18.393   2.854   7.306  0.2224  0.2626  0.2532
  923YOPE   C4B13234  18.303   2.614   7.658 -0.1567 -0.0619 -0.1593
  924YOPE   NH313235  17.837  14.325   5.302 -0.0280 -0.0603 -0.3264
  924YOPE   PO413236  17.771  14.282   5.777  0.0079 -0.2596  0.0133
  924YOPE   GL113237  17.641  14.482   6.193  0.0667 -0.0866  0.4117
  924YOPE   GL213238  17.639  14.794   6.011 -0.1518  0.2051  0.1344
  924YOPE   C1A13239  17.614  14.309   6.555  0.1648 -0.2308 -0.2409
  924YOPE   D2A13240  17.631  14.462   6.951 -0.2639  0.4034 -0.1531
  924YOPE   C3A13241  17.938  14.689   7.027  0.2141  0.0793 -0.0498
  924YOPE   C4A13242  18.134  14.878   7.391  0.1013 -0.0144 -0.0182
  924YOPE   C1B13243  17.393  14.829   6.456  0.0228  0.0980  0.1573
  924YOPE   C2B13244  17.410  14.979   6.826  0.0447 -0.0827  0.0356
  924YOPE   D3B13245  17.099  15.114   7.114 -0.0940  0.1689 -0.0400
  924YOPE   C4B13246  17.124  15.011   7.548 -0.1013 -0.0372 -0.0628
  925YOPE   NH313247   1.526  16.212   5.503 -0.3217  0.2017  0.0769
  925YOPE   PO413248   1.166  16.551   5.628  0.1133 -0.2696  0.2445
  925YOPE   GL113249   1.053  16.705   6.073 -0.0264 -0.3466  0.1079
  925YOPE   GL213250   1.019  16.927   5.989  0.0384 -0.2029  0.0036
  925YOPE   C1A13251   1.076  16.506   6.440  0.0474 -0.2008  0.0974
  925YOPE   D2A13252   1.384  16.226   6.589  0.0941 -0.1289 -0.2146
  925YOPE   C3A13253   1.304  16.486   7.034 -0.1040  0.3465  0.0749
  925YOPE   C4A13254   1.445  16.662   7.434 -0.1911 -0.0676 -0.0988
  925YOPE   C1B13255   0.905  17.164   6.363  0.2541 -0.1068 -0.0381
  925YOPE   C2B13256   0.813  17.411   6.723 -0.0899 -0.1448 -0.0424
  925YOPE   D3B13257   0.740  17.674   7.176  0.2049  0.0799 -0.0776
  925YOPE   C4B13258   0.494  17.966   7.437  0.0972  0.1622 -0.1943
  926YOPE   NH313259   9.049  14.289   5.358  0.0216 -0.0341  0.5760
  926YOPE   PO413260   9.549  14.371   5.517  0.1209 -0.3501  0.0928
  926YOPE   GL113261   9.608  14.300   5.935 -0.0935 -0.2066  0.2238
  926YOPE   GL213262   9.867  14.082   5.863 -0.3779  0.1472 -0.1597
  926YOPE   C1A13263   9.557  14.209   6.455 -0.0353 -0.1802 -0.0309
  926YOPE   D2A13264   9.828  14.165   6.783 -0.0302  0.0820  0.2250
  926YOPE   C3A13265   9.972  13.727   7.080  0.2636 -0.0168 -0.2816
  926YOPE   C4A13266  10.009  13.274   7.282  0.1519  0.2697  0.0465
  926YOPE   C1B13267  10.025  14.327   6.212 -0.0761  0.3160 -0.3140
  926YOPE   C2B13268  10.117  14.533   6.650  0.1260  0.4408 -0.0154
  926YOPE   D3B13269  10.142  14.638   6.959 -0.1554  0.2487  0.2378
  926YOPE   C4B13270   9.882  14.725   7.295  0.0394  0.0454 -0.2512
  927YOPE   NH313271  12.738  13.265   5.903  0.2966  0.0324  0.1593
  927YOPE   PO413272  13.174  13.217   6.167 -0.2866 -0.1872  0.1294
  927YOPE   GL113273  13.370  13.306   6.500 -0.0428 -0.1379  0.0971
  927YOPE   GL213274  13.157  13.505   6.616 -0.1610  0.3689  0.2476
  927YOPE   C1A13275  13.241  13.071   6.885 -0.1605  0.0950 -0.0176
  927YOPE   D2A13276  13.181  13.056   7.260 -0.0639  0.2426 -0.1764
  927YOPE   C3A13277  13.193  12.610   7.358 -0.1015 -0.0178 -0.0885
  927YOPE   C4A13278  13.077  12.081   7.446 -0.2434 -0.1816 -0.1244
  927YOPE   C1B13279  12.898  13.808   6.529 -0.1257 -0.2008  0.2852
  927YOPE   C2B13280  12.761  14.123   6.735 -0.4536  0.0583  0.0304
  927YOPE   D3B13281  12.790  14.253   7.111 -0.0379 -0.1578  0.3935
  927YOPE   C4B13282  12.828  14.301   7.581  0.2555  0.1980  0.3382
  928YOPE   NH313283   7.141  14.565   5.415  0.0226  0.0741  0.0658
  928YOPE   PO413284   7.009  14.098   5.478  0.0271  0.2715  0.0926
  928YOPE   GL113285   6.740  14.281   5.822 -0.2611  0.1151  0.1663
  928YOPE   GL213286   6.820  14.037   6.103  0.0645  0.0559 -0.0055
  928YOPE   C1A13287   6.519  14.475   6.263 -0.2677 -0.2874 -0.0225
  928YOPE   D2A13288   6.292  14.363   6.552 -0.0823 -0.0566 -0.0556
  928YOPE   C3A13289   6.299  14.364   7.015 -0.1217 -0.0293 -0.1436
  928YOPE   C4A13290   6.395  14.392   7.444  0.1568  0.0812 -0.1941
  928YOPE   C1B13291   6.968  13.591   6.284 -0.1305  0.0686  0.0868
  928YOPE   C2B13292   7.364  13.488   6.312  0.1345  0.2984 -0.2989
  928YOPE   D3B13293   7.551  13.420   6.600 -0.0652 -0.1413 -0.0349
  928YOPE   C4B13294   7.791  13.055   6.833 -0.1627 -0.2747  0.2860
  929YOPE   NH313295  12.946  10.225   4.868  0.1538 -0.0629  0.0809
  929YOPE   PO413296  12.909  10.164   5.400  0.3444 -0.2629 -0.2339
  929YOPE   GL113297  12.991  10.401   5.725 -0.0481 -0.1340  0.3220
  929YOPE   GL213298  13.297  10.335   5.752 -0.3047 -0.0476 -0.2378
  929YOPE   C1A13299  12.868  10.396   6.061 -0.2049  0.0299 -0.0717
  929YOPE   D2A13300  12.885  10.227   6.407 -0.1486 -0.2577 -0.3303
  929YOPE   C3A13301  12.862  10.501   6.718 -0.0443  0.0316  0.1142
  929YOPE   C4A13302  12.748  10.565   7.170  0.0580  0.0268  0.1179
  929YOPE   C1B13303  13.204   9.949   5.995  0.1518 -0.0736  0.1885
  929YOPE   C2B13304  13.445   9.715   6.209 -0.1113  0.1997 -0.4273
  929YOPE   D3B13305  13.401   9.588   6.644  0.1932 -0.0227 -0.1541
  929YOPE   C4B13306  13.459   9.718   7.004  0.1045  0.0938 -0.1648
  930YOPE   NH313307  13.145  14.836   4.947 -0.1069 -0.3676 -0.1397
  930YOPE   PO413308  13.188  14.639   5.447 -0.2311  0.1909  0.0741
  930YOPE   GL113309  13.142  14.826   5.923  0.0022 -0.0683  0.0290
  930YOPE   GL213310  12.838  14.680   6.112  0.0827 -0.1904  0.0039
  930YOPE   C1A13311  13.223  14.964   6.335  0.0036  0.0441  0.0123
  930YOPE   D2A13312  13.104  15.160   6.736 -0.0517  0.1146  0.2546
  930YOPE   C3A13313  13.297  15.183   7.143  0.0947  0.0646  0.2618
  930YOPE   C4A13314  13.660  15.319   7.451 -0.2068 -0.0838  0.0041
  930YOPE   C1B13315  12.754  14.553   6.454 -0.2945 -0.1306  0.0662
  930YOPE   C2B13316  13.003  14.650   6.886 -0.3070  0.0209  0.0078
  930YOPE   D3B13317  13.002  14.700   7.362  0.1031 -0.2623  0.0714
  930YOPE   C4B13318  13.078  14.586   7.853  0.1971  0.1439  0.0373
  931YOPE   NH313319  12.047   0.496   4.880 -0.1031  0.1106 -0.0837
  931YOPE   PO413320  12.063   0.486   5.257  0.1511  0.0963  0.2401
  931YOPE   GL113321  11.981   0.652   5.733  0.0505 -0.1605 -0.0521
  931YOPE   GL213322  11.901   0.951   5.905 -0.1496  0.1671 -0.1293
  931YOPE   C1A13323  11.998   0.368   6.121 -0.1192  0.2635 -0.1627
  931YOPE   D2A13324  12.243   0.172   6.486 -0.1928 -0.1392  0.3959
  931YOPE   C3A13325  12.363   0.325   6.925 -0.1660 -0.2080 -0.4607
  931YOPE   C4A13326  12.763   0.326   7.126 -0.2084  0.1045  0.0431
  931YOPE   C1B13327  11.924   1.233   6.231 -0.0865  0.2715 -0.0740
  931YOPE   C2B13328  12.093   1.438   6.615 -0.1933 -0.1485 -0.2759
  931YOPE   D3B13329  12.043   1.685   6.982 -0.2045  0.3283 -0.0478
  931YOPE   C4B13330  12.177   1.992   7.035 -0.1354  0.2256  0.2576
  932YOPE   NH313331  10.912   1.975   5.251 -0.0437  0.0806 -0.2388
  932YOPE   PO413332  11.264   2.019   5.134  0.1951 -0.1430 -0.0459
  932YOPE   GL113333  11.252   2.267   5.538 -0.2751 -0.1962  0.1154
  932YOPE   GL213334  11.299   2.063   5.755  0.1196  0.0728  0.1998
  932YOPE   C1A13335  11.202   2.556   5.942  0.0337  0.3540 -0.0610
  932YOPE   D2A13336  11.307   2.736   6.416 -0.2374 -0.2664 -0.1113
  932YOPE   C3A13337  11.029   2.654   6.770 -0.0509 -0.0909 -0.0096
  932YOPE   C4A13338  11.175   2.487   7.049 -0.2528 -0.0911 -0.0719
  932YOPE   C1B13339  11.696   2.388   5.795 -0.1642  0.0825  0.2347
  932YOPE   C2B13340  11.735   2.684   5.855  0.1914  0.0401  0.1117
  932YOPE   D3B13341  11.803   2.861   6.265 -0.0039  0.2546 -0.0164
  932YOPE   C4B13342  11.855   2.939   6.781  0.3274 -0.0290  0.2782
  933YOPE   NH313343  11.819   6.010   5.159  0.3368 -0.0449 -0.3381
  933YOPE   PO413344  11.525   6.346   5.313 -0.1029 -0.2450  0.1435
  933YOPE   GL113345  11.683   6.204   5.672  0.2555  0.0935 -0.0273
  933YOPE   GL213346  12.032   5.988   5.653  0.0195  0.2332 -0.0355
  933YOPE   C1A13347  11.707   6.288   6.115  0.0341 -0.0523 -0.3632
  933YOPE   D2A13348  11.779   6.074   6.521 -0.3964  0.0215  0.1776
  933YOPE   C3A13349  12.223   6.278   6.642 -0.0657 -0.1990  0.0875
  933YOPE   C4A13350  12.502   6.571   6.310  0.1952 -0.1016  0.3285
  933YOPE   C1B13351  12.356   5.721   5.861  0.1972 -0.1074 -0.1242
  933YOPE   C2B13352  12.398   5.491   6.165 -0.1306 -0.1900 -0.1631
  933YOPE   D3B13353  12.060   5.336   6.269  0.2334  0.2621 -0.3885
  933YOPE   C4B13354  11.730   5.219   6.185  0.1350 -0.3190 -0.2250
  934YOPE   NH313355  12.725   1.045   5.449 -0.0460  0.2130 -0.0759
  934YOPE   PO413356  12.989   0.663   5.292 -0.2036 -0.0500 -0.0835
  934YOPE   GL113357  13.037   0.466   5.714 -0.2296 -0.0551  0.2345
  934YOPE   GL213358  12.943   0.725   5.812  0.1243  0.1575  0.0271
  934YOPE   C1A13359  13.237   0.517   6.158 -0.1149 -0.0819  0.2011
  934YOPE   D2A13360  13.189   0.810   6.534  0.0804 -0.1088  0.0172
  934YOPE   C3A13361  13.501   0.826   6.869 -0.2522 -0.0732  0.0276
  934YOPE   C4A13362  13.571   1.084   7.235 -0.2095 -0.2319 -0.0870
  934YOPE   C1B13363  12.904   1.036   6.141  0.0130  0.3719 -0.0208
  934YOPE   C2B13364  12.808   1.235   6.484 -0.3341  0.1189  0.1520
  934YOPE   D3B13365  12.569   1.256   6.821 -0.0882  0.1509 -0.0050
  934YOPE   C4B13366  12.357   1.241   7.074  0.4442 -0.1306 -0.2319
  935YOPE   NH313367   6.000  10.535   5.327 -0.2620  0.0759  0.1105
  935YOPE   PO413368   6.379  10.475   5.356 -0.1736  0.2308  0.0026
  935YOPE   GL113369   6.317  10.122   5.506 -0.1378 -0.2545 -0.0713
  935YOPE   GL213370   6.077  10.160   5.646  0.3947  0.1708 -0.0356
  935YOPE   C1A13371   6.450   9.717   5.756  0.2402  0.0083  0.3764
  935YOPE   D2A13372   6.532   9.631   6.049 -0.1399  0.3335 -0.0492
  935YOPE   C3A13373   6.582   9.407   6.477 -0.1803  0.2612  0.1014
  935YOPE   C4A13374   6.908   9.264   6.765  0.1786 -0.2166  0.0455
  935YOPE   C1B13375   6.126  10.000   6.029 -0.1638  0.1511 -0.0293
  935YOPE   C2B13376   6.128   9.800   6.344  0.3673  0.0762 -0.2330
  935YOPE   D3B13377   6.039   9.632   6.677  0.0851  0.0157  0.1050
  935YOPE   C4B13378   5.877   9.414   7.032 -0.3876 -0.0583  0.1791
  936YOPE   NH313379  11.107   6.347   4.655  0.0983  0.1412 -0.1852
  936YOPE   PO413380  10.686   6.434   4.700  0.0003  0.2366 -0.0334
  936YOPE   GL113381  10.253   6.478   4.926 -0.0844 -0.0384  0.0404
  936YOPE   GL213382  10.488   6.383   5.246  0.2600  0.1338  0.1736
  936YOPE   C1A13383   9.992   6.536   5.380 -0.0800 -0.0793 -0.3609
  936YOPE   D2A13384   9.620   6.648   5.663 -0.2704  0.1004 -0.0193
  936YOPE   C3A13385   9.349   7.053   5.684 -0.1602 -0.0117 -0.2070
  936YOPE   C4A13386   9.551   7.425   5.556 -0.0995 -0.1719 -0.1843
  936YOPE   C1B13387  10.723   6.498   5.600  0.0343 -0.0152 -0.0658
  936YOPE   C2B13388  10.774   6.675   6.015 -0.1361  0.3891  0.0248
  936YOPE   D3B13389  10.909   7.018   6.323  0.0855 -0.0664  0.4642
  936YOPE   C4B13390  11.244   7.312   6.374  0.0240  0.0142  0.5488
  937YOPE   NH313391  10.175  13.274   5.476  0.1594  0.0805 -0.0635
  937YOPE   PO413392  10.072  13.086   5.864 -0.3589 -0.0095 -0.0423
  937YOPE   GL113393  10.041  13.114   6.149  0.3943 -0.0285 -0.0278
  937YOPE   GL213394  10.071  13.327   6.296  0.2556 -0.1569  0.0090
  937YOPE   C1A13395  10.437  12.939   6.389  0.1117  0.0866  0.2897
  937YOPE   D2A13396  10.630  12.606   6.586  0.0358  0.1827  0.0763
  937YOPE   C3A13397  10.580  12.529   7.049 -0.1640  0.0843 -0.0811
  937YOPE   C4A13398  10.670  12.415   7.522  0.3568  0.3537  0.1900
  937YOPE   C1B13399  10.258  13.452   6.708 -0.1217 -0.2752 -0.3238
  937YOPE   C2B13400  10.430  13.526   7.143 -0.0705  0.0188 -0.1103
  937YOPE   D3B13401  10.857  13.503   7.483  0.0263 -0.0166 -0.1610
  937YOPE   C4B13402  11.107  13.327   7.815  0.1472 -0.1497  0.0238
  938YOPE   NH313403  17.573   9.800   5.215 -0.2201  0.2780  0.0474
  938YOPE   PO413404  17.167   9.915   5.051  0.2255 -0.4143 -0.2643
  938YOPE   GL113405  17.132   9.713   5.533  0.0351  0.2429  0.0371
  938YOPE   GL213406  17.308   9.795   5.814  0.2432 -0.0350  0.1400
  938YOPE   C1A13407  16.935   9.378   5.873  0.1794  0.0848  0.2039
  938YOPE   D2A13408  16.618   9.216   6.083 -0.0618 -0.2821  0.2642
  938YOPE   C3A13409  16.524   9.313   6.479 -0.1262  0.2543 -0.2807
  938YOPE   C4A13410  16.270   9.257   6.740 -0.0782 -0.2346 -0.1917
  938YOPE   C1B13411  17.447   9.998   6.171  0.0565  0.0630  0.1512
  938YOPE   C2B13412  17.353   9.980   6.601  0.2386  0.4561 -0.0549
  938YOPE   D3B13413  17.311   9.634   6.862  0.3001  0.0905 -0.1806
  938YOPE   C4B13414  17.256   9.454   7.292  0.2515 -0.0805  0.1462
  939YOPE   NH313415  12.222   3.393   5.277 -0.1542  0.0835 -0.0244
  939YOPE   PO413416  12.272   2.929   5.206 -0.0467  0.0369  0.4534
  939YOPE   GL113417  12.319   2.851   5.525  0.0073  0.2049  0.0784
  939YOPE   GL213418  12.054   3.086   5.661 -0.0642  0.1963 -0.1514
  939YOPE   C1A13419  12.206   2.391   5.797  0.2970 -0.1764  0.2185
  939YOPE   D2A13420  12.043   2.178   6.052 -0.0736 -0.0559 -0.2016
  939YOPE   C3A13421  12.109   2.353   6.409  0.3291 -0.2060 -0.2896
  939YOPE   C4A13422  12.129   2.534   6.792 -0.1280 -0.2261  0.0756
  939YOPE   C1B13423  12.178   3.261   6.030 -0.1316  0.0223 -0.2099
  939YOPE   C2B13424  12.138   3.326   6.488 -0.0752  0.2106 -0.2103
  939YOPE   D3B13425  12.177   3.440   6.961 -0.1377  0.3802  0.3670
  939YOPE   C4B13426  12.206   3.377   7.301  0.1690 -0.0836 -0.1331
  940YOPE   NH313427   6.327   9.074   4.966 -0.2310  0.1395 -0.1608
  940YOPE   PO413428   6.605   9.345   4.932  0.2668 -0.1273  0.1328
  940YOPE   GL113429   6.632   9.414   5.409 -0.1697  0.1782  0.1368
  940YOPE   GL213430   6.882   9.620   5.442  0.0074  0.4934  0.2979
  940YOPE   C1A13431   6.536   9.152   5.820  0.2046 -0.0131 -0.0980
  940YOPE   D2A13432   6.459   8.963   6.208 -0.1443  0.2060  0.0016
  940YOPE   C3A13433   6.511   8.505   6.232  0.0329  0.2341  0.0881
  940YOPE   C4A13434   6.800   8.210   6.250 -0.1245 -0.1105  0.0617
  940YOPE   C1B13435   6.966   9.826   5.789  0.1626  0.0594  0.1343
  940YOPE   C2B13436   7.178  10.057   6.226  0.4451  0.1511 -0.1004
  940YOPE   D3B13437   7.395  10.185   6.606  0.2006  0.1320  0.0960
  940YOPE   C4B13438   7.668  10.571   6.676  0.1349 -0.0174 -0.1511
  941POPC   NC313439   6.380   2.245   5.027  0.1465  0.0528  0.0120
  941POPC   PO413440   5.932   2.154   5.220 -0.1204 -0.1962  0.0868
  941POPC   GL113441   6.129   2.080   5.590  0.2825 -0.1050 -0.0038
  941POPC   GL213442   6.421   2.236   5.593  0.1820 -0.0271  0.2040
  941POPC   C1A13443   5.877   1.939   5.945 -0.0891  0.0522 -0.0082
  941POPC   D2A13444   5.590   1.696   6.134  0.2101 -0.2407  0.0326
  941POPC   C3A13445   5.743   1.393   6.560  0.0636 -0.0126 -0.4588
  941POPC   C4A13446   5.524   1.636   6.890  0.2692 -0.0170 -0.2161
  941POPC   C1B13447   6.262   2.286   6.072  0.0350 -0.0275  0.5005
  941POPC   C2B13448   5.862   2.154   6.374 -0.3794 -0.0488 -0.0566
  941POPC   C3B13449   5.562   2.468   6.659 -0.0711  0.0336  0.0473
  941POPC   C4B13450   5.418   2.760   7.023 -0.0778  0.1467 -0.1341
  942POPC   NC313451  10.492   4.093   5.312 -0.1035 -0.1077  0.3668
  942POPC   PO413452  10.031   4.031   5.355  0.2227  0.0745  0.0258
  942POPC   GL113453   9.845   4.329   5.649  0.2660  0.1276  0.1714
  942POPC   GL213454  10.035   4.260   5.935 -0.2306  0.0682  0.3750
  942POPC   C1A13455   9.632   4.537   5.973  0.1146  0.4380  0.2337
  942POPC   D2A13456   9.533   4.583   6.385 -0.2442 -0.1778  0.2030
  942POPC   C3A13457   9.201   4.631   6.674 -0.0377 -0.1168  0.3367
  942POPC   C4A13458   9.102   4.636   7.015  0.0487 -0.0736 -0.1493
  942POPC   C1B13459  10.277   4.534   6.168 -0.1324  0.0236  0.0976
  942POPC   C2B13460  10.480   4.607   6.554  0.4072 -0.1390  0.2540
  942POPC   C3B13461  10.746   4.690   6.835 -0.0487 -0.0324  0.0936
  942POPC   C4B13462  10.910   4.573   7.196 -0.0246 -0.0067  0.2938
  943POPC   NC313463   1.287  13.265   5.211  0.1150 -0.1026  0.0877
  943POPC   PO413464   1.216  13.543   5.565  0.2518  0.0330 -0.1174
  943POPC   GL113465   1.382  13.842   5.786 -0.2754 -0.3169 -0.2896
  943POPC   GL213466   1.635  14.031   5.811  0.3710  0.0464  0.0892
  943POPC   C1A13467   1.249  13.970   6.173 -0.0864  0.2552 -0.1494
  943POPC   D2A13468   0.967  13.913   6.463  0.0507  0.0775  0.0555
  943POPC   C3A13469   0.920  13.745   6.876 -0.1644  0.2549  0.0525
  943POPC   C4A13470   0.706  13.904   7.255 -0.0662  0.0910 -0.0119
  943POPC   C1B13471   1.746  13.791   6.204 -0.0115  0.0320 -0.3292
  943POPC   C2B13472   1.873  13.612   6.635  0.1242  0.1219 -0.1255
  943POPC   C3B13473   1.890  13.563   7.089  0.4798  0.0355 -0.2781
  943POPC   C4B13474   1.732  13.431   7.458 -0.0915  0.1274 -0.2584
  944POPC   NC313475  13.710   6.033   5.294  0.1517 -0.1048  0.0280
  944POPC   PO413476  13.746   6.496   5.282 -0.1979  0.0940  0.2155
  944POPC   GL113477  13.913   6.798   5.567 -0.3245 -0.1482 -0.1306
  944POPC   GL213478  13.814   6.647   5.814  0.0114 -0.1233  0.0016
  944POPC   C1A13479  13.951   7.236   5.746  0.2249 -0.0148  0.2334
  944POPC   D2A13480  14.370   7.413   5.866 -0.1285 -0.1025  0.0827
  944POPC   C3A13481  14.455   7.594   6.201 -0.0152 -0.0479 -0.1654
  944POPC   C4A13482  14.559   7.836   6.573 -0.0927  0.0615 -0.1436
  944POPC   C1B13483  13.706   7.020   6.110  0.2417 -0.3337  0.1259
  944POPC   C2B13484  13.884   7.394   6.241  0.5439  0.1237 -0.1025
  944POPC   C3B13485  14.145   7.539   6.633  0.0516  0.4010  0.0116
  944POPC   C4B13486  14.336   7.537   7.016 -0.0010 -0.1203 -0.2411
  945POPC   NC313487  16.000   8.675   5.077  0.1421  0.2724  0.1116
  945POPC   PO413488  16.219   8.255   5.324 -0.0140  0.1058 -0.1330
  945POPC   GL113489  16.224   8.241   5.729  0.1961  0.0965  0.3197
  945POPC   GL213490  15.975   8.466   5.934  0.2090  0.0248 -0.1242
  945POPC   C1A13491  16.378   8.240   6.190 -0.2311 -0.3723  0.1078
  945POPC   D2A13492  16.359   8.286   6.631 -0.5019  0.5163 -0.3126
  945POPC   C3A13493  16.007   8.046   6.775  0.0070  0.4374 -0.1578
  945POPC   C4A13494  15.823   7.949   7.126  0.1970  0.2549 -0.0816
  945POPC   C1B13495  15.928   8.291   6.347  0.1311 -0.1288 -0.1451
  945POPC   C2B13496  15.793   8.477   6.671 -0.1660  0.1118 -0.1775
  945POPC   C3B13497  15.602   8.445   7.090  0.3884 -0.1956  0.0551
  945POPC   C4B13498  15.259   8.813   7.132 -0.0932 -0.3451  0.0013
  946POPC   NC313499  13.557   7.449   4.639 -0.4078  0.0056  0.1240
  946POPC   PO413500  13.386   7.375   5.054  0.2845  0.0814  0.0159
  946POPC   GL113501  13.517   7.256   5.527  0.1242  0.0039 -0.3683
  946POPC   GL213502  13.258   6.989   5.679  0.1402 -0.3133  0.1423
  946POPC   C1A13503  13.531   7.583   5.846 -0.1682 -0.1680 -0.0756
  946POPC   D2A13504  13.314   7.918   6.010 -0.0555 -0.1993  0.0061
  946POPC   C3A13505  13.049   8.080   5.992  0.1534  0.1174 -0.0090
  946POPC   C4A13506  12.781   8.350   5.826  0.0655  0.0321 -0.0461
  946POPC   C1B13507  13.117   7.040   6.102 -0.1787  0.3455  0.0283
  946POPC   C2B13508  13.265   7.008   6.525 -0.1081  0.1233 -0.1521
  946POPC   C3B13509  13.421   6.755   6.747  0.2137  0.1807 -0.1206
  946POPC   C4B13510  13.650   6.751   7.075  0.2553 -0.0496 -0.0005
  947POPC   NC313511   4.365   5.725   5.063  0.0945 -0.2280  0.0365
  947POPC   PO413512   4.606   6.018   5.248  0.2586 -0.3183 -0.2953
  947POPC   GL113513   4.507   6.184   5.703  0.0120  0.3767  0.2904
  947POPC   GL213514   4.664   6.409   5.839 -0.0409 -0.3828 -0.1912
  947POPC   C1A13515   4.433   6.086   6.161 -0.0223  0.1227  0.0582
  947POPC   D2A13516   4.395   6.139   6.593  0.0644  0.0290 -0.0573
  947POPC   C3A13517   4.397   5.779   6.827 -0.3710  0.1818 -0.2833
  947POPC   C4A13518   4.162   5.623   7.231 -0.0483 -0.0900 -0.0069
  947POPC   C1B13519   4.402   6.606   6.106 -0.1080 -0.0379  0.2286
  947POPC   C2B13520   4.110   6.435   6.298  0.2077 -0.0370 -0.1386
  947POPC   C3B13521   3.713   6.422   6.577 -0.1597 -0.0702 -0.1377
  947POPC   C4B13522   3.799   6.765   6.820 -0.1306  0.1895 -0.0749
  948POPC   NC313523   4.771  17.399   4.729  0.2441 -0.3236 -0.0467
  948POPC   PO413524   4.537  17.757   4.967  0.0073 -0.0196 -0.3095
  948POPC   GL113525   4.612  17.894   5.442  0.1371 -0.2250 -0.0344
  948POPC   GL213526   4.458  17.789   5.715  0.2473 -0.2069 -0.0753
  948POPC   C1A13527   4.732  18.344   5.714 -0.1417 -0.0264  0.2722
  948POPC   D2A13528   4.927  18.761   5.864  0.1320 -0.0212  0.1596
  948POPC   C3A13529   5.350  18.920   5.932 -0.0492  0.0874  0.0537
  948POPC   C4A13530   5.750  18.820   6.025  0.1348  0.2935  0.0755
  948POPC   C1B13531   4.088  17.667   5.973 -0.0315  0.0646 -0.0564
  948POPC   C2B13532   4.031  17.496   6.300  0.1775 -0.0831  0.1215
  948POPC   C3B13533   3.958  17.392   6.734 -0.1245 -0.1987  0.0315
  948POPC   C4B13534   3.950  17.289   7.225 -0.4599 -0.0349  0.1764
  949POPC   NC313535   7.520  12.484   5.716 -0.3650  0.0616 -0.1050
  949POPC   PO413536   7.775  12.827   5.517 -0.4330  0.1054  0.0507
  949POPC   GL113537   7.915  12.758   5.946  0.3810  0.1300 -0.1029
  949POPC   GL213538   8.234  12.676   5.817  0.0667  0.0116  0.0555
  949POPC   C1A13539   7.866  12.513   6.309  0.0103 -0.3703  0.0746
  949POPC   D2A13540   7.532  12.178   6.206  0.0797  0.2204  0.0335
  949POPC   C3A13541   7.182  12.157   6.419 -0.2093  0.1187  0.2303
  949POPC   C4A13542   7.206  12.193   6.870  0.1063 -0.1271 -0.1726
  949POPC   C1B13543   8.439  12.721   6.208 -0.1915 -0.0053 -0.2639
  949POPC   C2B13544   8.901  12.813   6.182  0.1176 -0.1464  0.1180
  949POPC   C3B13545   9.084  12.926   6.549  0.0625  0.2559 -0.1603
  949POPC   C4B13546   9.208  12.994   7.075  0.1404  0.0019  0.1420
  950POPC   NC313547  14.545  18.315   5.353  0.0420  0.2051 -0.1592
  950POPC   PO413548  14.360  17.907   5.327  0.2372  0.0780  0.1679
  950POPC   GL113549  14.541  18.030   5.728  0.0377  0.1925 -0.1435
  950POPC   GL213550  14.419  18.214   6.013 -0.0615  0.1005  0.1966
  950POPC   C1A13551  14.520  17.761   6.095 -0.4284  0.0332 -0.0768
  950POPC   D2A13552  14.462  18.038   6.471 -0.0901 -0.1589  0.0598
  950POPC   C3A13553  14.627  18.278   6.738 -0.0322 -0.1249 -0.1112
  950POPC   C4A13554  14.305  18.322   6.983 -0.0085 -0.0683 -0.0008
  950POPC   C1B13555  14.762  18.397   6.229  0.2478  0.2119 -0.0482
  950POPC   C2B13556  15.079  18.452   6.563  0.1679 -0.1426  0.2069
  950POPC   C3B13557  15.270  18.542   6.929 -0.1884 -0.4433  0.0743
  950POPC   C4B13558  15.536  18.430   7.249 -0.1488 -0.1662 -0.2858
  951POPC   NC313559   5.499  17.179   5.716 -0.1836  0.1371 -0.2385
  951POPC   PO413560   5.124  17.126   5.534 -0.1908  0.1213  0.1428
  951POPC   GL113561   5.050  16.934   5.880 -0.0294  0.0689  0.0849
  951POPC   GL213562   4.713  16.817   5.908  0.1161  0.3686 -0.0986
  951POPC   C1A13563   5.060  17.031   6.268 -0.0993 -0.1647  0.0637
  951POPC   D2A13564   5.371  16.938   6.622  0.0397  0.1125 -0.3365
  951POPC   C3A13565   5.229  16.792   7.050  0.0149  0.1901 -0.1944
  951POPC   C4A13566   4.770  16.579   6.956 -0.1164  0.0245 -0.2804
  951POPC   C1B13567   4.566  16.698   6.235 -0.1525 -0.3280 -0.0379
  951POPC   C2B13568   4.644  16.835   6.512 -0.2169  0.0846 -0.1635
  951POPC   C3B13569   4.925  17.104   6.751 -0.1145 -0.0401  0.2437
  951POPC   C4B13570   5.209  17.352   6.907 -0.0641  0.2049 -0.1658
  952POPC   NC313571   4.992   4.573   5.084 -0.0278 -0.0889 -0.1940
  952POPC   PO413572   5.456   4.546   4.999 -0.3765 -0.1108 -0.0611
  952POPC   GL113573   5.362   4.390   5.336 -0.2600  0.1681 -0.0114
  952POPC   GL213574   5.124   4.196   5.351  0.1356 -0.1397 -0.0779
  952POPC   C1A13575   5.422   4.453   5.724 -0.2153 -0.1165  0.1749
  952POPC   D2A13576   5.709   4.549   5.961  0.1457 -0.2932 -0.1114
  952POPC   C3A13577   5.482   4.777   6.367  0.1449  0.2425  0.2466
  952POPC   C4A13578   5.666   5.082   6.662 -0.1729 -0.3399 -0.0337
  952POPC   C1B13579   4.801   4.028   5.606  0.1643 -0.1760  0.1507
  952POPC   C2B13580   4.787   3.802   5.866  0.0022 -0.2229 -0.3548
  952POPC   C3B13581   4.617   3.790   6.267  0.0427 -0.0338  0.1358
  952POPC   C4B13582   4.633   3.498   6.651  0.0623 -0.5480  0.2684
  953POPC   NC313583   2.970  13.055   5.348 -0.0436  0.1096  0.0686
  953POPC   PO413584   3.032  12.591   5.402  0.1645  0.0611 -0.3100
  953POPC   GL113585   3.246  12.369   5.816 -0.0670 -0.0565  0.0687
  953POPC   GL213586   3.100  12.172   5.853  0.1753 -0.2091  0.0738
  953POPC   C1A13587   3.371  12.436   6.232 -0.0014  0.0014  0.2754
  953POPC   D2A13588   3.589  12.585   6.498 -0.0751 -0.3404  0.1128
  953POPC   C3A13589   3.442  12.485   6.928  0.1006 -0.3616 -0.0072
  953POPC   C4A13590   3.324  12.223   7.198  0.0409 -0.2744  0.3710
  953POPC   C1B13591   3.113  12.011   6.228 -0.1726  0.1490 -0.2308
  953POPC   C2B13592   3.072  12.024   6.673 -0.0406  0.2550 -0.1694
  953POPC   C3B13593   3.197  11.783   7.103  0.0428 -0.0645 -0.1851
  953POPC   C4B13594   3.546  11.481   7.130  0.1873  0.5460  0.1606
  954POPC   NC313595   0.028   3.508   5.414 -0.3030  0.0392 -0.0357
  954POPC   PO413596   0.159   3.859   5.238  0.1779  0.0122  0.2085
  954POPC   GL113597   0.407   3.870   5.690 -0.0005 -0.3125  0.1759
  954POPC   GL213598   0.713   4.059   5.845  0.0575  0.0987  0.0902
  954POPC   C1A13599   0.525   3.681   6.110 -0.1430 -0.4303 -0.1472
  954POPC   D2A13600   0.806   3.349   6.301  0.1179 -0.2613  0.0545
  954POPC   C3A13601   0.829   3.302   6.709 -0.0845 -0.1067 -0.1233
  954POPC   C4A13602   0.574   3.273   7.161  0.2137  0.2951 -0.0248
  954POPC   C1B13603   0.666   4.154   6.203 -0.0609  0.1335  0.3130
  954POPC   C2B13604   0.901   4.413   6.424 -0.0697  0.5932  0.1833
  954POPC   C3B13605   1.174   4.427   6.804  0.0652  0.0937 -0.2219
  954POPC   C4B13606   1.561   4.368   6.766  0.0260 -0.0100 -0.1148
  955POPC   NC313607   3.116  10.699   4.929 -0.1017 -0.3923  0.0799
  955POPC   PO413608   3.259  10.362   5.199 -0.0330 -0.0767 -0.0323
  955POPC   GL113609   3.267  10.223   5.716 -0.0176  0.2056 -0.1153
  955POPC   GL213610   3.165  10.510   5.903  0.0518 -0.0064  0.0337
  955POPC   C1A13611   3.453  10.243   6.225  0.1893  0.2244 -0.0957
  955POPC   D2A13612   3.710  10.161   6.446  0.1552  0.2423  0.0849
  955POPC   C3A13613   4.151  10.138   6.274 -0.0130 -0.0112 -0.1429
  955POPC   C4A13614   4.310  10.028   5.774  0.1428  0.1414  0.2069
  955POPC   C1B13615   3.014  10.547   6.424  0.3257 -0.0392  0.3387
  955POPC   C2B13616   2.623  10.485   6.705 -0.1683 -0.1756  0.3942
  955POPC   C3B13617   2.686  10.702   7.096 -0.2683  0.1214  0.1343
  955POPC   C4B13618   2.552  10.616   7.495  0.2419  0.2098  0.2019
  956POPC   NC313619   2.343  15.165   5.574  0.0836 -0.2796  0.0872
  956POPC   PO413620   2.753  15.386   5.565 -0.1966 -0.2198  0.1508
  956POPC   GL113621   2.573  15.423   5.974  0.1756  0.1482  0.1980
  956POPC   GL213622   2.591  15.185   6.169  0.3661  0.0598  0.2358
  956POPC   C1A13623   2.335  15.693   6.262  0.2868  0.0177 -0.1161
  956POPC   D2A13624   2.314  15.667   6.725  0.0004 -0.0485 -0.2212
  956POPC   C3A13625   2.734  15.476   6.732  0.1033  0.2011 -0.3798
  956POPC   C4A13626   2.999  15.754   6.760  0.4214  0.2012  0.4832
  956POPC   C1B13627   2.316  15.198   6.607 -0.0107  0.0811 -0.2579
  956POPC   C2B13628   2.402  15.224   7.093 -0.1726  0.1308 -0.0064
  956POPC   C3B13629   2.579  14.818   7.287 -0.1531  0.0035  0.0731
  956POPC   C4B13630   2.597  14.734   7.690  0.2637 -0.1249  0.2002
  957POPC   NC313631  16.005  13.233   5.289  0.0990 -0.2957 -0.1917
  957POPC   PO413632  16.285  12.867   5.348  0.2317 -0.0962  0.1190
  957POPC   GL113633  16.395  12.839   5.921 -0.4316  0.2659 -0.0976
  957POPC   GL213634  16.461  12.511   6.145 -0.2681 -0.0096 -0.1959
  957POPC   C1A13635  16.519  12.973   6.324 -0.0714 -0.3658  0.0669
  957POPC   D2A13636  16.556  12.664   6.766  0.0407  0.1771 -0.1948
  957POPC   C3A13637  16.312  12.909   7.065  0.0630  0.0494  0.0540
  957POPC   C4A13638  15.992  13.021   7.346  0.0659  0.1739 -0.2337
  957POPC   C1B13639  16.061  12.742   6.306  0.2806  0.1510  0.1748
  957POPC   C2B13640  15.583  12.570   6.523  0.0064 -0.0407 -0.3918
  957POPC   C3B13641  15.211  12.825   6.650 -0.0576  0.0787  0.1517
  957POPC   C4B13642  15.137  12.884   7.024 -0.2350 -0.3719  0.2137
  958POPC   NC313643  17.959   8.867   5.074  0.0468 -0.1543  0.0481
  958POPC   PO413644  17.841   9.321   5.056  0.0427 -0.1986  0.2766
  958POPC   GL113645  17.816   9.495   5.562  0.1819 -0.0295 -0.1385
  958POPC   GL213646  17.937   9.639   5.504 -0.1992  0.0075 -0.0864
  958POPC   C1A13647  17.616   9.420   5.994  0.0475  0.1537 -0.0301
  958POPC   D2A13648  17.394   9.550   6.338  0.1507  0.4311 -0.1541
  958POPC   C3A13649  17.032   9.344   6.428 -0.2905 -0.3650  0.0353
  958POPC   C4A13650  16.789   9.310   6.903 -0.1441  0.2833  0.2689
  958POPC   C1B13651  18.190   9.510   5.933  0.1455 -0.1416  0.4210
  958POPC   C2B13652  18.536   9.208   6.060 -0.0817 -0.1766 -0.2361
  958POPC   C3B13653  18.874   9.176   6.462  0.5727 -0.3834  0.2198
  958POPC   C4B13654  19.266   9.239   6.653 -0.0883  0.1685 -0.0050
  959POPC   NC313655  14.210   0.185   5.091 -0.1461 -0.0761 -0.1056
  959POPC   PO413656  14.722   0.298   5.003  0.0319 -0.0726 -0.0675
  959POPC   GL113657  14.738   0.305   5.420  0.1268 -0.4573  0.2221
  959POPC   GL213658  14.995   0.536   5.389  0.0701  0.1764  0.1573
  959POPC   C1A13659  14.622   0.471   5.848 -0.0556 -0.4399  0.3262
  959POPC   D2A13660  14.575   0.245   6.166 -0.3376  0.2210 -0.4451
  959POPC   C3A13661  14.586   0.341   6.640  0.0590 -0.0855 -0.0949
  959POPC   C4A13662  14.615   0.040   6.890  0.0559  0.3340 -0.1942
  959POPC   C1B13663  14.955   0.830   5.736 -0.0623 -0.0236 -0.2091
  959POPC   C2B13664  15.026   1.300   5.654 -0.1664 -0.1017 -0.3041
  959POPC   C3B13665  14.946   1.756   5.725 -0.2383  0.2748  0.0587
  959POPC   C4B13666  14.774   2.125   5.956 -0.4712  0.3124 -0.0602
  960POPC   NC313667  13.289  18.606   5.105 -0.2227  0.2555 -0.0378
  960POPC   PO413668  13.197  18.956   5.183  0.1173 -0.0556  0.2416
  960POPC   GL113669  13.275  19.053   5.581 -0.0074  0.1208  0.3075
  960POPC   GL213670  12.986  19.083   5.661  0.1465  0.6408 -0.2761
  960POPC   C1A13671  13.252  19.333   5.955 -0.0838 -0.0196  0.2408
  960POPC   D2A13672  13.236  19.259   6.404  0.1226 -0.1266 -0.2753
  960POPC   C3A13673  13.242  19.560   6.655 -0.0106  0.2296  0.2315
  960POPC   C4A13674  13.217  19.808   7.067 -0.0016  0.0352 -0.1612
  960POPC   C1B13675  12.735  18.976   6.029  0.3163 -0.3458 -0.1761
  960POPC   C2B13676  12.690  19.062   6.435 -0.1243 -0.2417 -0.1498
  960POPC   C3B13677  12.853  19.164   6.691  0.0943  0.2227 -0.0344
  960POPC   C4B13678  13.269  19.112   6.952  0.1889  0.0424 -0.2372
  961POPC   NC313679  14.376  14.538   5.871  0.0662 -0.0773 -0.0009
  961POPC   PO413680  14.153  14.671   5.553  0.0387  0.1032 -0.0585
  961POPC   GL113681  13.861  14.730   6.013  0.1721 -0.0855  0.0058
  961POPC   GL213682  13.556  14.575   6.030 -0.2596 -0.2168 -0.0708
  961POPC   C1A13683  13.892  14.811   6.560 -0.1533 -0.2110  0.1210
  961POPC   D2A13684  14.178  14.580   6.932 -0.0935  0.3195  0.1647
  961POPC   C3A13685  14.013  14.699   7.249 -0.1250 -0.0427  0.1059
  961POPC   C4A13686  13.965  14.626   7.631  0.2024 -0.3168 -0.2085
  961POPC   C1B13687  13.701  14.363   6.457  0.2560 -0.0172  0.1069
  961POPC   C2B13688  13.784  14.243   6.844 -0.0746  0.5114  0.3524
  961POPC   C3B13689  13.628  13.906   7.173  0.0603 -0.1378  0.0181
  961POPC   C4B13690  13.469  13.886   7.564  0.0575 -0.1008  0.0750
  962POPC   NC313691  18.213   9.190   5.403 -0.2353  0.1424  0.2819
  962POPC   PO413692  17.840   8.994   5.523 -0.1287  0.0117  0.0775
  962POPC   GL113693  17.720   8.918   5.882 -0.0821 -0.3265 -0.3659
  962POPC   GL213694  18.071   9.040   5.957  0.1586 -0.0929  0.1868
  962POPC   C1A13695  17.488   8.978   6.317  0.0580 -0.0203  0.0600
  962POPC   D2A13696  17.258   8.706   6.730  0.1239  0.0028 -0.1611
  962POPC   C3A13697  17.074   8.909   7.018 -0.0652  0.1341  0.2735
  962POPC   C4A13698  16.887   8.800   7.401 -0.1079 -0.0983  0.2477
  962POPC   C1B13699  18.016   9.151   6.292 -0.0824 -0.0482 -0.1048
  962POPC   C2B13700  18.316   9.148   6.599 -0.0145  0.1275 -0.3023
  962POPC   C3B13701  18.626   9.269   6.873 -0.0760  0.3038 -0.3089
  962POPC   C4B13702  18.967   9.174   7.082 -0.0629  0.2726 -0.0009
  963POPC   NC313703   8.672  17.141   5.192  0.1148 -0.2256 -0.1628
  963POPC   PO413704   8.761  17.428   5.475  0.3700 -0.1895 -0.4119
  963POPC   GL113705   9.041  17.636   5.810 -0.0332  0.0648  0.1586
  963POPC   GL213706   9.191  17.901   5.955  0.4388 -0.2021 -0.0830
  963POPC   C1A13707   9.101  17.549   6.291  0.0035 -0.2361  0.1036
  963POPC   D2A13708   9.270  17.465   6.580  0.0855 -0.1204  0.4615
  963POPC   C3A13709   9.275  17.467   6.968  0.1883  0.0011  0.3042
  963POPC   C4A13710   9.229  17.805   7.144 -0.1087 -0.2214 -0.0857
  963POPC   C1B13711   9.467  17.870   6.335 -0.3431  0.0330  0.1336
  963POPC   C2B13712   9.567  17.857   6.802  0.1150 -0.0686 -0.0773
  963POPC   C3B13713   9.626  18.073   7.140 -0.3943  0.3338 -0.1816
  963POPC   C4B13714   9.547  18.205   7.488 -0.0283  0.0568 -0.0270
  964POPC   NC313715   2.395  14.682   5.571  0.0894  0.0229 -0.0427
  964POPC   PO413716   2.780  14.748   5.720 -0.1807  0.0511  0.2526
  964POPC   GL113717   2.865  14.695   6.064  0.1076 -0.2986  0.0198
  964POPC   GL213718   2.761  14.416   6.140 -0.0155  0.3269  0.3670
  964POPC   C1A13719   2.912  14.857   6.440  0.2574 -0.1251  0.2146
  964POPC   D2A13720   2.833  14.923   6.827 -0.0356  0.1840  0.2841
  964POPC   C3A13721   3.070  14.829   7.304 -0.5290  0.0519  0.1527
  964POPC   C4A13722   3.459  14.866   7.561 -0.4617  0.1340  0.0060
  964POPC   C1B13723   2.600  14.164   6.380 -0.0757  0.0944  0.0608
  964POPC   C2B13724   2.420  13.848   6.279  0.1819  0.1450 -0.0786
  964POPC   C3B13725   2.192  13.557   6.196 -0.1317 -0.1920 -0.3166
  964POPC   C4B13726   1.944  13.365   5.982  0.0428  0.0951  0.1836
  965POPC   NC313727  16.428   4.937   5.326  0.1356  0.1147  0.1129
  965POPC   PO413728  16.167   5.200   5.310  0.0752  0.1299 -0.0629
  965POPC   GL113729  16.040   5.154   5.779  0.0170 -0.0129  0.0227
  965POPC   GL213730  16.299   4.913   5.883 -0.1033 -0.2135  0.1741
  965POPC   C1A13731  15.940   5.333   6.181  0.2223  0.0011 -0.0450
  965POPC   D2A13732  15.760   5.041   6.401  0.3083  0.4107  0.0336
  965POPC   C3A13733  15.732   5.169   6.748 -0.4497  0.0837  0.1599
  965POPC   C4A13734  15.984   5.261   7.097 -0.1764  0.1170 -0.0904
  965POPC   C1B13735  16.324   4.890   6.246 -0.1183 -0.1187 -0.2515
  965POPC   C2B13736  16.242   5.233   6.557 -0.2062 -0.0005  0.3027
  965POPC   C3B13737  16.447   5.551   6.824  0.2019  0.1614 -0.1784
  965POPC   C4B13738  16.593   5.914   7.199  0.3564  0.0484 -0.0303
  966POPC   NC313739  17.547   6.323   5.355  0.2790  0.0307 -0.1613
  966POPC   PO413740  17.955   6.003   5.391 -0.3881  0.0645  0.0697
  966POPC   GL113741  17.586   5.896   5.581 -0.0362  0.0689  0.4113
  966POPC   GL213742  17.617   5.599   5.709  0.0895  0.0252 -0.3048
  966POPC   C1A13743  17.339   5.985   5.949 -0.0758 -0.0098  0.0721
  966POPC   D2A13744  17.153   5.868   6.291 -0.3116  0.0520  0.0321
  966POPC   C3A13745  17.335   5.892   6.649  0.1112 -0.1700 -0.0956
  966POPC   C4A13746  17.236   5.934   7.083 -0.0731 -0.1253 -0.0492
  966POPC   C1B13747  17.655   5.630   6.198  0.2567  0.0833 -0.1072
  966POPC   C2B13748  17.761   5.633   6.608  0.1497 -0.3958 -0.0508
  966POPC   C3B13749  17.846   5.964   6.896 -0.0656 -0.3401  0.3369
  966POPC   C4B13750  18.051   6.291   7.227  0.1782  0.0525  0.0255
  967POPC   NC313751   3.335   5.542   5.154  0.0895  0.0061  0.0178
  967POPC   PO413752   2.939   5.539   5.223  0.3345 -0.1607  0.0930
  967POPC   GL113753   2.673   5.351   5.612 -0.1682  0.1483 -0.0339
  967POPC   GL213754   2.925   5.413   5.738 -0.0977  0.0580  0.1101
  967POPC   C1A13755   2.461   5.125   5.856 -0.1891  0.0401 -0.2485
  967POPC   D2A13756   2.374   5.091   6.311  0.1928 -0.2480 -0.3203
  967POPC   C3A13757   2.542   5.252   6.541 -0.5194  0.5122  0.0036
  967POPC   C4A13758   2.708   5.136   6.872  0.0694  0.1762 -0.2499
  967POPC   C1B13759   2.851   5.335   6.110  0.0663 -0.1256  0.2279
  967POPC   C2B13760   2.857   4.913   6.363  0.1827  0.0919  0.1087
  967POPC   C3B13761   3.148   4.927   6.698  0.1000  0.4903 -0.2544
  967POPC   C4B13762   3.222   5.151   7.072 -0.0398  0.2799 -0.1599
  968POPC   NC313763  16.493  18.946   5.077 -0.0101  0.0196 -0.0960
  968POPC   PO413764  16.126  19.014   5.360  0.0682  0.1805 -0.0436
  968POPC   GL113765  16.123  19.109   5.812 -0.0381 -0.0183  0.2170
  968POPC   GL213766  16.107  18.800   5.865  0.1504  0.2200 -0.0774
  968POPC   C1A13767  15.945  19.340   6.155  0.2110  0.1729 -0.1826
  968POPC   D2A13768  16.048  19.589   6.480  0.0585  0.1575 -0.0479
  968POPC   C3A13769  15.677  19.634   6.682 -0.0225  0.1290 -0.1332
  968POPC   C4A13770  15.453  19.510   7.038 -0.0316  0.1321 -0.0994
  968POPC   C1B13771  16.174  18.917   6.346 -0.1326  0.0574  0.3245
  968POPC   C2B13772  16.105  19.060   6.721  0.1875 -0.0473 -0.1276
  968POPC   C3B13773  15.920  19.341   6.996  0.1603 -0.0131  0.1349
  968POPC   C4B13774  15.700  19.317   7.419  0.1226  0.1445  0.1359
  969POPC   NC313775   6.739  11.330   5.315  0.0510 -0.4043 -0.3165
  969POPC   PO413776   6.432  11.218   5.605  0.0743  0.2096  0.4553
  969POPC   GL113777   6.349  11.228   5.947  0.2236  0.0641 -0.3292
  969POPC   GL213778   6.015  11.193   6.033 -0.3481  0.1333  0.2545
  969POPC   C1A13779   6.413  11.065   6.364  0.0966  0.0969 -0.3432
  969POPC   D2A13780   6.639  10.787   6.650 -0.1037 -0.0601  0.0725
  969POPC   C3A13781   6.717  10.565   6.997 -0.0482  0.0566 -0.1818
  969POPC   C4A13782   6.517  10.236   7.249  0.0326  0.2663 -0.0609
  969POPC   C1B13783   5.933  10.957   6.443  0.4515 -0.2973  0.0160
  969POPC   C2B13784   6.102  10.912   6.891 -0.0131  0.4499  0.0236
  969POPC   C3B13785   6.326  11.107   6.968  0.1349 -0.4845 -0.1114
  969POPC   C4B13786   6.208  11.262   7.420 -0.0856  0.6120 -0.1241
  970POPC   NC313787   2.718   8.473   5.425  0.0632 -0.1829 -0.0370
  970POPC   PO413788   2.592   8.188   5.777 -0.2276  0.1159 -0.3269
  970POPC   GL113789   2.671   8.450   6.139 -0.1122  0.4349  0.2901
  970POPC   GL213790   2.588   8.765   5.923  0.0782  0.3363  0.1278
  970POPC   C1A13791   2.484   8.654   6.387  0.1382 -0.2821 -0.1632
  970POPC   D2A13792   2.366   8.771   6.805  0.0759 -0.0218 -0.1822
  970POPC   C3A13793   2.588   8.603   7.235  0.0001  0.1118  0.0301
  970POPC   C4A13794   2.971   8.831   7.218  0.1835  0.1180  0.0543
  970POPC   C1B13795   2.928   8.867   6.229  0.0283 -0.3533  0.0022
  970POPC   C2B13796   2.950   8.973   6.672  0.1339  0.1105 -0.1646
  970POPC   C3B13797   3.287   9.088   6.918  0.1600  0.0187  0.0887
  970POPC   C4B13798   3.487   8.914   7.384 -0.0033  0.0552  0.2466
  971POPC   NC313799   0.449   8.527   4.553  0.3637 -0.0170  0.2107
  971POPC   PO413800   0.200   8.471   5.017 -0.1680  0.0232 -0.3215
  971POPC   GL113801   0.204   8.358   5.410  0.2360  0.0824 -0.1951
  971POPC   GL213802   0.019   8.060   5.613  0.2824  0.3440 -0.3184
  971POPC   C1A13803   0.476   8.361   5.873  0.0688 -0.0068  0.1259
  971POPC   D2A13804   0.751   8.208   6.143  0.0213  0.0514 -0.0020
  971POPC   C3A13805   0.839   7.866   6.006 -0.2269  0.2995 -0.2136
  971POPC   C4A13806   1.149   7.454   6.081  0.2811  0.2276 -0.2824
  971POPC   C1B13807   0.003   8.295   6.025 -0.1084  0.0926  0.2810
  971POPC   C2B13808   0.099   8.281   6.467 -0.1639 -0.1475 -0.0794
  971POPC   C3B13809   0.102   8.076   6.893 -0.7824  0.2655  0.2787
  971POPC   C4B13810   0.393   7.836   7.123 -0.1357  0.3283 -0.3343
  972POPC   NC313811   6.946  16.500   5.278 -0.0755 -0.0242 -0.3001
  972POPC   PO413812   6.888  16.775   5.655 -0.1572 -0.0526  0.0102
  972POPC   GL113813   6.585  16.761   6.005  0.1854  0.3544 -0.1796
  972POPC   GL213814   6.648  16.570   6.166  0.1571  0.3387  0.0935
  972POPC   C1A13815   6.531  16.880   6.473 -0.0189  0.1579 -0.1438
  972POPC   D2A13816   6.465  16.960   6.901  0.1628 -0.2774  0.1057
  972POPC   C3A13817   6.186  17.260   7.183  0.0096  0.0399 -0.0817
  972POPC   C4A13818   5.910  17.627   7.268 -0.3183 -0.1540  0.1304
  972POPC   C1B13819   6.753  16.333   6.482  0.2021  0.2641  0.1262
  972POPC   C2B13820   6.888  16.098   6.764  0.3125 -0.1186  0.2144
  972POPC   C3B13821   7.066  16.003   7.246 -0.0901  0.3373 -0.2426
  972POPC   C4B13822   7.133  15.901   7.693 -0.1793  0.0496 -0.0642
  973POPC   NC313823  11.908   7.547   5.256 -0.1863 -0.0806  0.5582
  973POPC   PO413824  12.090   7.111   5.476  0.0305  0.0503 -0.1271
  973POPC   GL113825  12.089   7.293   5.819 -0.0718 -0.0832 -0.1796
  973POPC   GL213826  12.086   6.990   6.065 -0.1806  0.1310  0.2009
  973POPC   C1A13827  12.127   7.605   6.197  0.0718 -0.2649  0.2472
  973POPC   D2A13828  12.154   7.670   6.539 -0.5205 -0.0365 -0.3311
  973POPC   C3A13829  12.317   7.319   6.846 -0.1361  0.1107 -0.4001
  973POPC   C4A13830  12.449   7.002   7.234  0.3541 -0.0253  0.0846
  973POPC   C1B13831  12.206   6.980   6.498  0.0714  0.0213  0.0033
  973POPC   C2B13832  12.458   6.835   6.756 -0.0129  0.0487  0.2012
  973POPC   C3B13833  12.901   6.851   6.993 -0.0657  0.1941 -0.5279
  973POPC   C4B13834  13.278   7.097   7.148  0.2692 -0.0691  0.4847
  974POPC   NC313835  10.674   5.005   4.973 -0.0811 -0.1133 -0.0133
  974POPC   PO413836  10.543   4.558   5.080 -0.0916  0.1582  0.1640
  974POPC   GL113837  10.388   4.848   5.405  0.2576  0.1706  0.1770
  974POPC   GL213838  10.337   4.558   5.647 -0.1499 -0.2518  0.2513
  974POPC   C1A13839  10.378   5.222   5.691 -0.0653 -0.3325 -0.0988
  974POPC   D2A13840  10.140   5.435   5.787 -0.0500 -0.0803  0.6338
  974POPC   C3A13841   9.910   5.591   6.080  0.1440  0.2253 -0.4331
  974POPC   C4A13842   9.611   5.587   6.403 -0.0772  0.3126 -0.1319
  974POPC   C1B13843  10.655   4.769   5.837 -0.0068  0.0584  0.0383
  974POPC   C2B13844  10.812   4.565   6.153 -0.0912  0.0829  0.1239
  974POPC   C3B13845  11.141   4.626   6.485  0.2308  0.3009  0.2635
  974POPC   C4B13846  11.343   4.391   6.909  0.0771 -0.1724  0.0241
  975POPC   NC313847  11.434  16.719   5.547 -0.3271  0.3738 -0.2808
  975POPC   PO413848  11.102  16.418   5.620 -0.0771  0.0194 -0.1491
  975POPC   GL113849  11.163  16.222   6.066 -0.1887  0.1826  0.1945
  975POPC   GL213850  11.522  16.223   5.951 -0.3185  0.0948  0.0858
  975POPC   C1A13851  11.125  15.836   6.175 -0.1673  0.0895  0.0143
  975POPC   D2A13852  11.314  15.546   6.442 -0.2732  0.0227  0.0912
  975POPC   C3A13853  11.473  15.562   6.920 -0.0728  0.0914 -0.0056
  975POPC   C4A13854  11.377  15.673   7.247  0.4502  0.0058 -0.0981
  975POPC   C1B13855  11.560  16.120   6.330  0.1761 -0.0010 -0.2960
  975POPC   C2B13856  11.609  16.233   6.672 -0.1487 -0.0013 -0.2113
  975POPC   C3B13857  11.464  16.216   7.154  0.2491 -0.0094 -0.1373
  975POPC   C4B13858  11.111  16.271   7.475 -0.0316 -0.0177  0.5199
  976POPC   NC313859   1.615  14.445   5.560  0.0041  0.1158 -0.2068
  976POPC   PO413860   1.935  14.815   5.606  0.1944 -0.1370  0.0242
  976POPC   GL113861   2.064  14.822   5.987 -0.4709 -0.0708  0.3441
  976POPC   GL213862   2.347  14.763   6.039  0.0101 -0.0025 -0.1754
  976POPC   C1A13863   1.924  14.828   6.384 -0.0158  0.1082 -0.1251
  976POPC   D2A13864   1.801  14.577   6.713 -0.3397  0.0289  0.0114
  976POPC   C3A13865   1.510  14.329   7.035 -0.1502  0.0043  0.1648
  976POPC   C4A13866   1.107  14.159   7.102 -0.2402  0.1804 -0.2348
  976POPC   C1B13867   2.437  14.684   6.465  0.1568  0.0897 -0.1268
  976POPC   C2B13868   2.603  14.491   6.826  0.1476 -0.0224  0.2920
  976POPC   C3B13869   2.684  14.284   7.313 -0.0646 -0.1721 -0.4070
  976POPC   C4B13870   2.618  14.045   7.614 -0.0586  0.0987 -0.0735
  977POPC   NC313871  15.305   9.374   5.291  0.1208 -0.1063  0.0720
  977POPC   PO413872  14.966   9.364   5.502  0.2353  0.1395  0.4359
  977POPC   GL113873  14.765   9.338   5.908 -0.1582 -0.1099  0.1623
  977POPC   GL213874  14.497   9.205   5.964  0.1697 -0.1964  0.0157
  977POPC   C1A13875  14.774   9.129   6.371 -0.0257  0.0450 -0.0076
  977POPC   D2A13876  14.758   8.911   6.740 -0.0175  0.1114 -0.3866
  977POPC   C3A13877  14.639   8.755   7.061 -0.1902 -0.1175 -0.0624
  977POPC   C4A13878  14.386   8.645   7.355 -0.1886  0.1853 -0.1106
  977POPC   C1B13879  14.234   9.241   6.278  0.1995  0.0800  0.1534
  977POPC   C2B13880  14.266   9.183   6.651  0.1625 -0.0612 -0.1152
  977POPC   C3B13881  14.273   9.098   7.008 -0.0584 -0.3858  0.4209
  977POPC   C4B13882  14.095   9.152   7.386 -0.0576 -0.1431 -0.1399
  978POPC   NC313883  16.512  13.762   5.411 -0.0228  0.0037 -0.1122
  978POPC   PO413884  16.337  13.833   5.756  0.0254  0.0650  0.0460
  978POPC   GL113885  16.571  13.782   6.080 -0.1862  0.0715  0.1532
  978POPC   GL213886  16.638  13.486   5.980 -0.0242 -0.0833 -0.2490
  978POPC   C1A13887  16.758  14.002   6.401 -0.0154 -0.0028  0.2540
  978POPC   D2A13888  17.236  13.982   6.478  0.1476 -0.0261  0.0506
  978POPC   C3A13889  17.284  14.020   6.918  0.0090  0.0921 -0.0604
  978POPC   C4A13890  17.349  14.218   7.263 -0.0526 -0.1463  0.1612
  978POPC   C1B13891  16.637  13.487   6.453  0.0850 -0.0790 -0.1696
  978POPC   C2B13892  16.514  13.342   6.751  0.1977 -0.3207 -0.0374
  978POPC   C3B13893  16.497  13.471   7.093  0.0329  0.0104 -0.1754
  978POPC   C4B13894  16.604  13.202   7.420 -0.2236  0.1788 -0.1513
  979POPC   NC313895  15.473  10.190   5.081 -0.3656 -0.0447 -0.1222
  979POPC   PO413896  15.178  10.291   5.492  0.3472  0.0924  0.0955
  979POPC   GL113897  15.257  10.231   5.919  0.0424  0.1180  0.0143
  979POPC   GL213898  15.281  10.025   6.162  0.0910  0.0889  0.0027
  979POPC   C1A13899  15.265  10.701   6.184 -0.3692  0.0293 -0.1366
  979POPC   D2A13900  15.352  11.196   6.293  0.0345  0.4066  0.0216
  979POPC   C3A13901  15.690  11.308   6.686 -0.0709 -0.0885 -0.1719
  979POPC   C4A13902  15.991  11.547   7.113  0.0750 -0.3001 -0.0892
  979POPC   C1B13903  14.862   9.975   6.444 -0.1843 -0.3138 -0.0903
  979POPC   C2B13904  14.745  10.244   6.813  0.0954  0.1168  0.4749
  979POPC   C3B13905  14.839  10.754   6.815 -0.3281  0.2659  0.0153
  979POPC   C4B13906  15.178  11.116   6.928 -0.2033 -0.0728  0.4173
  980POPC   NC313907   6.010  13.274   5.517 -0.2050 -0.1054  0.3084
  980POPC   PO413908   5.827  13.358   5.870 -0.1217  0.1928  0.2553
  980POPC   GL113909   6.039  13.519   6.183 -0.0651  0.1540 -0.3396
  980POPC   GL213910   6.153  13.347   6.288 -0.3945  0.2738 -0.1326
  980POPC   C1A13911   5.974  13.812   6.499  0.1490  0.1292 -0.0034
  980POPC   D2A13912   6.086  13.927   6.903 -0.1693  0.0311  0.1559
  980POPC   C3A13913   6.524  13.960   6.930 -0.3909  0.0706 -0.4580
  980POPC   C4A13914   6.973  13.847   6.708 -0.2195 -0.2128 -0.1999
  980POPC   C1B13915   6.477  13.056   6.412  0.0941  0.2350 -0.1955
  980POPC   C2B13916   6.547  13.043   6.843  0.3335  0.1900  0.0898
  980POPC   C3B13917   6.361  12.945   7.247  0.4267  0.0636 -0.0234
  980POPC   C4B13918   6.423  13.257   7.546 -0.0813 -0.3225 -0.6697
  981YOPC   NC313919   5.777  15.166   5.520  0.0124 -0.2500  0.0379
  981YOPC   PO413920   5.761  15.663   5.414  0.2804 -0.0018 -0.1156
  981YOPC   GL113921   5.861  15.765   5.775  0.2295 -0.3371  0.0192
  981YOPC   GL213922   6.150  15.609   5.817  0.0332  0.1612  0.2059
  981YOPC   C1A13923   5.820  15.704   6.207  0.1893 -0.1583  0.0292
  981YOPC   D2A13924   6.007  15.699   6.666  0.0826 -0.2654 -0.3205
  981YOPC   C3A13925   5.867  15.527   7.122 -0.1211 -0.1941 -0.2068
  981YOPC   C4A13926   5.737  15.609   7.475 -0.1508  0.1248 -0.2615
  981YOPC   C1B13927   6.338  15.527   6.217 -0.1693 -0.0214 -0.1309
  981YOPC   C2B13928   6.465  15.326   6.606  0.0007  0.0146 -0.0108
  981YOPC   D3B13929   6.389  15.251   7.035 -0.1468  0.1057  0.0717
  981YOPC   C4B13930   6.582  15.331   7.378 -0.0015 -0.1412  0.1028
  982YOPC   NC313931  16.504   3.988   5.128  0.2037  0.1998  0.1989
  982YOPC   PO413932  16.371   3.812   5.563  0.1704 -0.3260 -0.0211
  982YOPC   GL113933  16.187   3.811   5.942  0.0409 -0.1030 -0.1255
  982YOPC   GL213934  15.986   4.098   5.887 -0.0827 -0.1889  0.3473
  982YOPC   C1A13935  16.210   3.521   6.308 -0.1458  0.1997  0.2937
  982YOPC   D2A13936  16.190   3.466   6.732 -0.1461  0.1992  0.1119
  982YOPC   C3A13937  15.957   3.713   7.083 -0.3337 -0.1935 -0.0714
  982YOPC   C4A13938  15.669   3.982   7.093 -0.0775  0.0096  0.0233
  982YOPC   C1B13939  16.039   4.066   6.333 -0.1132 -0.3963 -0.2261
  982YOPC   C2B13940  15.903   4.153   6.676  0.3026 -0.1567  0.0488
  982YOPC   D3B13941  15.833   4.485   6.972 -0.0030  0.2401 -0.0784
  982YOPC   C4B13942  15.883   4.812   7.270 -0.0564 -0.0252 -0.1700
  983YOPC   NC313943   6.037  18.080   5.415  0.0938  0.1693  0.2344
  983YOPC   PO413944   6.288  18.443   5.465  0.3413 -0.0335 -0.0903
  983YOPC   GL113945   6.405  18.527   5.800 -0.3448 -0.1055 -0.1011
  983YOPC   GL213946   6.555  18.246   5.995  0.1738 -0.1283 -0.1060
  983YOPC   C1A13947   6.341  18.777   6.174  0.1560 -0.1549  0.0201
  983YOPC   D2A13948   6.530  19.176   6.300 -0.0082 -0.1775  0.0591
  983YOPC   C3A13949   6.970  19.042   6.715 -0.1227 -0.0128 -0.1430
  983YOPC   C4A13950   7.039  19.124   7.113 -0.0730 -0.1391  0.2365
  983YOPC   C1B13951   6.506  18.337   6.529 -0.5438  0.0812 -0.1929
  983YOPC   C2B13952   6.697  18.425   6.900 -0.2011  0.1281  0.1841
  983YOPC   D3B13953   7.070  18.598   6.957 -0.0654  0.0728  0.1656
  983YOPC   C4B13954   7.397  18.777   7.103 -0.1545  0.0117 -0.0199
  984YOPC   NC313955  17.167   6.968   5.041 -0.1267 -0.1496  0.2980
  984YOPC   PO413956  17.236   7.301   5.366  0.1089  0.1292 -0.2804
  984YOPC   GL113957  17.236   7.232   5.804  0.2767 -0.2764 -0.1582
  984YOPC   GL213958  16.980   7.460   5.947  0.4301  0.0863 -0.0111
  984YOPC   C1A13959  17.145   6.889   6.112  0.2572 -0.0266 -0.0246
  984YOPC   D2A13960  16.734   6.581   6.205  0.1516 -0.2265  0.2361
  984YOPC   C3A13961  16.525   6.563   6.544  0.2112 -0.1332  0.0518
  984YOPC   C4A13962  16.277   6.676   6.946  0.0083  0.1496 -0.0382
  984YOPC   C1B13963  17.174   7.366   6.334  0.0387  0.0095  0.0751
  984YOPC   C2B13964  17.102   7.333   6.830  0.0823 -0.3193 -0.0860
  984YOPC   D3B13965  17.158   7.175   7.127  0.0304 -0.1747  0.1100
  984YOPC   C4B13966  16.934   7.321   7.417  0.1862  0.2279 -0.0577
  985YOPC   NC313967   2.494   0.280   5.044  0.0590  0.0924  0.0741
  985YOPC   PO413968   2.773   0.399   5.382 -0.1176 -0.0109  0.2441
  985YOPC   GL113969   2.939   0.552   5.648  0.4298  0.2824  0.0575
  985YOPC   GL213970   3.123   0.353   5.863 -0.1746 -0.0712 -0.1658
  985YOPC   C1A13971   2.906   0.800   5.992 -0.6135 -0.2088 -0.0217
  985YOPC   D2A13972   2.735   0.701   6.370  0.0536  0.0562  0.0923
  985YOPC   C3A13973   2.406   0.521   6.581 -0.0455 -0.1927 -0.0391
  985YOPC   C4A13974   2.236   0.275   6.861  0.1556 -0.0539 -0.6068
  985YOPC   C1B13975   3.107   0.415   6.328 -0.0726  0.0076  0.1849
  985YOPC   C2B13976   3.087   0.273   6.729  0.3506 -0.1688  0.1496
  985YOPC   D3B13977   2.780   0.285   7.069  0.0568  0.0466 -0.1251
  985YOPC   C4B13978   2.688   0.686   7.247 -0.0661 -0.4059 -0.0840
  986YOPC   NC313979   1.043   7.344   5.046 -0.4647  0.2016  0.1754
  986YOPC   PO413980   0.767   7.574   5.416 -0.0137 -0.0507  0.1098
  986YOPC   GL113981   0.686   7.978   5.587 -0.1449 -0.1021 -0.0917
  986YOPC   GL213982   0.418   7.863   5.770  0.0767  0.1289 -0.3959
  986YOPC   C1A13983   0.977   8.280   5.653  0.0011 -0.2817  0.2108
  986YOPC   D2A13984   1.041   8.546   6.060 -0.0228  0.4878 -0.0497
  986YOPC   C3A13985   0.741   8.773   6.042  0.0856  0.1046 -0.1512
  986YOPC   C4A13986   0.414   8.719   6.176 -0.0767 -0.2922  0.2295
  986YOPC   C1B13987   0.348   7.945   6.154 -0.0164 -0.0894 -0.0876
  986YOPC   C2B13988   0.514   7.853   6.583  0.1711  0.1343  0.1351
  986YOPC   D3B13989   0.679   8.201   6.636  0.3019 -0.0437  0.2053
  986YOPC   C4B13990   0.762   8.655   6.542 -0.0606 -0.1190  0.0954
  987YOPC   NC313991   1.056   2.041   5.357  0.2413  0.0022 -0.0012
  987YOPC   PO413992   0.626   1.875   5.418 -0.0397 -0.1813 -0.1567
  987YOPC   GL113993   0.608   2.025   5.813 -0.1313  0.0259  0.0207
  987YOPC   GL213994   0.256   2.011   5.981  0.2393  0.1084 -0.0209
  987YOPC   C1A13995   0.779   2.128   6.200  0.1040 -0.0507  0.1227
  987YOPC   D2A13996   1.097   2.299   6.502  0.0027 -0.3870  0.0502
  987YOPC   C3A13997   0.956   2.311   6.877 -0.1609  0.1886 -0.0553
  987YOPC   C4A13998   1.189   2.159   7.270  0.0796 -0.1749  0.3375
  987YOPC   C1B13999   0.398   1.857   6.413  0.0760 -0.4844 -0.2046
  987YOPC   C2B14000   0.658   1.912   6.724 -0.1206  0.0135 -0.0741
  987YOPC   D3B14001   0.618   1.631   7.071 -0.0500 -0.2304 -0.0471
  987YOPC   C4B14002   0.689   1.373   7.397  0.0561  0.0300  0.0894
  988YOPC   NC314003   1.901   3.404   5.268 -0.0499  0.1710  0.0505
  988YOPC   PO414004   1.999   3.746   5.520  0.2452 -0.2135  0.2341
  988YOPC   GL114005   2.338   3.902   5.538 -0.2849 -0.1869 -0.1419
  988YOPC   GL214006   2.543   3.798   5.758  0.1927  0.1774 -0.0439
  988YOPC   C1A14007   2.503   4.270   5.820  0.0585  0.2298  0.0972
  988YOPC   D2A14008   2.397   4.666   6.038 -0.0479 -0.1928  0.2523
  988YOPC   C3A14009   2.453   4.600   6.486 -0.2375  0.0136 -0.0325
  988YOPC   C4A14010   2.797   4.547   6.729  0.3174 -0.0289 -0.0418
  988YOPC   C1B14011   2.811   3.956   6.070  0.1152 -0.0121 -0.0274
  988YOPC   C2B14012   2.965   3.830   6.354 -0.0099 -0.1719  0.0262
  988YOPC   D3B14013   2.998   3.398   6.430 -0.0488 -0.0922 -0.1116
  988YOPC   C4B14014   3.007   3.003   6.626 -0.1187  0.2695  0.4295
  989YOPC   NC314015  15.838   5.061   4.974 -0.3714 -0.2114 -0.1511
  989YOPC   PO414016  15.455   5.313   5.029  0.0047 -0.1991  0.1277
  989YOPC   GL114017  15.638   5.197   5.420 -0.1223 -0.1064 -0.2823
  989YOPC   GL214018  15.679   4.922   5.509 -0.0858  0.1754  0.1370
  989YOPC   C1A14019  15.523   5.427   5.868  0.2199  0.2336  0.0474
  989YOPC   D2A14020  15.337   5.543   6.226  0.1567  0.2104 -0.1497
  989YOPC   C3A14021  15.621   5.625   6.518  0.1537  0.1613 -0.0790
  989YOPC   C4A14022  15.919   5.659   6.625  0.1993  0.0567 -0.0094
  989YOPC   C1B14023  15.589   4.945   5.945 -0.2031  0.1255 -0.0414
  989YOPC   C2B14024  15.870   4.655   6.093  0.0295  0.2744  0.0024
  989YOPC   D3B14025  16.021   4.584   6.445 -0.1090  0.1153  0.3245
  989YOPC   C4B14026  16.135   4.798   6.823  0.0150  0.4918  0.1685
  990YOPC   NC314027   6.645   5.361   4.568 -0.0286 -0.0984  0.0667
  990YOPC   PO414028   6.652   5.047   4.559 -0.1476  0.0793 -0.1533
  990YOPC   GL114029   6.533   4.751   4.844 -0.1884  0.0290 -0.0097
  990YOPC   GL214030   6.726   4.800   5.092  0.3949  0.0404  0.0064
  990YOPC   C1A14031   6.368   4.330   5.102  0.0142 -0.2152  0.0495
  990YOPC   D2A14032   6.509   4.221   5.539  0.0029  0.1088 -0.2000
  990YOPC   C3A14033   6.689   4.127   5.939  0.2297  0.2531  0.1318
  990YOPC   C4A14034   7.036   4.172   6.151 -0.0600  0.0869 -0.0359
  990YOPC   C1B14035   6.874   4.645   5.453  0.0102  0.0758 -0.3396
  990YOPC   C2B14036   6.912   4.572   5.837  0.3225 -0.1310 -0.1153
  990YOPC   D3B14037   7.231   4.696   6.103  0.0864  0.0277  0.0033
  990YOPC   C4B14038   7.605   4.860   5.977  0.0223  0.4275 -0.3288
  991YOPC   NC314039  15.652  12.099   5.174 -0.2402 -0.0824 -0.2660
  991YOPC   PO414040  15.559  12.279   5.693  0.0290  0.0298  0.2058
  991YOPC   GL114041  15.707  12.217   6.150 -0.1424  0.2596  0.0593
  991YOPC   GL214042  15.602  11.790   6.238 -0.0881 -0.0133  0.0049
  991YOPC   C1A14043  15.985  12.195   6.445 -0.1700  0.1613  0.1287
  991YOPC   D2A14044  16.095  12.417   6.753  0.3328 -0.0839  0.1944
  991YOPC   C3A14045  15.942  12.437   7.270 -0.0667  0.2077  0.0532
  991YOPC   C4A14046  16.047  12.615   7.686  0.3697  0.0072  0.1033
  991YOPC   C1B14047  15.795  11.443   6.226  0.0297  0.1034  0.0832
  991YOPC   C2B14048  16.112  11.275   6.436 -0.0645  0.2384  0.1185
  991YOPC   D3B14049  16.147  11.190   6.839 -0.0160 -0.0360 -0.3312
  991YOPC   C4B14050  15.734  11.070   7.182  0.3018  0.1766  0.2012
  992YOPC   NC314051   1.822   1.545   5.624  0.2320  0.2403 -0.0026
  992YOPC   PO414052   2.295   1.356   5.750  0.1658 -0.3447 -0.1401
  992YOPC   GL114053   2.485   1.227   6.107 -0.2220 -0.0038 -0.1365
  992YOPC   GL214054   2.197   1.017   6.087 -0.1386  0.0681 -0.0907
  992YOPC   C1A14055   2.718   1.165   6.588 -0.1640  0.5768 -0.0970
  992YOPC   D2A14056   2.848   1.274   6.950 -0.0844 -0.0755 -0.0600
  992YOPC   C3A14057   3.114   1.025   7.329 -0.1425 -0.1816  0.2368
  992YOPC   C4A14058   3.385   1.112   7.566 -0.2910 -0.0496 -0.0428
  992YOPC   C1B14059   2.178   0.955   6.507 -0.2760 -0.2333 -0.0656
  992YOPC   C2B14060   2.340   0.928   6.898 -0.0866  0.0738  0.1829
  992YOPC   D3B14061   2.442   1.241   7.219 -0.2626  0.2146 -0.0879
  992YOPC   C4B14062   2.816   1.362   7.535 -0.2381 -0.0591 -0.0637
  993YOPC   NC314063   8.516   1.557   5.001  0.0137 -0.0246  0.3247
  993YOPC   PO414064   8.404   1.855   5.335  0.1324  0.0334  0.0499
  993YOPC   GL114065   8.542   1.923   5.670  0.0372 -0.2796  0.1156
  993YOPC   GL214066   8.768   1.818   5.802  0.0935  0.1770 -0.0383
  993YOPC   C1A14067   8.487   1.930   6.131 -0.1812  0.0874  0.0062
  993YOPC   D2A14068   8.429   2.027   6.464 -0.1442  0.0493 -0.0501
  993YOPC   C3A14069   8.781   2.336   6.587  0.2094 -0.0246  0.1870
  993YOPC   C4A14070   8.884   2.498   7.007  0.0279  0.3346  0.1566
  993YOPC   C1B14071   8.720   2.346   5.816 -0.0046  0.3167  0.0757
  993YOPC   C2B14072   8.846   2.667   5.991  0.0785  0.2097  0.3533
  993YOPC   D3B14073   9.170   2.659   6.257  0.0143  0.0221 -0.1806
  993YOPC   C4B14074   9.262   2.609   6.704  0.0581 -0.0110 -0.1430
  994YOPC   NC314075   5.216  12.130   5.264  0.0925 -0.2587  0.0318
  994YOPC   PO414076   5.056  12.138   5.670 -0.0710 -0.2240 -0.0893
  994YOPC   GL114077   5.126  12.424   6.092  0.2849 -0.0560  0.0440
  994YOPC   GL214078   5.407  12.608   6.196 -0.1345 -0.2980  0.2052
  994YOPC   C1A14079   4.945  12.611   6.407 -0.1228  0.1091 -0.1625
  994YOPC   D2A14080   4.930  12.496   6.906 -0.0366 -0.0450  0.0336
  994YOPC   C3A14081   4.651  12.151   6.959  0.0683  0.1530  0.0324
  994YOPC   C4A14082   4.288  12.205   7.077 -0.1207 -0.1782 -0.0320
  994YOPC   C1B14083   5.367  12.725   6.610  0.1547  0.0197  0.2681
  994YOPC   C2B14084   5.195  13.025   6.874 -0.0637 -0.0994  0.3495
  994YOPC   D3B14085   5.182  12.840   7.225 -0.1258  0.0977 -0.2700
  994YOPC   C4B14086   5.027  12.792   7.686  0.0582  0.3570 -0.0985
  995YOPC   NC314087  14.652   7.441   5.301 -0.1185  0.0640 -0.0476
  995YOPC   PO414088  14.669   7.063   5.153  0.0284 -0.0337  0.3379
  995YOPC   GL114089  15.056   6.928   5.429  0.0113 -0.3094  0.0622
  995YOPC   GL214090  15.187   7.236   5.411 -0.1561  0.1316  0.2300
  995YOPC   C1A14091  15.113   6.532   5.729 -0.1438 -0.2361 -0.0034
  995YOPC   D2A14092  15.199   6.444   6.153 -0.1324  0.2298 -0.4022
  995YOPC   C3A14093  15.064   6.126   6.386 -0.2029 -0.0634  0.0117
  995YOPC   C4A14094  14.683   5.941   6.335  0.0752 -0.2542  0.0318
  995YOPC   C1B14095  15.279   7.286   5.827 -0.2264 -0.2565 -0.2467
  995YOPC   C2B14096  15.503   7.355   6.276 -0.1071 -0.0491  0.0191
  995YOPC   D3B14097  15.554   7.013   6.454  0.0310 -0.0655 -0.0939
  995YOPC   C4B14098  15.573   6.575   6.474  0.1882 -0.1602  0.0252
  996YOPC   NC314099   9.470  13.819   5.436  0.0341  0.0336 -0.0401
  996YOPC   PO414100   9.791  13.542   5.324 -0.0517 -0.1261 -0.2100
  996YOPC   GL114101   9.871  13.570   5.768  0.3068 -0.1147 -0.3245
  996YOPC   GL214102   9.510  13.488   5.947 -0.2763 -0.2545 -0.4464
  996YOPC   C1A14103   9.837  13.775   6.207 -0.1652 -0.1226  0.0801
  996YOPC   D2A14104   9.786  13.688   6.598  0.0560  0.0108  0.3049
  996YOPC   C3A14105   9.577  13.373   6.792 -0.1130  0.0186  0.0714
  996YOPC   C4A14106   9.667  12.869   7.009 -0.3694 -0.3662 -0.3014
  996YOPC   C1B14107   9.374  13.294   6.354  0.0820 -0.0629  0.1652
  996YOPC   C2B14108   9.095  13.338   6.732 -0.3491  0.1262  0.2932
  996YOPC   D3B14109   9.231  13.506   7.202  0.1567  0.1149  0.0956
  996YOPC   C4B14110   9.536  13.548   7.571  0.1577 -0.4435  0.0757
  997YOPC   NC314111   9.137  18.693   5.427  0.3866  0.1466  0.1245
  997YOPC   PO414112   9.551  18.638   5.315  0.0859 -0.2573  0.2550
  997YOPC   GL114113   9.491  18.616   5.806  0.0935 -0.1247  0.0679
  997YOPC   GL214114   9.183  18.805   5.909 -0.1644 -0.0937 -0.1380
  997YOPC   C1A14115   9.402  18.369   6.219 -0.0432 -0.0075  0.0052
  997YOPC   D2A14116   9.367  18.352   6.736  0.1863  0.4430 -0.1268
  997YOPC   C3A14117   9.495  18.752   6.905  0.1614  0.0090  0.1901
  997YOPC   C4A14118   9.323  19.076   7.053  0.2085  0.1749 -0.2255
  997YOPC   C1B14119   8.820  18.948   6.228  0.0533 -0.2494  0.3393
  997YOPC   C2B14120   8.732  19.195   6.460 -0.0075 -0.0640 -0.1996
  997YOPC   D3B14121   8.469  19.192   6.861 -0.1076  0.2407  0.0369
  997YOPC   C4B14122   8.404  18.859   7.163 -0.0655  0.0625 -0.0207
  998YOPC   NC314123   3.879   8.669   5.561  0.1656  0.0311 -0.2041
  998YOPC   PO414124   3.469   8.895   5.512 -0.3845 -0.0633 -0.2756
  998YOPC   GL114125   3.358   8.635   5.852  0.2439 -0.2485  0.5176
  998YOPC   GL214126   3.019   8.507   5.798 -0.2295 -0.1678  0.3460
  998YOPC   C1A14127   3.236   8.151   5.947 -0.0109  0.3216 -0.1745
  998YOPC   D2A14128   2.909   7.978   6.185 -0.0872  0.0701 -0.0739
  998YOPC   C3A14129   2.793   8.127   6.527  0.3178 -0.1266 -0.0117
  998YOPC   C4A14130   2.794   8.496   6.773 -0.0665  0.1758 -0.0860
  998YOPC   C1B14131   3.142   8.498   6.343  0.0546  0.2654 -0.1546
  998YOPC   C2B14132   3.392   8.678   6.606 -0.0767 -0.1263 -0.0872
  998YOPC   D3B14133   3.416   8.568   7.010 -0.2195 -0.1955 -0.3978
  998YOPC   C4B14134   3.411   8.360   7.449 -0.4803 -0.3648 -0.2199
  999YOPC   NC314135  10.311  15.095   4.955  0.1834 -0.0675  0.1601
  999YOPC   PO414136  10.203  15.150   5.376  0.2674  0.0618  0.0512
  999YOPC   GL114137  10.429  15.065   5.677  0.0172  0.0339 -0.1212
  999YOPC   GL214138  10.070  15.116   5.831  0.1726 -0.1381 -0.2625
  999YOPC   C1A14139  10.510  15.065   6.151  0.0659  0.1089  0.2298
  999YOPC   D2A14140  10.440  15.083   6.530  0.0245  0.0959  0.1275
  999YOPC   C3A14141  10.554  14.926   6.947 -0.1577  0.0724  0.2074
  999YOPC   C4A14142  10.580  14.491   7.155  0.0005  0.1373  0.0347
  999YOPC   C1B14143   9.840  15.360   6.121 -0.1106 -0.0411  0.0195
  999YOPC   C2B14144   9.432  15.320   6.279  0.2917  0.2962 -0.0367
  999YOPC   D3B14145   9.476  15.272   6.669  0.0855 -0.1841 -0.2415
  999YOPC   C4B14146   9.590  15.131   7.004 -0.3322  0.1333 -0.0791
 1000YOPC   NC314147   1.086  11.656   5.064 -0.0397  0.2917 -0.0008
 1000YOPC   PO414148   0.641  11.741   5.274  0.1013 -0.2671  0.0603
 1000YOPC   GL114149   0.503  11.567   5.651 -0.1645  0.0171  0.1145
 1000YOPC   GL214150   0.407  11.816   5.772 -0.0254 -0.0203 -0.1338
 1000YOPC   C1A14151   0.307  11.342   5.947  0.2593  0.0761 -0.0380
 1000YOPC   D2A14152   0.224  11.062   6.352  0.0085  0.0329  0.1090
 1000YOPC   C3A14153  -0.113  10.955   6.608 -0.1298  0.2398  0.1991
 1000YOPC   C4A14154  -0.298  11.223   6.968  0.2213  0.0642 -0.0351
 1000YOPC   C1B14155   0.408  12.228   6.077  0.0856  0.0552  0.0727
 1000YOPC   C2B14156   0.177  12.362   6.485 -0.1263 -0.3090  0.2575
 1000YOPC   D3B14157  -0.038  12.560   6.806  0.4013  0.1295  0.0459
 1000YOPC   C4B14158   0.196  12.733   7.135 -0.0440 -0.0527 -0.1369
 1001YOPC   NC314159   0.369   7.865   5.223 -0.0656 -0.1322  0.2285
 1001YOPC   PO414160   0.186   7.512   5.414 -0.0499  0.0224  0.2705
 1001YOPC   GL114161   0.273   7.355   5.848 -0.1010 -0.3473 -0.0935
 1001YOPC   GL214162   0.663   7.450   5.889 -0.0243  0.3232  0.1833
 1001YOPC   C1A14163   0.030   7.461   6.182 -0.2501  0.0279 -0.2839
 1001YOPC   D2A14164  -0.324   7.366   6.380  0.0075  0.3088  0.0964
 1001YOPC   C3A14165  -0.372   6.892   6.297 -0.0376 -0.0652  0.2465
 1001YOPC   C4A14166  -0.612   6.376   6.322 -0.3334  0.1048 -0.0164
 1001YOPC   C1B14167   0.703   7.458   6.383 -0.0777 -0.0429  0.3616
 1001YOPC   C2B14168   0.444   7.193   6.687  0.2594 -0.0777 -0.0259
 1001YOPC   D3B14169   0.567   6.926   7.018 -0.4365  0.0990 -0.0594
 1001YOPC   C4B14170   0.894   6.661   6.842  0.0609  0.2625 -0.2500
 1002YOPC   NC314171   7.596  17.705   5.487  0.1964 -0.0192 -0.0170
 1002YOPC   PO414172   7.704  18.081   5.244  0.0392 -0.1901 -0.0745
 1002YOPC   GL114173   7.532  18.239   5.596 -0.1494  0.1304 -0.0780
 1002YOPC   GL214174   7.796  18.028   5.782 -0.0194  0.0091 -0.1484
 1002YOPC   C1A14175   7.458  18.367   6.007  0.0849  0.1890 -0.1645
 1002YOPC   D2A14176   7.379  18.286   6.481  0.0252 -0.1027 -0.2645
 1002YOPC   C3A14177   7.573  18.560   6.682  0.3718  0.1553 -0.1683
 1002YOPC   C4A14178   7.885  18.656   7.027 -0.2215  0.1927 -0.0355
 1002YOPC   C1B14179   8.127  17.828   5.827 -0.0299 -0.0486  0.1225
 1002YOPC   C2B14180   8.579  17.685   6.073  0.2682 -0.4958 -0.0975
 1002YOPC   D3B14181   8.752  17.925   6.231 -0.1821  0.0321 -0.1518
 1002YOPC   C4B14182   8.968  17.950   6.598 -0.3127  0.1964  0.0528
 1003YOPC   NC314183  11.584   1.620   5.345  0.3559  0.1604 -0.3859
 1003YOPC   PO414184  11.172   1.564   5.250 -0.2731  0.2192  0.2472
 1003YOPC   GL114185  11.002   1.643   5.610 -0.2022 -0.2318 -0.0178
 1003YOPC   GL214186  10.949   1.405   5.740  0.1060  0.1155  0.1179
 1003YOPC   C1A14187  10.999   1.691   6.141 -0.0940 -0.1052 -0.0003
 1003YOPC   D2A14188  10.981   1.540   6.517  0.0765 -0.0379 -0.0898
 1003YOPC   C3A14189  10.690   1.848   6.872 -0.1537 -0.0851  0.4457
 1003YOPC   C4A14190  10.719   2.257   6.962  0.2271  0.2228  0.1882
 1003YOPC   C1B14191  11.031   1.214   6.098  0.0088 -0.0377 -0.1097
 1003YOPC   C2B14192  10.647   1.177   6.410 -0.2521  0.4967 -0.0059
 1003YOPC   D3B14193  10.431   1.045   6.890 -0.1433 -0.1194 -0.3156
 1003YOPC   C4B14194  10.059   1.062   7.150  0.1115 -0.1543  0.1702
 1004YOPC   NC314195  18.332  15.623   5.571  0.0388  0.1780  0.0789
 1004YOPC   PO414196  18.035  15.810   5.697  0.1966 -0.1717  0.0464
 1004YOPC   GL114197  18.072  15.494   6.023  0.0458  0.4158  0.3389
 1004YOPC   GL214198  18.321  15.569   6.094  0.1472 -0.0374 -0.2763
 1004YOPC   C1A14199  17.822  15.207   6.352  0.3859 -0.3903  0.0365
 1004YOPC   D2A14200  17.913  15.153   6.784  0.1174  0.1086  0.0750
 1004YOPC   C3A14201  18.289  14.961   6.927  0.0807 -0.2756  0.0392
 1004YOPC   C4A14202  18.754  14.795   7.078  0.0710 -0.0225 -0.0793
 1004YOPC   C1B14203  18.679  15.570   6.252  0.0331 -0.2124 -0.1220
 1004YOPC   C2B14204  18.764  15.652   6.698 -0.1919 -0.1110 -0.0523
 1004YOPC   D3B14205  18.621  15.829   6.992 -0.2534 -0.3535  0.3720
 1004YOPC   C4B14206  18.608  16.193   7.291  0.1511 -0.2315 -0.1624
 1005YOPC   NC314207  14.029   5.391   5.064 -0.2743  0.4516 -0.0063
 1005YOPC   PO414208  13.869   5.533   5.434 -0.2637 -0.0939  0.1174
 1005YOPC   GL114209  13.812   5.478   5.831 -0.1377 -0.1836 -0.0993
 1005YOPC   GL214210  13.718   5.194   5.893 -0.2209 -0.0721 -0.2942
 1005YOPC   C1A14211  13.894   5.619   6.199  0.1301  0.4100  0.6184
 1005YOPC   D2A14212  13.794   5.951   6.502  0.3753  0.1729  0.4889
 1005YOPC   C3A14213  13.323   6.087   6.437 -0.0959 -0.0481  0.0440
 1005YOPC   C4A14214  12.970   5.909   6.741 -0.1168  0.0986  0.1458
 1005YOPC   C1B14215  13.598   5.200   6.267  0.0155 -0.1193  0.1742
 1005YOPC   C2B14216  13.878   4.955   6.668  0.0323  0.0442 -0.0932
 1005YOPC   D3B14217  14.260   5.082   7.033  0.1689 -0.3454 -0.1859
 1005YOPC   C4B14218  14.539   5.069   7.390 -0.0229  0.2576 -0.0085
 1006YOPC   NC314219   2.485  10.343   5.266  0.3501 -0.1040  0.1448
 1006YOPC   PO414220   2.104  10.161   5.218  0.3464  0.4223 -0.3272
 1006YOPC   GL114221   1.877  10.253   5.583  0.3564 -0.1019  0.1017
 1006YOPC   GL214222   2.160  10.547   5.689  0.1896  0.1002  0.1269
 1006YOPC   C1A14223   1.816  10.303   6.021  0.0172 -0.0023  0.4872
 1006YOPC   D2A14224   1.863  10.282   6.420 -0.1190  0.1192 -0.1037
 1006YOPC   C3A14225   2.217  10.079   6.616 -0.5417 -0.2354 -0.0127
 1006YOPC   C4A14226   2.363  10.113   7.065  0.0269  0.1965 -0.0316
 1006YOPC   C1B14227   2.264  10.958   5.922  0.1306 -0.1107 -0.2176
 1006YOPC   C2B14228   2.433  11.124   6.235  0.2705 -0.1230  0.1689
 1006YOPC   D3B14229   2.169  11.313   6.475 -0.0185 -0.2189 -0.2527
 1006YOPC   C4B14230   1.950  11.527   6.843 -0.0806  0.0788  0.2671
 1007YOPC   NC314231  13.150   1.895   5.158 -0.1427  0.2099 -0.0275
 1007YOPC   PO414232  13.047   1.484   5.136  0.3425 -0.1380 -0.0024
 1007YOPC   GL114233  13.123   1.529   5.623 -0.0249  0.0920  0.1478
 1007YOPC   GL214234  12.949   1.448   5.908  0.3017  0.4542 -0.0947
 1007YOPC   C1A14235  13.437   1.673   5.926 -0.2551 -0.0703  0.3256
 1007YOPC   D2A14236  13.710   1.802   6.212  0.1414  0.0440 -0.1916
 1007YOPC   C3A14237  13.618   2.009   6.486  0.2847 -0.0962 -0.3038
 1007YOPC   C4A14238  13.328   2.005   6.906 -0.0676 -0.0258  0.0254
 1007YOPC   C1B14239  13.087   1.536   6.239  0.0433 -0.1132  0.1619
 1007YOPC   C2B14240  13.057   1.760   6.480 -0.2395 -0.2829  0.3120
 1007YOPC   D3B14241  12.957   1.550   6.819  0.3846  0.1221 -0.0937
 1007YOPC   C4B14242  13.103   1.174   6.894 -0.1894 -0.1562 -0.0251
 1008YOPC   NC314243   5.319  18.305   4.819 -0.3441  0.0883  0.1875
 1008YOPC   PO414244   5.343  18.031   5.239 -0.0119  0.2955  0.0010
 1008YOPC   GL114245   5.092  17.861   5.632 -0.0400 -0.0800 -0.0660
 1008YOPC   GL214246   5.250  17.624   5.766 -0.3824  0.1266  0.1513
 1008YOPC   C1A14247   4.837  17.912   5.974  0.2123  0.0338  0.3036
 1008YOPC   D2A14248   4.578  17.776   6.237 -0.0118  0.0628  0.3775
 1008YOPC   C3A14249   4.234  17.948   6.423  0.0162 -0.2177 -0.1481
 1008YOPC   C4A14250   4.120  18.429   6.496 -0.1382 -0.0713  0.0304
 1008YOPC   C1B14251   5.333  17.911   6.088  0.3826 -0.0386 -0.0357
 1008YOPC   C2B14252   5.642  17.993   6.408 -0.2198  0.2055 -0.0115
 1008YOPC   D3B14253   5.488  18.291   6.737 -0.1425  0.6388  0.1631
 1008YOPC   C4B14254   5.284  18.341   7.093  0.4309 -0.1834 -0.1159
 1009YOPC   NC314255   9.114   0.636   4.727 -0.0642  0.0927 -0.0552
 1009YOPC   PO414256   9.245   0.892   5.110  0.4757 -0.2309 -0.0446
 1009YOPC   GL114257   9.341   0.856   5.504 -0.0659 -0.1074 -0.3351
 1009YOPC   GL214258   9.558   1.068   5.552 -0.1173 -0.0237 -0.1861
 1009YOPC   C1A14259   9.305   0.514   5.729  0.4150  0.0215 -0.0559
 1009YOPC   D2A14260   9.458   0.325   6.124  0.2154  0.4859 -0.0037
 1009YOPC   C3A14261   9.235  -0.032   6.284 -0.2729  0.1106  0.1432
 1009YOPC   C4A14262   9.276  -0.400   6.421 -0.0880  0.1372  0.3381
 1009YOPC   C1B14263   9.470   1.166   6.029 -0.4785 -0.3892 -0.0060
 1009YOPC   C2B14264   9.486   1.225   6.453 -0.1272 -0.2531  0.1039
 1009YOPC   D3B14265   9.070   1.117   6.703  0.0961 -0.1773 -0.1799
 1009YOPC   C4B14266   8.817   1.256   6.973 -0.2291 -0.0146  0.1402
 1010YOPC   NC314267   1.314  15.654   4.917 -0.4258 -0.3330 -0.0076
 1010YOPC   PO414268   1.422  15.675   5.379  0.1690  0.3193  0.1363
 1010YOPC   GL114269   1.503  15.725   5.788  0.0439 -0.5953  0.0603
 1010YOPC   GL214270   1.635  15.477   5.978  0.1879  0.2634  0.1181
 1010YOPC   C1A14271   1.438  15.896   6.234 -0.1457  0.1613 -0.0051
 1010YOPC   D2A14272   1.455  15.739   6.652 -0.0925  0.0038  0.1706
 1010YOPC   C3A14273   1.433  15.454   6.923  0.2593 -0.0060  0.1159
 1010YOPC   C4A14274   1.442  15.229   7.358 -0.2319  0.2415  0.1653
 1010YOPC   C1B14275   1.742  15.308   6.476  0.1223  0.2222 -0.4576
 1010YOPC   C2B14276   1.894  15.000   6.909  0.1370  0.1143 -0.0314
 1010YOPC   D3B14277   2.164  14.736   7.088  0.3896 -0.1654  0.1011
 1010YOPC   C4B14278   2.258  14.436   7.163  0.2336  0.0721  0.1146
 1011YOPC   NC314279  14.689   3.545   4.872  0.3311  0.0126  0.1267
 1011YOPC   PO414280  14.372   3.161   4.991  0.3481 -0.0048  0.5443
 1011YOPC   GL114281  14.074   3.300   5.330  0.0098  0.1364 -0.0806
 1011YOPC   GL214282  14.262   3.395   5.545  0.1982 -0.4958  0.1494
 1011YOPC   C1A14283  13.849   3.190   5.746  0.0532  0.2817  0.5616
 1011YOPC   D2A14284  13.832   3.126   6.161  0.1714 -0.2859  0.5235
 1011YOPC   C3A14285  14.044   3.334   6.451 -0.0844 -0.0778  0.6131
 1011YOPC   C4A14286  14.046   3.675   6.844  0.0239 -0.0645 -0.2008
 1011YOPC   C1B14287  14.394   3.418   5.967  0.0865 -0.2687  0.1061
 1011YOPC   C2B14288  14.673   3.438   6.391  0.1728  0.2237  0.2162
 1011YOPC   D3B14289  14.501   3.204   6.717  0.0776  0.0238  0.0123
 1011YOPC   C4B14290  14.190   3.222   6.987  0.0536 -0.0037 -0.1210
 1012YOPC   NC314291   4.992  15.788   5.368 -0.2557 -0.2790  0.1342
 1012YOPC   PO414292   4.921  16.212   5.485 -0.0024  0.2869  0.1678
 1012YOPC   GL114293   4.900  15.950   5.885 -0.1299 -0.2003 -0.4685
 1012YOPC   GL214294   4.814  15.645   5.879  0.0042  0.0275 -0.0986
 1012YOPC   C1A14295   4.911  16.016   6.271 -0.0284  0.0402 -0.1831
 1012YOPC   D2A14296   4.660  16.291   6.491  0.2449  0.0167 -0.0616
 1012YOPC   C3A14297   4.810  16.096   6.915  0.2913 -0.1454  0.2592
 1012YOPC   C4A14298   4.846  15.965   7.301 -0.0554  0.0843 -0.2646
 1012YOPC   C1B14299   4.847  15.245   6.026 -0.1869 -0.0960  0.1675
 1012YOPC   C2B14300   4.553  15.031   6.206  0.0943 -0.0535  0.3159
 1012YOPC   D3B14301   4.544  15.227   6.609  0.2220 -0.1167 -0.3991
 1012YOPC   C4B14302   4.870  15.213   6.822  0.0312 -0.0389  0.1194
 1013YOPC   NC314303   5.620   4.994   5.103  0.0877 -0.2161 -0.0554
 1013YOPC   PO414304   5.857   5.285   4.891 -0.0915 -0.0171  0.2454
 1013YOPC   GL114305   5.940   5.260   5.348  0.0658 -0.2267  0.0976
 1013YOPC   GL214306   5.620   5.315   5.492 -0.0019  0.0847  0.0474
 1013YOPC   C1A14307   6.061   5.065   5.716 -0.1041  0.2041 -0.0022
 1013YOPC   D2A14308   6.346   5.154   6.035  0.2973 -0.0545 -0.0703
 1013YOPC   C3A14309   6.688   4.997   6.164 -0.1722  0.0734  0.0135
 1013YOPC   C4A14310   6.787   4.575   6.388  0.1156 -0.0926 -0.1309
 1013YOPC   C1B14311   5.876   5.488   5.848  0.1479 -0.1026  0.3618
 1013YOPC   C2B14312   5.889   5.460   6.383 -0.0122 -0.3051 -0.0475
 1013YOPC   D3B14313   6.253   5.591   6.578 -0.1082  0.0891  0.0503
 1013YOPC   C4B14314   6.382   5.573   6.954  0.1148 -0.1302 -0.0693
 1014YOPC   NC314315  13.330  12.567   5.588 -0.1485 -0.0719 -0.1218
 1014YOPC   PO414316  12.992  12.857   5.762 -0.2251 -0.1376  0.0215
 1014YOPC   GL114317  13.184  12.682   6.162  0.0612  0.1576  0.1718
 1014YOPC   GL214318  13.273  12.812   6.458 -0.0784  0.3386 -0.0764
 1014YOPC   C1A14319  13.168  12.304   6.443  0.0433 -0.3504  0.1458
 1014YOPC   D2A14320  13.229  12.208   6.881 -0.3289 -0.1619  0.1315
 1014YOPC   C3A14321  13.542  12.134   7.123 -0.0122  0.0064 -0.2167
 1014YOPC   C4A14322  13.631  12.041   7.526 -0.0370 -0.0906 -0.0779
 1014YOPC   C1B14323  12.998  12.647   6.853  0.1936  0.1550  0.3525
 1014YOPC   C2B14324  12.831  12.316   7.098  0.2443 -0.1685 -0.0409
 1014YOPC   D3B14325  12.796  11.854   7.135  0.5432 -0.1329 -0.0576
 1014YOPC   C4B14326  12.725  11.449   7.277 -0.0745 -0.1960  0.1458
 1015YOPC   NC314327  15.113   5.046   5.364 -0.0169 -0.0123  0.1136
 1015YOPC   PO414328  15.090   4.622   5.470  0.2371  0.2392  0.3358
 1015YOPC   GL114329  15.159   4.655   5.913 -0.1167 -0.0978 -0.0992
 1015YOPC   GL214330  14.940   4.570   6.054  0.0576  0.0551 -0.1677
 1015YOPC   C1A14331  15.263   5.037   6.348  0.3243 -0.1057  0.2719
 1015YOPC   D2A14332  15.283   5.241   6.799  0.0638  0.0907 -0.0063
 1015YOPC   C3A14333  15.465   5.567   6.964 -0.1354 -0.0162 -0.3127
 1015YOPC   C4A14334  15.756   5.615   7.359  0.1808  0.3890  0.0451
 1015YOPC   C1B14335  14.772   4.796   6.286  0.0547  0.2056  0.0534
 1015YOPC   C2B14336  14.763   4.858   6.688  0.1226 -0.0168 -0.2561
 1015YOPC   D3B14337  14.759   5.238   6.902  0.2626  0.2070  0.0594
 1015YOPC   C4B14338  15.061   5.469   7.186  0.0162 -0.0538 -0.1197
 1016YOPC   NC314339  18.843  12.379   4.748  0.1160 -0.2689  0.0180
 1016YOPC   PO414340  18.811  12.439   5.184 -0.0360  0.2038  0.1576
 1016YOPC   GL114341  18.997  12.280   5.538 -0.0338  0.1079 -0.2469
 1016YOPC   GL214342  19.080  12.004   5.700 -0.3006 -0.0210  0.3401
 1016YOPC   C1A14343  19.269  12.519   5.882 -0.1249  0.1768 -0.1229
 1016YOPC   D2A14344  19.669  12.770   6.084  0.2181 -0.0230  0.3949
 1016YOPC   C3A14345  19.703  12.773   6.505 -0.0863 -0.0147 -0.1229
 1016YOPC   C4A14346  20.128  12.790   6.716 -0.1889  0.2265 -0.2612
 1016YOPC   C1B14347  19.219  11.915   6.199 -0.0713  0.2495  0.1968
 1016YOPC   C2B14348  18.965  12.113   6.586 -0.1170 -0.1172  0.0380
 1016YOPC   D3B14349  18.677  12.431   6.711  0.0730  0.1035  0.1830
 1016YOPC   C4B14350  18.276  12.505   6.467 -0.0300  0.0764  0.2458
 1017YOPC   NC314351   3.413   9.919   5.237  0.0089  0.3584 -0.1724
 1017YOPC   PO414352   3.728   9.604   5.250  0.1821  0.4278  0.0095
 1017YOPC   GL114353   3.943   9.529   5.617  0.2153 -0.1281 -0.0604
 1017YOPC   GL214354   3.805   9.276   5.856  0.0454  0.1466 -0.2423
 1017YOPC   C1A14355   4.052   9.676   6.044  0.2913  0.0753 -0.0314
 1017YOPC   D2A14356   4.017   9.709   6.545  0.5290  0.2164  0.2882
 1017YOPC   C3A14357   3.942   9.298   6.780 -0.0739 -0.1017  0.1805
 1017YOPC   C4A14358   3.788   8.875   6.927  0.0525 -0.0742  0.0380
 1017YOPC   C1B14359   3.653   9.515   6.236 -0.1649 -0.0764  0.0073
 1017YOPC   C2B14360   3.473   9.483   6.684  0.1580  0.1326  0.2503
 1017YOPC   D3B14361   3.699   9.651   7.065 -0.0931 -0.1038  0.0304
 1017YOPC   C4B14362   4.131   9.679   7.004  0.1210 -0.0594 -0.2850
 1018YOPC   NC314363  13.968  16.948   5.171  0.2367  0.0038 -0.0314
 1018YOPC   PO414364  13.929  17.346   5.500  0.2483 -0.1181 -0.2760
 1018YOPC   GL114365  13.863  17.229   5.965 -0.1629 -0.2909 -0.3575
 1018YOPC   GL214366  13.758  17.432   6.168 -0.0898  0.0284 -0.0722
 1018YOPC   C1A14367  13.971  16.967   6.342  0.0791  0.0590 -0.1408
 1018YOPC   D2A14368  14.134  16.882   6.677  0.0244  0.0385 -0.1338
 1018YOPC   C3A14369  14.441  17.103   6.932  0.1242  0.2884 -0.0824
 1018YOPC   C4A14370  14.556  17.343   7.262 -0.0288 -0.2786 -0.1403
 1018YOPC   C1B14371  13.551  17.879   6.100 -0.1251 -0.1665  0.1210
 1018YOPC   C2B14372  13.373  18.127   6.316  0.2622  0.2010 -0.0895
 1018YOPC   D3B14373  13.474  18.166   6.770  0.2488 -0.0828  0.1316
 1018YOPC   C4B14374  13.286  18.160   7.122 -0.1744  0.0888 -0.0097
 1019YOPC   NC314375  17.034  10.361   5.270  0.2506 -0.1372  0.3222
 1019YOPC   PO414376  17.382  10.163   5.488  0.1347 -0.0483  0.0817
 1019YOPC   GL114377  17.266  10.346   5.830  0.1345 -0.3639 -0.1350
 1019YOPC   GL214378  17.149  10.642   5.734 -0.1427 -0.1886  0.1572
 1019YOPC   C1A14379  17.151  10.455   6.278  0.0327  0.2103 -0.0225
 1019YOPC   D2A14380  17.010  10.353   6.598  0.4611  0.2193 -0.0024
 1019YOPC   C3A14381  16.879  10.019   6.864  0.0132 -0.1438 -0.3729
 1019YOPC   C4A14382  16.794   9.774   7.277 -0.0932 -0.3053  0.1688
 1019YOPC   C1B14383  16.816  10.518   5.898  0.1817  0.3016 -0.3927
 1019YOPC   C2B14384  16.690  10.524   6.298  0.1989  0.2341  0.2719
 1019YOPC   D3B14385  16.510  10.298   6.618  0.1621  0.3073  0.1419
 1019YOPC   C4B14386  16.506  10.269   7.037 -0.0842  0.1659 -0.2059
 1020YOPC   NC314387   5.051   8.946   5.111  0.1622  0.4559  0.2953
 1020YOPC   PO414388   5.039   8.447   5.170  0.0361  0.3649 -0.0552
 1020YOPC   GL114389   4.846   8.336   5.625  0.1512  0.2620  0.1194
 1020YOPC   GL214390   4.777   7.937   5.597 -0.3415  0.1330 -0.0075
 1020YOPC   C1A14391   4.704   8.519   6.129 -0.1133 -0.2258 -0.2090
 1020YOPC   D2A14392   4.618   8.924   6.319 -0.0852  0.0830  0.1976
 1020YOPC   C3A14393   4.407   8.866   6.729  0.0338  0.3051  0.0646
 1020YOPC   C4A14394   4.332   9.096   7.047  0.0091 -0.1160  0.0863
 1020YOPC   C1B14395   4.520   8.090   5.950  0.2365 -0.1851  0.0764
 1020YOPC   C2B14396   4.549   8.024   6.412  0.0103  0.1573 -0.3177
 1020YOPC   D3B14397   4.781   7.670   6.517  0.2480 -0.0959  0.1454
 1020YOPC   C4B14398   5.035   7.652   6.856 -0.3071  0.3387 -0.2863
 1021YOPC   NC314399   7.729   2.171   5.225  0.0977  0.1209 -0.5522
 1021YOPC   PO414400   7.442   2.523   5.111  0.1079  0.2705 -0.0354
 1021YOPC   GL114401   7.233   2.229   5.574  0.0611  0.1853  0.1254
 1021YOPC   GL214402   7.469   2.184   5.763  0.1142  0.0821  0.1416
 1021YOPC   C1A14403   6.852   2.296   5.910  0.1414  0.1457 -0.0829
 1021YOPC   D2A14404   6.744   2.458   6.356  0.2018 -0.2424 -0.2381
 1021YOPC   C3A14405   6.612   2.591   6.740  0.5562 -0.1139  0.0118
 1021YOPC   C4A14406   6.343   2.852   7.052  0.0499 -0.1511  0.0407
 1021YOPC   C1B14407   7.385   2.068   6.245  0.1535 -0.1248 -0.1141
 1021YOPC   C2B14408   7.229   2.240   6.637  0.1846  0.2120 -0.0258
 1021YOPC   D3B14409   6.849   2.160   6.843  0.1513  0.1147  0.0789
 1021YOPC   C4B14410   6.433   1.911   7.067 -0.1906  0.1374  0.1349
 1022YOPC   NC314411  18.377   3.891   5.822  0.0702 -0.0449  0.1708
 1022YOPC   PO414412  18.624   4.328   5.801 -0.1581 -0.0820  0.3232
 1022YOPC   GL114413  18.379   4.323   6.212 -0.0951  0.2757 -0.0657
 1022YOPC   GL214414  18.224   3.987   6.272  0.0490  0.1097 -0.1243
 1022YOPC   C1A14415  18.389   4.331   6.652  0.1443 -0.1126 -0.1035
 1022YOPC   D2A14416  18.277   4.240   7.060 -0.0585 -0.0992  0.0331
 1022YOPC   C3A14417  18.563   4.600   7.109 -0.1205  0.1285  0.1107
 1022YOPC   C4A14418  18.739   4.754   7.542  0.3390 -0.1040 -0.0932
 1022YOPC   C1B14419  17.825   3.744   6.387 -0.0655 -0.0692 -0.0721
 1022YOPC   C2B14420  17.623   3.540   6.496 -0.1178  0.1082  0.1207
 1022YOPC   D3B14421  17.387   3.687   6.971 -0.1541 -0.1043  0.0814
 1022YOPC   C4B14422  17.206   4.096   7.203 -0.1090 -0.1172  0.3272
 1023YOPC   NC314423   5.400   6.287   5.262  0.1072  0.2222  0.2550
 1023YOPC   PO414424   5.676   5.960   5.398 -0.2880 -0.0628  0.0103
 1023YOPC   GL114425   5.640   6.007   5.834 -0.2400 -0.0874 -0.2315
 1023YOPC   GL214426   5.587   6.340   5.832  0.0531  0.1571  0.2216
 1023YOPC   C1A14427   5.870   5.884   6.199 -0.0589 -0.2885 -0.3270
 1023YOPC   D2A14428   5.905   5.992   6.590  0.3539  0.3159 -0.1643
 1023YOPC   C3A14429   5.859   5.668   6.841  0.1913  0.2585 -0.0350
 1023YOPC   C4A14430   5.533   5.476   7.025 -0.2393 -0.2608  0.2939
 1023YOPC   C1B14431   5.809   6.355   6.172  0.1330 -0.0247  0.0055
 1023YOPC   C2B14432   6.136   6.402   6.440 -0.2865  0.0740  0.1919
 1023YOPC   D3B14433   6.161   6.608   6.782  0.2348 -0.2786  0.5255
 1023YOPC   C4B14434   6.183   6.789   7.222 -0.1813  0.0676  0.0098
 1024YOPC   NC314435   7.698   9.786   5.068 -0.0658 -0.2754  0.2309
 1024YOPC   PO414436   8.004   9.873   5.139  0.3304 -0.2976  0.0018
 1024YOPC   GL114437   8.195   9.730   5.472  0.0704  0.1823 -0.0866
 1024YOPC   GL214438   7.958   9.659   5.789 -0.3326 -0.0105  0.3476
 1024YOPC   C1A14439   8.409   9.837   5.915 -0.1424  0.1610 -0.1425
 1024YOPC   D2A14440   8.504  10.049   6.335 -0.2996 -0.0429 -0.0765
 1024YOPC   C3A14441   8.810   9.982   6.652  0.1048 -0.0976  0.2583
 1024YOPC   C4A14442   8.739   9.727   6.928 -0.0822  0.0800 -0.0164
 1024YOPC   C1B14443   8.039   9.597   6.208 -0.2459 -0.3253  0.0030
 1024YOPC   C2B14444   8.384   9.649   6.586 -0.3184 -0.1675 -0.0094
 1024YOPC   D3B14445   8.358  10.021   6.837  0.0433 -0.2869 -0.4938
 1024YOPC   C4B14446   8.614  10.171   7.126  0.0101 -0.2323  0.1428
 1025YOPC   NC314447  10.467   9.389   5.033  0.1876  0.0974 -0.0183
 1025YOPC   PO414448  10.507   9.753   5.257 -0.2782  0.4728  0.2462
 1025YOPC   GL114449  10.522   9.661   5.562  0.2425  0.1348 -0.0800
 1025YOPC   GL214450  10.779   9.665   5.684  0.1746 -0.2566 -0.1843
 1025YOPC   C1A14451  10.363   9.441   5.925 -0.2067 -0.5263 -0.2319
 1025YOPC   D2A14452  10.410   9.479   6.382  0.1026  0.0965  0.1333
 1025YOPC   C3A14453  10.126   9.424   6.720 -0.1652  0.2569 -0.2876
 1025YOPC   C4A14454   9.914   9.592   7.056  0.2776  0.0397  0.1059
 1025YOPC   C1B14455  10.853   9.272   5.881 -0.1353  0.1233 -0.0094
 1025YOPC   C2B14456  10.870   9.101   6.294 -0.0390 -0.2280 -0.0478
 1025YOPC   D3B14457  10.987   8.727   6.409  0.1927 -0.1896 -0.1600
 1025YOPC   C4B14458  11.207   8.173   6.315  0.1095 -0.1203  0.1717
 1026YOPC   NC314459   8.080   9.113   4.661  0.2423  0.3926 -0.4408
 1026YOPC   PO414460   8.317   8.626   4.721  0.0927  0.0682  0.0138
 1026YOPC   GL114461   8.095   8.447   5.057 -0.0813 -0.1723 -0.3021
 1026YOPC   GL214462   7.981   8.841   5.075  0.1638 -0.0461  0.3698
 1026YOPC   C1A14463   7.918   8.527   5.441  0.1225 -0.0462 -0.0217
 1026YOPC   D2A14464   7.954   8.630   5.834 -0.2418  0.1498 -0.3183
 1026YOPC   C3A14465   7.915   8.688   6.348 -0.1033  0.1758 -0.0222
 1026YOPC   C4A14466   8.089   8.680   6.876 -0.2721 -0.0638  0.2062
 1026YOPC   C1B14467   8.325   8.768   5.465 -0.2981  0.1499  0.2006
 1026YOPC   C2B14468   8.601   8.772   5.769 -0.0419  0.0741 -0.1513
 1026YOPC   D3B14469   8.738   9.092   5.948 -0.2604  0.0886 -0.1838
 1026YOPC   C4B14470   8.629   9.394   6.152  0.1487 -0.0945  0.1499
 1027YOPC   NC314471  12.277  16.740   5.767 -0.3033  0.2824  0.2726
 1027YOPC   PO414472  11.837  16.978   5.622 -0.3803 -0.3329 -0.1652
 1027YOPC   GL114473  11.640  16.821   5.947 -0.0703  0.1216 -0.0788
 1027YOPC   GL214474  11.476  17.003   6.046 -0.2126  0.0925  0.0397
 1027YOPC   C1A14475  11.441  16.574   6.303 -0.0479  0.1311 -0.0458
 1027YOPC   D2A14476  11.189  16.485   6.610 -0.1830 -0.1204 -0.0535
 1027YOPC   C3A14477  11.200  15.987   6.705  0.2953 -0.2185 -0.2235
 1027YOPC   C4A14478  10.992  15.587   6.911 -0.5341 -0.2366 -0.0091
 1027YOPC   C1B14479  11.345  17.061   6.482  0.1444 -0.2250 -0.2165
 1027YOPC   C2B14480  11.250  17.362   6.772 -0.1010 -0.2170  0.1760
 1027YOPC   D3B14481  11.463  17.248   7.118 -0.1467  0.3487  0.1628
 1027YOPC   C4B14482  11.705  17.410   7.562  0.2602  0.0671  0.1049
 1028YOPC   NC314483   5.617  11.276   4.898 -0.0829  0.1974 -0.3074
 1028YOPC   PO414484   5.349  11.336   5.219 -0.0657  0.0922 -0.0793
 1028YOPC   GL114485   5.339  11.340   5.647 -0.1341 -0.0981 -0.2649
 1028YOPC   GL214486   5.153  11.227   5.879  0.1177  0.1211 -0.2598
 1028YOPC   C1A14487   5.636  11.375   5.874 -0.0839 -0.2617  0.0717
 1028YOPC   D2A14488   5.714  11.397   6.299 -0.1781 -0.1666  0.0607
 1028YOPC   C3A14489   6.090  11.399   6.592  0.1142 -0.2632 -0.1640
 1028YOPC   C4A14490   6.304  11.650   7.000 -0.1904  0.2039  0.0881
 1028YOPC   C1B14491   4.881  11.067   6.271 -0.1300 -0.0821  0.1144
 1028YOPC   C2B14492   4.708  10.914   6.509 -0.0664  0.0999  0.0611
 1028YOPC   D3B14493   4.955  10.795   6.773  0.0516 -0.0212 -0.1333
 1028YOPC   C4B14494   5.316  10.848   6.941  0.2907 -0.1668 -0.1921
 1029YOPC   NC314495  12.610   7.784   5.175 -0.3524 -0.1452  0.0314
 1029YOPC   PO414496  12.457   7.362   5.254  0.2150 -0.2424 -0.0136
 1029YOPC   GL114497  12.588   7.433   5.591 -0.1946 -0.0369 -0.0211
 1029YOPC   GL214498  12.343   7.687   5.682  0.3652  0.0459  0.1323
 1029YOPC   C1A14499  12.996   7.525   5.967  0.0153 -0.0686  0.0192
 1029YOPC   D2A14500  13.294   7.466   6.322  0.2074 -0.0038 -0.2315
 1029YOPC   C3A14501  13.222   7.610   6.845 -0.4947 -0.1757  0.0715
 1029YOPC   C4A14502  13.343   7.828   7.258  0.1423 -0.0471  0.3178
 1029YOPC   C1B14503  12.610   7.819   6.038  0.0332 -0.0431  0.3573
 1029YOPC   C2B14504  12.952   7.791   6.425 -0.1161 -0.0362  0.0445
 1029YOPC   D3B14505  13.084   8.101   6.785 -0.3368 -0.1580  0.1433
 1029YOPC   C4B14506  13.071   8.541   6.824  0.0588  0.1109  0.1441
 1030YOPC   NC314507  13.606  11.123   5.493 -0.0370  0.1219  0.0614
 1030YOPC   PO414508  13.599  10.736   5.362 -0.2884 -0.1210  0.0987
 1030YOPC   GL114509  13.771  10.698   5.808 -0.1587  0.0091  0.2496
 1030YOPC   GL214510  14.092  10.804   5.898 -0.0833  0.0111  0.0044
 1030YOPC   C1A14511  13.663  11.037   6.108 -0.4135 -0.2180  0.0576
 1030YOPC   D2A14512  13.769  10.983   6.563  0.0659 -0.4180  0.1739
 1030YOPC   C3A14513  13.974  10.946   6.991 -0.0508  0.0621  0.1124
 1030YOPC   C4A14514  14.144  11.074   7.357  0.0445 -0.1995 -0.0322
 1030YOPC   C1B14515  13.995  10.647   6.239  0.0228 -0.1749  0.1200
 1030YOPC   C2B14516  13.979  10.476   6.637 -0.0924  0.1191 -0.2938
 1030YOPC   D3B14517  13.788  10.157   6.911  0.0657  0.2049  0.4178
 1030YOPC   C4B14518  13.545  10.151   7.285 -0.5011 -0.3890 -0.1248
 1031YOPC   NC314519  12.292  17.214   5.552 -0.3044 -0.0364 -0.0772
 1031YOPC   PO414520  12.716  16.991   5.662  0.1079 -0.0361 -0.0288
 1031YOPC   GL114521  12.758  17.145   6.073  0.1228 -0.1592  0.3486
 1031YOPC   GL214522  12.418  17.001   6.151  0.0645 -0.1178 -0.1664
 1031YOPC   C1A14523  12.832  17.400   6.514 -0.1485  0.1421  0.0455
 1031YOPC   D2A14524  12.551  17.625   6.792 -0.2484 -0.0564 -0.3938
 1031YOPC   C3A14525  12.422  17.534   7.158 -0.1408  0.1794  0.1996
 1031YOPC   C4A14526  12.675  17.535   7.487  0.0166  0.1640 -0.1042
 1031YOPC   C1B14527  12.328  16.645   6.426 -0.0493  0.2295  0.1759
 1031YOPC   C2B14528  12.108  16.397   6.738  0.2728 -0.2084  0.1215
 1031YOPC   D3B14529  11.939  16.336   7.232 -0.0615  0.0540 -0.2085
 1031YOPC   C4B14530  11.870  16.404   7.659 -0.4094  0.1844  0.3014
 1032YOPC   NC314531   3.793  16.504   5.363 -0.1127 -0.4496  0.2520
 1032YOPC   PO414532   4.021  16.210   5.582  0.1865 -0.0831 -0.0315
 1032YOPC   GL114533   4.148  16.122   5.953 -0.1289 -0.0925 -0.1639
 1032YOPC   GL214534   4.501  16.356   5.884 -0.0186  0.0164  0.0901
 1032YOPC   C1A14535   4.383  16.011   6.244  0.0713  0.3250 -0.0845
 1032YOPC   D2A14536   4.607  15.699   6.550 -0.5108  0.2833  0.1074
 1032YOPC   C3A14537   4.540  15.691   6.979 -0.1042 -0.1182  0.0195
 1032YOPC   C4A14538   4.831  15.476   7.300  0.0561  0.1744  0.1886
 1032YOPC   C1B14539   4.168  16.453   6.312 -0.1471 -0.0593 -0.0359
 1032YOPC   C2B14540   3.797  16.635   6.511 -0.0759 -0.3317 -0.5026
 1032YOPC   D3B14541   3.712  16.393   6.834 -0.1285  0.1488  0.0189
 1032YOPC   C4B14542   3.629  16.188   7.226  0.0563  0.1193 -0.1582
 1033YOPC   NC314543  15.958   0.354   5.071  0.2701  0.0319 -0.0852
 1033YOPC   PO414544  16.403   0.185   5.174 -0.1859  0.0017  0.3486
 1033YOPC   GL114545  16.221   0.382   5.581  0.0371 -0.0182 -0.0257
 1033YOPC   GL214546  15.924   0.627   5.488 -0.0018  0.1255  0.0597
 1033YOPC   C1A14547  16.168   0.546   5.951  0.1012 -0.0403 -0.2089
 1033YOPC   D2A14548  15.914   0.786   6.284 -0.4310 -0.0292 -0.1185
 1033YOPC   C3A14549  15.777   0.862   6.618 -0.0381 -0.2062 -0.0403
 1033YOPC   C4A14550  15.540   0.784   6.973 -0.0394 -0.0341 -0.0206
 1033YOPC   C1B14551  15.867   0.890   5.757 -0.1994  0.1744 -0.1048
 1033YOPC   C2B14552  15.881   1.289   5.899 -0.1762 -0.1286  0.1325
 1033YOPC   D3B14553  16.257   1.495   5.856  0.2055  0.3098 -0.0405
 1033YOPC   C4B14554  16.658   1.569   5.940  0.0569  0.1560  0.1365
 1034YOPC   NC314555  13.874   9.137   5.305  0.2715  0.0525  0.1630
 1034YOPC   PO414556  13.854   8.630   5.213 -0.0705  0.3366 -0.1312
 1034YOPC   GL114557  13.678   8.406   5.545  0.1222 -0.0093 -0.1062
 1034YOPC   GL214558  13.321   8.388   5.615 -0.2722  0.0323 -0.2241
 1034YOPC   C1A14559  13.705   8.172   5.883 -0.0395 -0.2164  0.2977
 1034YOPC   D2A14560  13.622   8.155   6.296  0.4882 -0.0454  0.1033
 1034YOPC   C3A14561  13.680   7.795   6.587 -0.1124 -0.0070  0.0487
 1034YOPC   C4A14562  13.628   7.307   6.721 -0.1006 -0.1963  0.1090
 1034YOPC   C1B14563  13.383   8.607   5.990  0.0359 -0.1560 -0.0080
 1034YOPC   C2B14564  13.187   8.518   6.333 -0.0830 -0.0092  0.0367
 1034YOPC   D3B14565  12.743   8.294   6.326 -0.3962 -0.2735  0.0566
 1034YOPC   C4B14566  12.484   8.064   6.472  0.2341  0.2611  0.2092
 1035YOPC   NC314567  11.272   7.929   4.897  0.0092  0.1535 -0.1924
 1035YOPC   PO414568  11.381   7.652   5.169 -0.3498  0.2064  0.1295
 1035YOPC   GL114569  11.458   7.577   5.468  0.1267 -0.0871  0.2042
 1035YOPC   GL214570  11.599   7.257   5.538  0.1697 -0.0212 -0.0879
 1035YOPC   C1A14571  11.539   7.698   5.906 -0.0847 -0.0467  0.3307
 1035YOPC   D2A14572  11.516   7.727   6.367 -0.0465  0.4427 -0.4193
 1035YOPC   C3A14573  11.436   7.991   6.759 -0.0113 -0.1540  0.1927
 1035YOPC   C4A14574  11.692   8.351   7.070 -0.0298 -0.2304  0.0474
 1035YOPC   C1B14575  11.586   7.201   5.982 -0.0459 -0.0012  0.0589
 1035YOPC   C2B14576  11.676   6.992   6.384  0.1029 -0.1082  0.0659
 1035YOPC   D3B14577  11.787   7.331   6.542  0.1865  0.1566  0.0938
 1035YOPC   C4B14578  11.772   7.541   6.861  0.0980  0.1240  0.2809
 1036YOPC   NC314579   3.125  17.634   4.759 -0.2953 -0.1730 -0.1104
 1036YOPC   PO414580   2.983  17.838   5.227 -0.3732 -0.1736  0.1618
 1036YOPC   GL114581   2.994  17.677   5.644  0.0287 -0.1596  0.0129
 1036YOPC   GL214582   3.328  17.831   5.684 -0.0819  0.1627 -0.1816
 1036YOPC   C1A14583   2.936  17.750   6.011 -0.1655 -0.1040  0.2544
 1036YOPC   D2A14584   3.100  17.806   6.488 -0.2387  0.0408  0.1740
 1036YOPC   C3A14585   2.878  17.600   6.901 -0.0095 -0.2232 -0.2174
 1036YOPC   C4A14586   2.610  17.428   7.290  0.1341  0.1935  0.1179
 1036YOPC   C1B14587   3.480  17.855   6.023  0.3070  0.0950 -0.0292
 1036YOPC   C2B14588   3.553  17.624   6.449 -0.2156  0.1541 -0.1482
 1036YOPC   D3B14589   3.796  17.819   6.688 -0.3843  0.1561  0.1572
 1036YOPC   C4B14590   4.215  17.848   6.966 -0.0783 -0.0033  0.0292
 1037YOPC   NC314591  11.615  10.730   5.289 -0.0689  0.1895 -0.1480
 1037YOPC   PO414592  11.836  11.149   5.257  0.7019  0.1872  0.0457
 1037YOPC   GL114593  11.812  11.197   5.707 -0.0045  0.1005 -0.1428
 1037YOPC   GL214594  11.970  10.978   5.814 -0.0295 -0.3103  0.0806
 1037YOPC   C1A14595  11.718  11.243   6.147  0.3651 -0.2370 -0.1312
 1037YOPC   D2A14596  11.365  11.297   6.433  0.0312  0.1802  0.0069
 1037YOPC   C3A14597  11.402  11.323   6.974 -0.3110  0.0966 -0.0363
 1037YOPC   C4A14598  11.669  11.133   7.270  0.2497  0.0584  0.0353
 1037YOPC   C1B14599  12.364  10.856   5.986 -0.0228  0.1340 -0.3509
 1037YOPC   C2B14600  12.472  10.521   6.325 -0.1838  0.0435 -0.3364
 1037YOPC   D3B14601  12.125  10.333   6.544  0.0680  0.0567  0.3695
 1037YOPC   C4B14602  11.859  10.449   6.833  0.3083 -0.0429  0.2278
 1038YOPC   NC314603   0.333   9.067   5.364 -0.0139  0.1338  0.0298
 1038YOPC   PO414604   0.032   9.237   5.476  0.4056 -0.0345  0.0776
 1038YOPC   GL114605   0.062   9.408   5.841  0.2514  0.0774  0.1215
 1038YOPC   GL214606  -0.099   9.211   6.058  0.2909  0.0812  0.1309
 1038YOPC   C1A14607  -0.037   9.640   6.268  0.3029  0.2747 -0.2284
 1038YOPC   D2A14608  -0.111   9.677   6.758  0.4598  0.0495 -0.4290
 1038YOPC   C3A14609  -0.483   9.705   6.960  0.0729  0.0924  0.0984
 1038YOPC   C4A14610  -0.949   9.569   6.983  0.2282 -0.3803  0.1644
 1038YOPC   C1B14611   0.387   9.264   6.287 -0.1273 -0.1324  0.2030
 1038YOPC   C2B14612   0.841   9.319   6.288  0.1385  0.0150  0.2498
 1038YOPC   D3B14613   1.096   8.982   6.341 -0.0767 -0.0457 -0.1085
 1038YOPC   C4B14614   1.454   8.823   6.086 -0.0294 -0.0163  0.2420
 1039YOPC   NC314615  14.778   6.013   5.014 -0.1676 -0.0868 -0.1606
 1039YOPC   PO414616  14.334   6.125   5.210 -0.0717 -0.0607 -0.1962
 1039YOPC   GL114617  14.218   6.321   5.563 -0.3646 -0.2560 -0.0321
 1039YOPC   GL214618  13.914   6.179   5.687  0.3131 -0.0568 -0.0860
 1039YOPC   C1A14619  14.375   6.586   5.723  0.1241 -0.2465 -0.0470
 1039YOPC   D2A14620  14.223   6.890   5.979 -0.0052 -0.2778  0.0671
 1039YOPC   C3A14621  14.429   7.080   6.326 -0.1402  0.3758 -0.1414
 1039YOPC   C4A14622  14.657   7.328   6.537  0.1136 -0.0723  0.1469
 1039YOPC   C1B14623  13.674   6.045   6.011 -0.0287 -0.1113 -0.1559
 1039YOPC   C2B14624  13.405   5.666   6.141 -0.0632  0.3840 -0.1130
 1039YOPC   D3B14625  13.353   5.496   6.620 -0.2786  0.3371  0.0696
 1039YOPC   C4B14626  13.449   5.419   7.033  0.0867  0.0546  0.0372
 1040YOPC   NC314627   3.998  18.542   5.125  0.4831  0.3187 -0.1195
 1040YOPC   PO414628   3.600  18.497   5.180  0.0885  0.0291 -0.3885
 1040YOPC   GL114629   3.594  18.492   5.669  0.1006 -0.1769  0.0399
 1040YOPC   GL214630   3.264  18.449   5.892  0.1261 -0.2441 -0.1135
 1040YOPC   C1A14631   3.877  18.338   6.012  0.1236 -0.1566 -0.4050
 1040YOPC   D2A14632   3.671  18.235   6.397  0.3519  0.0120  0.3018
 1040YOPC   C3A14633   3.443  18.580   6.518  0.2960 -0.3289  0.1605
 1040YOPC   C4A14634   3.231  18.952   6.405 -0.0924 -0.2343 -0.0262
 1040YOPC   C1B14635   3.165  18.228   6.257  0.0140 -0.0847 -0.0886
 1040YOPC   C2B14636   3.075  18.261   6.701 -0.0539 -0.0250 -0.0118
 1040YOPC   D3B14637   3.217  18.027   6.950  0.1034 -0.3783 -0.2135
 1040YOPC   C4B14638   3.375  18.161   7.401  0.5327  0.4018  0.4018
 1041YOPC   NC314639  15.206  17.160   5.711 -0.0493 -0.0484 -0.2903
 1041YOPC   PO414640  14.837  17.209   5.636 -0.1603 -0.2189 -0.0675
 1041YOPC   GL114641  14.643  17.236   6.036 -0.3036 -0.1507 -0.1851
 1041YOPC   GL214642  14.943  17.445   6.108 -0.0284  0.1077  0.2755
 1041YOPC   C1A14643  14.311  17.294   6.323 -0.0632 -0.1494 -0.0429
 1041YOPC   D2A14644  14.027  17.374   6.664 -0.1185 -0.1681 -0.1154
 1041YOPC   C3A14645  14.065  17.469   7.033 -0.1478  0.2389 -0.1311
 1041YOPC   C4A14646  14.067  17.785   7.469 -0.3310 -0.0120  0.0624
 1041YOPC   C1B14647  14.829  17.474   6.428  0.0564  0.0932  0.1136
 1041YOPC   C2B14648  14.498  17.597   6.804 -0.0576  0.1623 -0.2426
 1041YOPC   D3B14649  14.445  17.802   7.094  0.1533  0.1418  0.0280
 1041YOPC   C4B14650  14.581  18.126   7.393  0.0284  0.3431 -0.1788
 1042YOPC   NC314651  11.567  14.091   5.595  0.2614 -0.1763  0.0406
 1042YOPC   PO414652  12.004  14.122   5.589 -0.2997 -0.1709  0.1477
 1042YOPC   GL114653  12.329  14.353   5.960 -0.2270  0.0116  0.2588
 1042YOPC   GL214654  12.213  14.721   5.995 -0.4177  0.0838 -0.2924
 1042YOPC   C1A14655  12.498  14.174   6.264  0.2113 -0.1260  0.1817
 1042YOPC   D2A14656  12.348  14.267   6.666 -0.1360 -0.0765 -0.1577
 1042YOPC   C3A14657  12.257  14.168   7.131  0.1990  0.0211  0.1300
 1042YOPC   C4A14658  12.141  14.189   7.679 -0.2868 -0.0573  0.3141
 1042YOPC   C1B14659  12.250  14.637   6.405 -0.2769 -0.1229  0.0347
 1042YOPC   C2B14660  12.109  14.895   6.703  0.3086 -0.2193  0.1073
 1042YOPC   D3B14661  12.381  14.677   6.982  0.1061 -0.0056  0.1387
 1042YOPC   C4B14662  12.452  14.562   7.439 -0.1992  0.1850  0.1438
 1043YOPC   NC314663  13.104   9.019   5.211 -0.4234 -0.4990  0.0476
 1043YOPC   PO414664  13.411   8.915   5.355  0.0751 -0.0985 -0.3418
 1043YOPC   GL114665  13.259   9.175   5.663 -0.2218 -0.1103  0.0165
 1043YOPC   GL214666  13.559   9.358   5.592 -0.0337  0.1852 -0.2080
 1043YOPC   C1A14667  13.335   9.200   6.047 -0.0147  0.1862  0.1071
 1043YOPC   D2A14668  13.325   9.023   6.481 -0.2674  0.0177  0.1491
 1043YOPC   C3A14669  13.562   8.616   6.614 -0.3040  0.0284  0.1705
 1043YOPC   C4A14670  13.567   8.211   6.855 -0.1999 -0.2101 -0.0678
 1043YOPC   C1B14671  13.769   9.412   5.956  0.0403  0.0114  0.3403
 1043YOPC   C2B14672  13.767   9.217   6.336  0.2373  0.1007 -0.1122
 1043YOPC   D3B14673  13.745   9.162   6.728  0.1019 -0.0632  0.1923
 1043YOPC   C4B14674  13.763   9.311   7.077  0.3388 -0.2639 -0.3245
 1044YOPC   NC314675  18.966  14.550   5.406 -0.0380  0.0821  0.2696
 1044YOPC   PO414676  19.203  14.974   5.628  0.0497  0.1316  0.2131
 1044YOPC   GL114677  19.306  14.941   6.096  0.4419  0.0977  0.3596
 1044YOPC   GL214678  19.603  15.130   6.213 -0.2290 -0.1677  0.1543
 1044YOPC   C1A14679  19.147  14.811   6.388  0.0303  0.0342  0.1023
 1044YOPC   D2A14680  18.766  14.583   6.606 -0.1544  0.0002  0.0166
 1044YOPC   C3A14681  18.383  14.759   6.484  0.0329 -0.1229  0.0064
 1044YOPC   C4A14682  17.890  14.736   6.515 -0.2256  0.1271 -0.0790
 1044YOPC   C1B14683  19.791  15.152   6.557  0.0973  0.2025  0.0091
 1044YOPC   C2B14684  19.756  15.003   6.947 -0.3566  0.1358  0.2804
 1044YOPC   D3B14685  20.071  14.665   7.050  0.0448 -0.0748  0.3188
 1044YOPC   C4B14686  20.392  14.512   6.713  0.3606  0.0602  0.0680
 1045YOPC   NC314687  12.422   6.784   5.234  0.0526  0.0471 -0.2804
 1045YOPC   PO414688  12.891   6.641   5.011  0.1789 -0.0756 -0.0958
 1045YOPC   GL114689  12.905   6.556   5.484 -0.0464  0.0205 -0.0775
 1045YOPC   GL214690  12.654   6.479   5.560  0.0845  0.0634  0.1124
 1045YOPC   C1A14691  12.876   6.619   5.980 -0.0147  0.0253  0.1755
 1045YOPC   D2A14692  12.950   6.526   6.434 -0.4729  0.1530  0.0895
 1045YOPC   C3A14693  12.708   6.328   6.831  0.2600 -0.1003  0.3279
 1045YOPC   C4A14694  12.480   5.945   6.992  0.0270 -0.1573  0.0699
 1045YOPC   C1B14695  12.585   6.190   5.929  0.2613  0.0160  0.2333
 1045YOPC   C2B14696  12.800   6.070   6.313 -0.1077  0.2650  0.1197
 1045YOPC   D3B14697  12.459   5.898   6.475  0.0423  0.0203 -0.1080
 1045YOPC   C4B14698  12.286   5.494   6.800  0.1017  0.0933  0.1412
 1046YOPC   NC314699  11.890   8.775   4.973 -0.2054  0.2425 -0.0220
 1046YOPC   PO414700  12.118   8.434   5.099 -0.3711  0.4210 -0.2749
 1046YOPC   GL114701  12.019   8.505   5.620  0.2041  0.0784  0.0231
 1046YOPC   GL214702  12.285   8.309   5.841 -0.3080 -0.3056 -0.2550
 1046YOPC   C1A14703  11.834   8.689   5.961 -0.1659 -0.0037  0.0445
 1046YOPC   D2A14704  11.902   8.827   6.381 -0.1635 -0.1661  0.0544
 1046YOPC   C3A14705  12.306   9.004   6.494 -0.1610 -0.1059 -0.0009
 1046YOPC   C4A14706  12.310   9.411   6.388 -0.0111  0.3112 -0.2191
 1046YOPC   C1B14707  12.316   8.486   6.170 -0.0617  0.0740 -0.2251
 1046YOPC   C2B14708  12.305   8.534   6.626  0.1145  0.0858  0.2785
 1046YOPC   D3B14709  12.057   8.707   6.874 -0.0605 -0.0507  0.0039
 1046YOPC   C4B14710  11.693   8.821   6.932  0.1344  0.1313 -0.3144
 1047YOPC   NC314711   0.244   3.420   4.941  0.0412 -0.0635 -0.0966
 1047YOPC   PO414712   0.236   3.097   5.334  0.0064  0.2107 -0.1765
 1047YOPC   GL114713   0.077   3.061   5.734  0.2924 -0.2589 -0.2098
 1047YOPC   GL214714  -0.197   3.107   5.797 -0.3672 -0.2213 -0.0016
 1047YOPC   C1A14715   0.270   2.978   6.087  0.1699  0.2918  0.3083
 1047YOPC   D2A14716   0.449   2.990   6.510 -0.1234 -0.1004 -0.2189
 1047YOPC   C3A14717   0.909   2.810   6.380  0.0434  0.0120 -0.3097
 1047YOPC   C4A14718   1.272   2.744   6.156  0.1931 -0.0372  0.2518
 1047YOPC   C1B14719  -0.349   3.312   6.190 -0.0308 -0.2907  0.0310
 1047YOPC   C2B14720  -0.551   3.406   6.520  0.0940  0.1429 -0.1060
 1047YOPC   D3B14721  -0.692   3.760   6.691 -0.1293 -0.5000 -0.1938
 1047YOPC   C4B14722  -0.922   3.769   7.016  0.0901  0.1058 -0.1518
 1048YOPC   NC314723   7.696  15.731   5.320 -0.2024  0.0324 -0.4293
 1048YOPC   PO414724   7.793  15.292   5.363  0.2936  0.2400  0.1171
 1048YOPC   GL114725   7.770  15.426   5.782  0.0174 -0.1676 -0.0403
 1048YOPC   GL214726   7.987  15.388   5.829  0.0584  0.1598  0.2661
 1048YOPC   C1A14727   7.835  15.279   6.294  0.0401 -0.0459  0.0554
 1048YOPC   D2A14728   7.665  15.509   6.634 -0.2670 -0.1326  0.0721
 1048YOPC   C3A14729   7.582  15.269   6.964  0.2224  0.0273 -0.0678
 1048YOPC   C4A14730   7.704  14.959   7.100  0.0447  0.1899 -0.1070
 1048YOPC   C1B14731   8.150  15.039   6.050 -0.2881  0.1845  0.1701
 1048YOPC   C2B14732   8.207  14.861   6.448 -0.0473 -0.1068  0.1724
 1048YOPC   D3B14733   8.110  15.159   6.733 -0.0534  0.2207  0.1382
 1048YOPC   C4B14734   8.072  15.493   6.988  0.0449  0.1999  0.0666
 1049YOPC   NC314735   4.122  15.964   5.043  0.2968  0.3778 -0.0494
 1049YOPC   PO414736   4.020  15.544   5.256  0.1900 -0.2458 -0.0332
 1049YOPC   GL114737   4.033  15.697   5.763 -0.0457  0.0455  0.1700
 1049YOPC   GL214738   4.297  15.654   5.866  0.1048 -0.1054  0.0495
 1049YOPC   C1A14739   3.826  15.542   6.115 -0.0862  0.3076 -0.0039
 1049YOPC   D2A14740   3.575  15.455   6.485  0.2635 -0.2110 -0.0591
 1049YOPC   C3A14741   3.210  15.360   6.495 -0.2155 -0.0207 -0.1764
 1049YOPC   C4A14742   2.864  15.643   6.264 -0.2378 -0.2831  0.0420
 1049YOPC   C1B14743   4.297  15.522   6.228 -0.0045  0.1147  0.0556
 1049YOPC   C2B14744   4.065  15.437   6.541  0.0206 -0.0599  0.0367
 1049YOPC   D3B14745   3.758  15.208   6.852  0.0297  0.0339  0.1944
 1049YOPC   C4B14746   3.326  15.221   6.943  0.0125  0.1416  0.0993
 1050YOPC   NC314747   1.111  17.032   5.436 -0.0042  0.0482 -0.2237
 1050YOPC   PO414748   1.508  17.279   5.439 -0.0257 -0.1286 -0.1536
 1050YOPC   GL114749   1.563  17.260   5.938 -0.1976 -0.1528  0.6799
 1050YOPC   GL214750   1.564  17.606   5.982  0.0815 -0.0818 -0.1612
 1050YOPC   C1A14751   1.480  17.060   6.298  0.1301  0.1586  0.0467
 1050YOPC   D2A14752   1.492  16.853   6.614  0.1130  0.2608 -0.1295
 1050YOPC   C3A14753   1.087  16.885   6.770 -0.2375 -0.1348  0.2686
 1050YOPC   C4A14754   0.653  16.735   6.820 -0.0049  0.0631 -0.2246
 1050YOPC   C1B14755   1.482  17.946   6.263 -0.1521 -0.0406  0.0965
 1050YOPC   C2B14756   1.188  17.955   6.596 -0.0276  0.0710  0.2070
 1050YOPC   D3B14757   0.846  18.222   6.837  0.3991  0.0455  0.3770
 1050YOPC   C4B14758   0.867  18.234   7.193  0.2350 -0.2514  0.0418
 1051YOPC   NC314759   7.926   2.629   5.004  0.0895  0.1413  0.0603
 1051YOPC   PO414760   7.995   2.915   5.269 -0.0926  0.2374 -0.0659
 1051YOPC   GL114761   7.984   2.682   5.633  0.1946 -0.2060  0.2053
 1051YOPC   GL214762   7.908   2.929   5.816 -0.0358 -0.0953 -0.2121
 1051YOPC   C1A14763   7.773   2.478   5.990 -0.1040 -0.0214  0.3198
 1051YOPC   D2A14764   7.659   2.471   6.421  0.0632  0.2336  0.0117
 1051YOPC   C3A14765   7.400   2.689   6.693  0.0385 -0.5009 -0.1316
 1051YOPC   C4A14766   7.444   3.055   7.040  0.2464 -0.0020  0.2527
 1051YOPC   C1B14767   7.962   2.827   6.247 -0.2821 -0.1813 -0.1988
 1051YOPC   C2B14768   7.832   2.932   6.624  0.1268  0.0332 -0.0922
 1051YOPC   D3B14769   8.182   3.103   6.918  0.0094 -0.1965  0.0485
 1051YOPC   C4B14770   8.147   3.452   7.050 -0.1315  0.0409  0.0819
 1052YOPC   NC314771  15.451   7.948   4.964 -0.1536 -0.3977 -0.3779
 1052YOPC   PO414772  15.085   7.602   5.118 -0.3554 -0.0764 -0.0754
 1052YOPC   GL114773  14.981   7.630   5.618  0.0490  0.0142  0.0168
 1052YOPC   GL214774  14.874   7.436   5.920  0.4138 -0.1678 -0.1090
 1052YOPC   C1A14775  15.098   7.943   5.937  0.2008 -0.2704  0.1389
 1052YOPC   D2A14776  14.711   8.072   6.172  0.1421  0.1849  0.0682
 1052YOPC   C3A14777  14.374   8.243   6.083 -0.1465 -0.3966  0.2692
 1052YOPC   C4A14778  14.138   8.472   5.782 -0.0676  0.1507  0.0598
 1052YOPC   C1B14779  15.017   7.520   6.258  0.0843  0.3140  0.0392
 1052YOPC   C2B14780  15.266   7.508   6.719  0.0223  0.0308  0.2933
 1052YOPC   D3B14781  14.920   7.413   6.939 -0.0822 -0.1409  0.3435
 1052YOPC   C4B14782  14.646   6.939   6.916 -0.2926  0.1845 -0.0852
 1053YOPC   NC314783  18.989  16.027   5.163 -0.0911 -0.0319  0.0367
 1053YOPC   PO414784  18.675  16.159   5.370  0.3072 -0.0360 -0.2862
 1053YOPC   GL114785  18.923  16.115   5.738 -0.0311  0.2889 -0.0523
 1053YOPC   GL214786  18.961  15.818   5.914 -0.0392 -0.1491  0.2945
 1053YOPC   C1A14787  19.103  16.389   6.104 -0.0626 -0.3902  0.4331
 1053YOPC   D2A14788  19.219  16.399   6.529  0.0392 -0.3834  0.1908
 1053YOPC   C3A14789  19.570  16.363   6.875 -0.1003 -0.0372  0.2593
 1053YOPC   C4A14790  19.746  16.522   7.218 -0.2681  0.1014 -0.0611
 1053YOPC   C1B14791  19.086  15.871   6.360  0.0774 -0.1458 -0.2207
 1053YOPC   C2B14792  19.270  15.887   6.741  0.1142 -0.2938 -0.2291
 1053YOPC   D3B14793  19.041  16.013   7.017 -0.2578 -0.4076  0.2900
 1053YOPC   C4B14794  19.128  15.995   7.448 -0.1024 -0.0934  0.1171
 1054YOPC   NC314795   2.021   2.660   5.492 -0.1248 -0.0934  0.0897
 1054YOPC   PO414796   1.653   2.712   5.346  0.3979 -0.1560 -0.2593
 1054YOPC   GL114797   1.477   2.967   5.593  0.0318 -0.2317 -0.1987
 1054YOPC   GL214798   1.222   2.766   5.660 -0.0207 -0.1034  0.0931
 1054YOPC   C1A14799   1.434   3.198   5.987  0.2231 -0.3087 -0.1071
 1054YOPC   D2A14800   1.372   3.215   6.373  0.2116 -0.4094  0.1122
 1054YOPC   C3A14801   1.527   3.382   6.729  0.3373 -0.0797 -0.1092
 1054YOPC   C4A14802   1.278   3.492   7.041 -0.0582 -0.1289  0.1689
 1054YOPC   C1B14803   0.848   2.548   5.924 -0.3990 -0.0722  0.2935
 1054YOPC   C2B14804   0.521   2.517   6.164 -0.0429  0.0071 -0.1097
 1054YOPC   D3B14805   0.611   2.504   6.619  0.0871 -0.0972 -0.1252
 1054YOPC   C4B14806   0.764   2.779   6.993  0.2499  0.1148 -0.1390
 1055YOPC   NC314807  18.459  18.469   5.475  0.0988 -0.0494  0.0078
 1055YOPC   PO414808  18.422  18.822   5.367  0.2218  0.3186 -0.0492
 1055YOPC   GL114809  18.359  18.874   5.804 -0.1882 -0.4007 -0.3523
 1055YOPC   GL214810  18.157  19.181   5.788 -0.0512  0.2405 -0.2177
 1055YOPC   C1A14811  18.060  18.790   6.101 -0.0226  0.0793 -0.0946
 1055YOPC   D2A14812  17.687  18.935   6.386  0.0699  0.1820  0.1870
 1055YOPC   C3A14813  17.542  19.298   6.387 -0.1251  0.1502  0.0109
 1055YOPC   C4A14814  17.498  19.505   6.754 -0.0625 -0.1103  0.0882
 1055YOPC   C1B14815  17.972  19.292   6.195 -0.2140  0.5639  0.2758
 1055YOPC   C2B14816  17.974  19.201   6.641 -0.0645 -0.2354 -0.2249
 1055YOPC   D3B14817  17.665  19.151   7.059  0.0154 -0.1641  0.4115
 1055YOPC   C4B14818  17.362  19.482   7.250 -0.0105  0.1937  0.0542
 1056YOPC   NC314819  11.885  12.006   5.612  0.1246  0.0324  0.0201
 1056YOPC   PO414820  12.220  11.997   5.844  0.2106 -0.1974 -0.0392
 1056YOPC   GL114821  12.167  12.112   6.141 -0.2323  0.2143 -0.3898
 1056YOPC   GL214822  11.888  11.916   6.202 -0.1467  0.1261  0.0468
 1056YOPC   C1A14823  12.287  12.143   6.440  0.1110 -0.0549  0.0912
 1056YOPC   D2A14824  12.349  12.177   6.934 -0.1644 -0.0223  0.1967
 1056YOPC   C3A14825  12.317  12.454   7.333 -0.0834  0.1729 -0.2515
 1056YOPC   C4A14826  12.167  12.700   7.677 -0.0038 -0.2428  0.0199
 1056YOPC   C1B14827  11.898  11.595   6.508 -0.0023  0.1700 -0.2323
 1056YOPC   C2B14828  11.797  11.230   6.732 -0.1674 -0.0476 -0.0755
 1056YOPC   D3B14829  12.057  10.900   6.740  0.1770 -0.2590 -0.0037
 1056YOPC   C4B14830  12.374  10.547   6.859  0.0682  0.0653  0.1214
 1057YOPC   NC314831  10.383   6.858   4.633  0.3263  0.1105 -0.0728
 1057YOPC   PO414832  10.008   7.062   4.814 -0.0814  0.0149  0.0290
 1057YOPC   GL114833  10.270   6.974   5.195 -0.2688 -0.0966  0.1008
 1057YOPC   GL214834  10.151   7.209   5.314 -0.0279  0.1330  0.1012
 1057YOPC   C1A14835  10.347   6.835   5.619 -0.1758 -0.0161  0.1231
 1057YOPC   D2A14836  10.292   6.491   5.810 -0.1632 -0.1450  0.0614
 1057YOPC   C3A14837   9.946   6.497   6.059 -0.2759 -0.0338  0.0379
 1057YOPC   C4A14838   9.728   6.621   6.514 -0.3933  0.2909 -0.0083
 1057YOPC   C1B14839   9.915   7.125   5.762  0.0755 -0.0969 -0.0117
 1057YOPC   C2B14840   9.849   7.046   6.258 -0.1901 -0.2116  0.3381
 1057YOPC   D3B14841   9.993   7.276   6.471  0.0217  0.1675 -0.0958
 1057YOPC   C4B14842  10.145   7.458   6.840  0.2381 -0.1957 -0.3365
 1058YOPC   NC314843  15.410  16.191   5.449  0.0654 -0.1432 -0.3240
 1058YOPC   PO414844  15.847  16.034   5.438 -0.1685  0.0534  0.1174
 1058YOPC   GL114845  15.840  16.103   5.831  0.2837 -0.1510 -0.2177
 1058YOPC   GL214846  16.008  15.927   6.028  0.1318 -0.2961 -0.2702
 1058YOPC   C1A14847  15.869  16.378   6.163 -0.1184 -0.1258 -0.1161
 1058YOPC   D2A14848  15.968  16.318   6.594  0.1156 -0.1754 -0.1279
 1058YOPC   C3A14849  15.799  16.399   6.988  0.4449 -0.0925  0.2859
 1058YOPC   C4A14850  15.582  16.368   7.424 -0.2151 -0.1401  0.0865
 1058YOPC   C1B14851  16.160  15.859   6.455 -0.0784  0.0935  0.1993
 1058YOPC   C2B14852  16.024  15.899   6.847  0.0149 -0.0814  0.0223
 1058YOPC   D3B14853  16.146  15.975   7.227  0.3184 -0.3260  0.2888
 1058YOPC   C4B14854  16.232  15.929   7.593 -0.1452  0.1986  0.0131
 1059YOPC   NC314855  16.662  16.967   5.910 -0.0500  0.1998 -0.3804
 1059YOPC   PO414856  16.427  16.671   5.618 -0.1602  0.2730  0.0203
 1059YOPC   GL114857  16.466  16.521   6.039 -0.2562  0.0008 -0.0183
 1059YOPC   GL214858  16.808  16.604   6.191  0.0880 -0.1798 -0.1307
 1059YOPC   C1A14859  16.323  16.694   6.379  0.4058 -0.0253 -0.0961
 1059YOPC   D2A14860  16.313  16.583   6.881  0.0471  0.0350  0.0493
 1059YOPC   C3A14861  16.220  16.744   7.287 -0.1101  0.2618  0.0202
 1059YOPC   C4A14862  15.912  16.814   7.472 -0.0171  0.0206  0.1268
 1059YOPC   C1B14863  16.741  16.613   6.634 -0.0054 -0.0035 -0.1611
 1059YOPC   C2B14864  17.094  16.325   6.689  0.1002  0.0423 -0.0261
 1059YOPC   D3B14865  17.074  16.233   7.138  0.3026 -0.0165  0.3721
 1059YOPC   C4B14866  17.133  15.875   7.386 -0.2687  0.1033 -0.1796
 1060YOPC   NC314867   1.096   1.164   5.084 -0.1442 -0.1800 -0.0611
 1060YOPC   PO414868   1.162   1.595   5.337  0.1814 -0.1431 -0.0528
 1060YOPC   GL114869   1.246   1.621   5.699 -0.0955 -0.0892 -0.4466
 1060YOPC   GL214870   1.241   1.843   5.813 -0.0013  0.1102  0.1482
 1060YOPC   C1A14871   1.466   1.581   6.170  0.0160 -0.2248  0.0480
 1060YOPC   D2A14872   1.700   1.838   6.378  0.2824  0.4421 -0.1152
 1060YOPC   C3A14873   1.816   1.626   6.734  0.1009 -0.2560 -0.3204
 1060YOPC   C4A14874   2.093   1.327   6.890 -0.0860 -0.1311  0.1988
 1060YOPC   C1B14875   1.324   2.208   6.056  0.2832 -0.2315 -0.1049
 1060YOPC   C2B14876   1.671   2.335   6.410  0.0445 -0.3574  0.2708
 1060YOPC   D3B14877   1.557   2.779   6.638 -0.1530  0.0864 -0.2689
 1060YOPC   C4B14878   1.207   3.011   6.825  0.3814  0.1898  0.0904
 1061YOPC   NC314879  11.341  13.677   5.707  0.0529  0.3604  0.0682
 1061YOPC   PO414880  11.541  13.269   5.828 -0.1121  0.1389  0.3308
 1061YOPC   GL114881  11.687  13.380   6.115 -0.0659 -0.1777  0.2962
 1061YOPC   GL214882  11.390  13.146   6.306  0.2136  0.0117  0.2479
 1061YOPC   C1A14883  11.833  13.371   6.460 -0.2024 -0.2318  0.4384
 1061YOPC   D2A14884  12.146  13.156   6.789 -0.2204  0.1608  0.1991
 1061YOPC   C3A14885  12.171  13.220   7.282 -0.0647 -0.1119  0.0264
 1061YOPC   C4A14886  12.432  13.171   7.721  0.0480  0.0191  0.0267
 1061YOPC   C1B14887  11.397  13.338   6.745 -0.0381  0.0678  0.2306
 1061YOPC   C2B14888  11.301  13.763   6.903 -0.0120  0.1396  0.1863
 1061YOPC   D3B14889  11.384  13.872   7.270 -0.2629  0.1229 -0.2382
 1061YOPC   C4B14890  11.666  14.044   7.601 -0.1136 -0.1531 -0.0774
 1062YOPC   NC314891   2.171   0.801   5.661  0.1199  0.0561 -0.0358
 1062YOPC   PO414892   1.733   0.702   5.541 -0.0276  0.0366  0.0774
 1062YOPC   GL114893   1.478   0.851   5.825  0.1102 -0.0862  0.0739
 1062YOPC   GL214894   1.775   1.081   5.882 -0.0614  0.2633 -0.1076
 1062YOPC   C1A14895   1.210   1.049   6.263  0.1719 -0.2530  0.0020
 1062YOPC   D2A14896   1.162   0.898   6.689 -0.1818  0.0976  0.0419
 1062YOPC   C3A14897   0.876   0.788   6.986  0.0486 -0.0134 -0.0839
 1062YOPC   C4A14898   0.484   0.845   7.304  0.1360  0.1391 -0.0332
 1062YOPC   C1B14899   1.776   1.196   6.342 -0.1570  0.3256  0.2976
 1062YOPC   C2B14900   1.564   1.207   6.668  0.2681 -0.1164  0.2233
 1062YOPC   D3B14901   1.485   1.354   7.104 -0.0202  0.3298 -0.0516
 1062YOPC   C4B14902   1.619   1.721   7.282  0.1499 -0.0669  0.1632
 1063YOPC   NC314903  15.454   3.467   4.952  0.0885 -0.1758  0.0401
 1063YOPC   PO414904  15.241   3.586   5.353 -0.0844 -0.1793  0.2273
 1063YOPC   GL114905  15.289   3.408   5.749 -0.0489  0.0298 -0.1413
 1063YOPC   GL214906  15.539   3.050   5.721  0.2530 -0.0528 -0.0675
 1063YOPC   C1A14907  15.136   3.449   6.214  0.0798 -0.1265  0.2571
 1063YOPC   D2A14908  15.102   3.589   6.564  0.2931 -0.0764 -0.1201
 1063YOPC   C3A14909  15.190   3.725   6.980 -0.0011 -0.4052 -0.1236
 1063YOPC   C4A14910  15.216   4.207   7.115  0.2172 -0.2149  0.0377
 1063YOPC   C1B14911  15.375   3.002   6.222  0.1811  0.0721  0.1343
 1063YOPC   C2B14912  15.438   2.830   6.628  0.0270 -0.2628 -0.0015
 1063YOPC   D3B14913  15.729   2.417   6.848 -0.0931  0.3493  0.2455
 1063YOPC   C4B14914  16.122   2.244   6.663 -0.0398 -0.2176  0.0982
 1064YOPC   NC314915   5.660   0.464   5.784  0.1783  0.1674 -0.1293
 1064YOPC   PO414916   5.571   0.792   5.502  0.0055 -0.0501  0.0363
 1064YOPC   GL114917   5.201   0.663   5.767  0.0063 -0.0974  0.0123
 1064YOPC   GL214918   4.977   0.524   5.615 -0.3835  0.4718 -0.2532
 1064YOPC   C1A14919   5.114   0.850   6.215 -0.1250  0.0393 -0.0271
 1064YOPC   D2A14920   4.958   0.852   6.598  0.0711 -0.1786 -0.2564
 1064YOPC   C3A14921   4.726   1.229   6.657  0.0185 -0.2893  0.1358
 1064YOPC   C4A14922   4.596   1.646   6.811 -0.0099  0.2876  0.1297
 1064YOPC   C1B14923   4.721   0.645   6.010  0.2292  0.0554  0.0468
 1064YOPC   C2B14924   4.625   0.984   6.257  0.2218 -0.0882 -0.2001
 1064YOPC   D3B14925   4.850   1.317   6.125  0.0872  0.2116  0.0203
 1064YOPC   C4B14926   4.982   1.694   6.283 -0.1604  0.0894  0.1419
 1065YOPC   NC314927   9.291  15.374   5.460 -0.0331  0.2442  0.0795
 1065YOPC   PO414928   9.450  14.986   5.531  0.0065  0.2067  0.0228
 1065YOPC   GL114929   9.163  15.128   5.928 -0.2360  0.0642  0.0596
 1065YOPC   GL214930   8.868  15.257   5.945  0.0004  0.1899  0.1902
 1065YOPC   C1A14931   8.981  15.080   6.383  0.1491  0.0038  0.0949
 1065YOPC   D2A14932   9.063  14.988   6.862 -0.1297  0.0302 -0.1509
 1065YOPC   C3A14933   8.706  15.021   7.139 -0.1506  0.2730 -0.1511
 1065YOPC   C4A14934   8.261  15.037   7.202 -0.1150 -0.0413 -0.2132
 1065YOPC   C1B14935   8.663  14.884   6.050 -0.0039 -0.2139 -0.0361
 1065YOPC   C2B14936   8.542  14.578   6.298  0.0108 -0.1486  0.1199
 1065YOPC   D3B14937   8.641  14.204   6.427 -0.0071 -0.1946 -0.2822
 1065YOPC   C4B14938   8.493  13.938   6.194  0.0366  0.1053  0.1112
 1066YOPC   NC314939  10.297  12.703   5.566  0.1875 -0.0502  0.2992
 1066YOPC   PO414940  10.604  12.508   5.383 -0.2947  0.1567  0.0051
 1066YOPC   GL114941  10.748  12.493   5.851  0.0634  0.2046 -0.0895
 1066YOPC   GL214942  11.031  12.411   5.844 -0.2395  0.1651  0.1578
 1066YOPC   C1A14943  10.902  12.810   6.196  0.1526  0.2768 -0.3130
 1066YOPC   D2A14944  10.912  13.170   6.533 -0.0663  0.2440  0.0716
 1066YOPC   C3A14945  10.641  13.097   6.873  0.1020 -0.0244 -0.1046
 1066YOPC   C4A14946  10.441  13.048   7.310  0.0594  0.3344 -0.3528
 1066YOPC   C1B14947  10.968  12.330   6.291 -0.0605  0.0774  0.0162
 1066YOPC   C2B14948  10.904  12.196   6.717 -0.0481  0.1491  0.0717
 1066YOPC   D3B14949  11.019  12.203   7.205  0.0172 -0.3216  0.0991
 1066YOPC   C4B14950  11.221  12.356   7.544  0.1170 -0.0335 -0.1249
 1067YOPC   NC314951  16.157   7.804   4.317  0.2379 -0.0365  0.0174
 1067YOPC   PO414952  16.250   7.567   4.640  0.1167 -0.1189  0.1734
 1067YOPC   GL114953  16.199   7.246   5.036 -0.0320  0.1431 -0.0760
 1067YOPC   GL214954  15.976   7.078   4.832 -0.0224  0.1639  0.0434
 1067YOPC   C1A14955  15.977   7.211   5.337  0.0984 -0.2423 -0.4276
 1067YOPC   D2A14956  15.782   7.224   5.792  0.1860  0.0478 -0.0970
 1067YOPC   C3A14957  15.874   7.572   5.884  0.0208  0.0553  0.1490
 1067YOPC   C4A14958  16.033   7.892   6.024 -0.0391  0.1706 -0.3212
 1067YOPC   C1B14959  15.589   6.982   5.126  0.1677 -0.1495  0.2250
 1067YOPC   C2B14960  15.548   6.777   5.467  0.3733 -0.0544  0.0331
 1067YOPC   D3B14961  15.864   6.758   5.656 -0.3035 -0.1602 -0.0613
 1067YOPC   C4B14962  16.291   6.538   5.876  0.1207  0.2546  0.1021
 1068YOPC   NC314963   0.348  15.387   5.519 -0.2570  0.1798  0.2412
 1068YOPC   PO414964  -0.008  15.447   5.715 -0.2338 -0.1624 -0.0062
 1068YOPC   GL114965   0.330  15.606   6.107  0.0002  0.0555 -0.0531
 1068YOPC   GL214966   0.206  15.943   5.996 -0.0511 -0.0681 -0.1454
 1068YOPC   C1A14967   0.468  15.679   6.526 -0.1345  0.0351  0.1837
 1068YOPC   D2A14968   0.528  15.654   6.926  0.0029  0.0515  0.2114
 1068YOPC   C3A14969   0.398  15.946   7.205  0.1757 -0.1537 -0.4558
 1068YOPC   C4A14970   0.331  16.137   7.632  0.2086 -0.1181 -0.5539
 1068YOPC   C1B14971   0.315  16.135   6.317  0.3050 -0.2209  0.0314
 1068YOPC   C2B14972   0.483  16.520   6.432  0.1083 -0.0843 -0.2539
 1068YOPC   D3B14973   0.505  16.745   6.173 -0.1323  0.4438 -0.1444
 1068YOPC   C4B14974   0.487  17.087   6.015  0.3797 -0.1435 -0.0029
 1069YOPC   NC314975   9.769  18.213   5.312  0.0366  0.0798 -0.3167
 1069YOPC   PO414976   9.612  17.725   5.486  0.6065 -0.0689  0.1116
 1069YOPC   GL114977   9.916  17.610   5.629  0.1712  0.0841 -0.1163
 1069YOPC   GL214978  10.198  17.880   5.709 -0.0105 -0.1542  0.1485
 1069YOPC   C1A14979  10.015  17.593   6.094 -0.2448  0.2912  0.0309
 1069YOPC   D2A14980  10.213  17.411   6.510 -0.0526 -0.3354 -0.1059
 1069YOPC   C3A14981  10.495  17.677   6.790  0.0876  0.0790 -0.0652
 1069YOPC   C4A14982  10.834  17.599   6.987 -0.0626 -0.0613 -0.0422
 1069YOPC   C1B14983  10.096  18.098   6.093 -0.3394 -0.3031  0.1508
 1069YOPC   C2B14984  10.088  17.980   6.447 -0.0621  0.1913 -0.0956
 1069YOPC   D3B14985  10.046  17.713   6.860  0.1132  0.2504 -0.2464
 1069YOPC   C4B14986  10.136  17.293   7.133 -0.1722  0.1152 -0.1438
 1070YOPC   NC314987  11.705  10.245   4.959  0.2974 -0.0975  0.0925
 1070YOPC   PO414988  11.400  10.316   5.139  0.3052  0.0499  0.0434
 1070YOPC   GL114989  11.297  10.218   5.452  0.1354 -0.1287 -0.2564
 1070YOPC   GL214990  11.137  10.443   5.535  0.2082 -0.1635 -0.3199
 1070YOPC   C1A14991  11.171   9.946   5.916 -0.1324  0.0304  0.0709
 1070YOPC   D2A14992  11.052  10.110   6.260  0.0917  0.2596 -0.3507
 1070YOPC   C3A14993  11.202   9.869   6.608  0.0538  0.0509 -0.2968
 1070YOPC   C4A14994  11.607   9.575   6.555 -0.4577  0.0091  0.2233
 1070YOPC   C1B14995  11.061  10.935   5.668  0.2367  0.1394 -0.1095
 1070YOPC   C2B14996  10.601  11.094   5.760  0.1277 -0.0229  0.1210
 1070YOPC   D3B14997  10.409  10.939   6.080 -0.0251 -0.0551  0.1736
 1070YOPC   C4B14998  10.154  10.636   6.357 -0.2482  0.2533  0.1960
 1071YOPC   NC314999  17.072  13.789   5.291  0.3237 -0.0527 -0.1174
 1071YOPC   PO415000  16.908  13.411   5.440  0.1954 -0.1546 -0.2305
 1071YOPC   GL115001  17.116  13.239   5.818  0.0190 -0.0706 -0.0910
 1071YOPC   GL215002  16.958  12.986   5.943 -0.0136  0.1462 -0.4959
 1071YOPC   C1A15003  17.085  13.441   6.285  0.1384  0.0840 -0.1335
 1071YOPC   D2A15004  17.392  13.536   6.666 -0.3383  0.3171 -0.1510
 1071YOPC   C3A15005  17.518  13.370   6.957  0.0224  0.1718  0.1816
 1071YOPC   C4A15006  17.487  13.066   7.203  0.4066 -0.1563 -0.1368
 1071YOPC   C1B15007  16.914  12.669   6.392 -0.3056  0.5615 -0.1508
 1071YOPC   C2B15008  17.026  12.447   6.737  0.3518  0.1372  0.1165
 1071YOPC   D3B15009  17.387  12.634   6.963 -0.1967 -0.0006  0.2377
 1071YOPC   C4B15010  17.830  12.463   7.003  0.1593 -0.1334 -0.1725
 1072YOPC   NC315011   2.564  17.525   5.431  0.2773 -0.2471 -0.0973
 1072YOPC   PO415012   2.266  17.247   5.471  0.2942  0.1671  0.0974
 1072YOPC   GL115013   2.639  17.143   5.818  0.2048  0.0478  0.2968
 1072YOPC   GL215014   2.956  17.164   5.742 -0.0553 -0.1518  0.2310
 1072YOPC   C1A15015   2.529  17.078   6.301  0.1502  0.2941  0.2230
 1072YOPC   D2A15016   2.489  17.067   6.754  0.1497 -0.5035  0.3981
 1072YOPC   C3A15017   2.325  16.660   6.912  0.0118 -0.1513 -0.1424
 1072YOPC   C4A15018   2.047  16.607   7.197 -0.0215  0.1254  0.1607
 1072YOPC   C1B15019   3.119  16.844   5.914 -0.1043 -0.0518 -0.0744
 1072YOPC   C2B15020   3.320  16.661   6.252 -0.0084  0.1039 -0.4223
 1072YOPC   D3B15021   3.511  16.319   6.206  0.0694 -0.1598 -0.0861
 1072YOPC   C4B15022   3.363  15.852   6.297 -0.2290 -0.0251  0.0372
 1073YOPC   NC315023  17.201  15.486   5.686  0.3968 -0.1161 -0.3215
 1073YOPC   PO415024  16.871  15.195   5.542 -0.0948  0.4136 -0.0370
 1073YOPC   GL115025  16.935  15.095   5.912 -0.1001 -0.0230 -0.2264
 1073YOPC   GL215026  17.065  14.809   6.036  0.0707  0.1646  0.1092
 1073YOPC   C1A15027  16.726  15.042   6.332 -0.0668 -0.0133 -0.2949
 1073YOPC   D2A15028  16.501  14.924   6.573  0.1608 -0.1212 -0.0760
 1073YOPC   C3A15029  16.636  15.019   6.901 -0.4000 -0.1253 -0.1923
 1073YOPC   C4A15030  16.610  15.123   7.329 -0.1400 -0.2263 -0.0088
 1073YOPC   C1B15031  17.327  15.243   6.212  0.3343  0.1590  0.0023
 1073YOPC   C2B15032  17.505  15.524   6.546  0.4883  0.0973 -0.1280
 1073YOPC   D3B15033  17.823  15.659   6.583  0.0579 -0.1135  0.3804
 1073YOPC   C4B15034  18.276  15.777   6.514  0.0906 -0.1779 -0.0436
 1074YOPC   NC315035  18.045  12.203   5.305  0.2605 -0.2863 -0.1198
 1074YOPC   PO415036  18.035  12.670   5.355  0.0905 -0.1506 -0.2420
 1074YOPC   GL115037  18.038  12.588   5.813 -0.1977 -0.2527  0.0028
 1074YOPC   GL215038  18.246  12.727   6.025 -0.0001  0.0558  0.1334
 1074YOPC   C1A15039  17.835  12.354   6.111  0.1172  0.0612  0.3327
 1074YOPC   D2A15040  17.974  12.103   6.397  0.0617 -0.4058  0.1126
 1074YOPC   C3A15041  18.426  12.024   6.521 -0.0853 -0.0432  0.2865
 1074YOPC   C4A15042  18.732  11.813   6.317 -0.2438  0.0127 -0.1123
 1074YOPC   C1B15043  18.134  12.965   6.409  0.4026  0.0015  0.0160
 1074YOPC   C2B15044  18.401  13.309   6.553  0.0583 -0.0606  0.2617
 1074YOPC   D3B15045  18.422  13.149   6.862  0.0188 -0.0703  0.1738
 1074YOPC   C4B15046  18.354  12.629   7.017 -0.1205 -0.3963  0.1640
 1075YOPC   NC315047  10.831   8.592   4.804  0.0868 -0.0859  0.1193
 1075YOPC   PO415048  10.931   8.278   5.201 -0.0802  0.2402 -0.2652
 1075YOPC   GL115049  11.012   8.342   5.644  0.1335  0.1627 -0.0471
 1075YOPC   GL215050  11.282   8.369   5.880  0.5397 -0.3867 -0.1073
 1075YOPC   C1A15051  10.763   8.202   6.037  0.3446 -0.0987  0.1403
 1075YOPC   D2A15052  10.624   8.144   6.406  0.1203  0.0311 -0.0295
 1075YOPC   C3A15053  10.963   8.178   6.775  0.0034 -0.2441 -0.0206
 1075YOPC   C4A15054  11.172   8.259   7.095  0.1686  0.1816 -0.1385
 1075YOPC   C1B15055  11.458   8.598   6.241  0.2730 -0.0471 -0.0303
 1075YOPC   C2B15056  11.341   8.554   6.693 -0.2940 -0.4220  0.2410
 1075YOPC   D3B15057  11.108   8.910   6.956 -0.0516  0.0449  0.2057
 1075YOPC   C4B15058  10.969   9.237   7.148 -0.2069 -0.1205 -0.0573
 1076YOPC   NC315059   0.288  11.351   5.188 -0.0163  0.0379 -0.2431
 1076YOPC   PO415060   0.420  10.963   5.413  0.0826  0.2852  0.0167
 1076YOPC   GL115061   0.668  10.958   5.783 -0.1952 -0.1764 -0.2276
 1076YOPC   GL215062   0.558  10.792   5.962  0.0376 -0.0147 -0.0424
 1076YOPC   C1A15063   1.039  10.744   6.147 -0.2815 -0.0433 -0.1935
 1076YOPC   D2A15064   1.055  10.780   6.565  0.0672 -0.1815 -0.2053
 1076YOPC   C3A15065   1.317  11.021   6.862  0.1343  0.2134 -0.3171
 1076YOPC   C4A15066   1.301  11.035   7.419  0.3086  0.1426 -0.1265
 1076YOPC   C1B15067   0.720  11.069   6.358 -0.1347 -0.3275  0.0112
 1076YOPC   C2B15068   0.601  11.008   6.797 -0.2446  0.1282  0.2992
 1076YOPC   D3B15069   0.156  10.955   7.061  0.1100 -0.0435  0.1208
 1076YOPC   C4B15070  -0.118  10.901   7.293 -0.0340 -0.0588 -0.2499
 1077YOPC   NC315071   9.463   9.528   4.919  0.1412  0.1752 -0.4392
 1077YOPC   PO415072   9.826   9.361   4.702 -0.0817  0.0264  0.1067
 1077YOPC   GL115073   9.874   9.245   5.028 -0.1656 -0.2644  0.2168
 1077YOPC   GL215074   9.995   9.006   5.151  0.0320  0.5623 -0.5117
 1077YOPC   C1A15075   9.998   9.431   5.478 -0.2846  0.0508 -0.1723
 1077YOPC   D2A15076   9.827   9.434   5.840  0.0123 -0.1689  0.2768
 1077YOPC   C3A15077   9.937   9.403   6.254 -0.0104  0.0208  0.1393
 1077YOPC   C4A15078   9.667   9.698   6.531 -0.1710 -0.1637  0.1742
 1077YOPC   C1B15079  10.187   9.017   5.583  0.1681 -0.0165  0.5005
 1077YOPC   C2B15080  10.067   8.733   5.859 -0.0864 -0.4256 -0.2338
 1077YOPC   D3B15081  10.156   8.494   6.114 -0.2809 -0.1721 -0.1879
 1077YOPC   C4B15082  10.433   8.702   6.516 -0.1539  0.2328  0.1064
 1078YOPC   NC315083  16.966   4.195   5.579  0.1559 -0.1379 -0.0284
 1078YOPC   PO415084  16.519   4.412   5.490  0.2627 -0.0071  0.1002
 1078YOPC   GL115085  16.508   4.356   5.947  0.1976 -0.0149 -0.1048
 1078YOPC   GL215086  16.659   3.956   5.933 -0.0217 -0.0169  0.0154
 1078YOPC   C1A15087  16.477   4.440   6.357  0.1115  0.1890  0.0393
 1078YOPC   D2A15088  16.520   4.373   6.724 -0.0836  0.2352  0.3369
 1078YOPC   C3A15089  16.301   4.229   6.993 -0.0548 -0.2193 -0.1067
 1078YOPC   C4A15090  16.175   4.127   7.331 -0.1137 -0.0988  0.0773
 1078YOPC   C1B15091  16.561   3.866   6.327  0.0224  0.3392  0.1997
 1078YOPC   C2B15092  16.492   3.848   6.707 -0.4433  0.2655 -0.0960
 1078YOPC   D3B15093  16.816   3.548   7.008  0.1032  0.1338  0.2354
 1078YOPC   C4B15094  17.120   3.236   7.128  0.0739  0.2142  0.1162
 1079YOPC   NC315095  17.875  13.705   5.473  0.1012  0.1433 -0.1410
 1079YOPC   PO415096  18.181  13.978   5.544 -0.1719 -0.0786  0.0074
 1079YOPC   GL115097  18.251  13.825   5.908 -0.0867 -0.2931 -0.2080
 1079YOPC   GL215098  18.691  13.717   5.931 -0.0597  0.0295 -0.0677
 1079YOPC   C1A15099  18.335  13.737   6.290  0.0295  0.0097 -0.1774
 1079YOPC   D2A15100  18.348  13.732   6.813  0.2125  0.1265  0.0203
 1079YOPC   C3A15101  18.345  13.763   7.268  0.0624 -0.2367 -0.3134
 1079YOPC   C4A15102  18.708  13.888   7.324  0.2456 -0.4272  0.1247
 1079YOPC   C1B15103  19.070  13.809   6.172 -0.0213 -0.1400  0.2228
 1079YOPC   C2B15104  19.241  13.685   6.616 -0.3755 -0.2231  0.3913
 1079YOPC   D3B15105  19.215  13.700   7.040  0.2138  0.0724  0.3774
 1079YOPC   C4B15106  19.073  13.673   7.490 -0.3020  0.3006 -0.2403
 1080YOPC   NC315107   1.737   5.873   5.350 -0.2378  0.2117 -0.1140
 1080YOPC   PO415108   1.334   5.795   5.669 -0.1538  0.0798  0.0675
 1080YOPC   GL115109   1.579   5.610   5.916  0.4409 -0.2089 -0.2789
 1080YOPC   GL215110   1.863   5.783   5.873 -0.5345 -0.3373 -0.2056
 1080YOPC   C1A15111   1.421   5.298   6.293 -0.0725  0.1336 -0.1135
 1080YOPC   D2A15112   1.367   4.948   6.532  0.0675  0.1857 -0.2470
 1080YOPC   C3A15113   1.419   4.652   6.318  0.2256 -0.2064 -0.1860
 1080YOPC   C4A15114   1.537   4.284   6.215 -0.1031 -0.0098  0.2699
 1080YOPC   C1B15115   1.864   5.621   6.384 -0.0673 -0.0153 -0.2060
 1080YOPC   C2B15116   2.147   5.630   6.695  0.2969  0.1993  0.2404
 1080YOPC   D3B15117   2.185   5.240   6.878  0.0550 -0.2131  0.2509
 1080YOPC   C4B15118   2.362   4.819   6.943  0.0488  0.0715 -0.1189
 1081YOPC   NC315119   2.555  18.020   5.294  0.1595 -0.0372  0.1280
 1081YOPC   PO415120   2.236  17.771   5.137 -0.1035  0.0782  0.2375
 1081YOPC   GL115121   2.230  17.868   5.688 -0.1338 -0.0394 -0.0820
 1081YOPC   GL215122   2.366  17.655   5.847  0.1194 -0.1189  0.2304
 1081YOPC   C1A15123   1.941  18.007   5.973 -0.0284 -0.3233  0.2099
 1081YOPC   D2A15124   1.664  18.321   5.923 -0.2129 -0.1255  0.0146
 1081YOPC   C3A15125   1.604  18.708   6.225 -0.2935 -0.0946  0.0630
 1081YOPC   C4A15126   1.930  18.798   6.351 -0.1757 -0.1731 -0.0695
 1081YOPC   C1B15127   2.538  17.548   6.145 -0.2804 -0.0546  0.0560
 1081YOPC   C2B15128   2.625  17.621   6.494 -0.1932 -0.1667 -0.0454
 1081YOPC   D3B15129   2.390  17.617   6.866 -0.2376 -0.3326  0.2788
 1081YOPC   C4B15130   1.973  17.676   7.101  0.1120  0.0192  0.0690
 1082YOPC   NC315131  15.049   9.810   5.682  0.1392 -0.0507  0.3433
 1082YOPC   PO415132  15.418   9.745   5.612  0.2555 -0.0364 -0.1183
 1082YOPC   GL115133  15.411   9.578   5.990  0.0653  0.0672 -0.2297
 1082YOPC   GL215134  15.306   9.278   5.833 -0.3263  0.1478  0.1826
 1082YOPC   C1A15135  15.078   9.544   6.346  0.0430 -0.1667  0.2233
 1082YOPC   D2A15136  15.179   9.430   6.755 -0.2576  0.2239 -0.1029
 1082YOPC   C3A15137  15.337   9.865   6.653  0.1441 -0.1287 -0.2933
 1082YOPC   C4A15138  15.167  10.326   6.590 -0.1929  0.1104 -0.3541
 1082YOPC   C1B15139  15.619   8.856   5.940  0.2781  0.2183 -0.2343
 1082YOPC   C2B15140  15.532   8.721   6.359 -0.1947  0.1545  0.2431
 1082YOPC   D3B15141  15.315   8.633   6.675 -0.0923 -0.2645  0.0419
 1082YOPC   C4B15142  15.024   8.374   6.915 -0.0187  0.1581  0.0405
 1083YOPC   NC315143   6.727   3.311   4.708  0.0887 -0.1377  0.2064
 1083YOPC   PO415144   6.536   3.625   4.641 -0.1909 -0.1440  0.3206
 1083YOPC   GL115145   6.403   3.537   5.055 -0.1993  0.1230 -0.0694
 1083YOPC   GL215146   6.131   3.376   5.229 -0.1456 -0.1492 -0.3332
 1083YOPC   C1A15147   6.332   3.792   5.391  0.0548 -0.0593  0.0037
 1083YOPC   D2A15148   6.312   3.853   5.787 -0.0979 -0.0531 -0.2037
 1083YOPC   C3A15149   6.286   3.984   6.242  0.2010  0.2680  0.1646
 1083YOPC   C4A15150   6.122   4.006   6.678 -0.0236  0.1578  0.1392
 1083YOPC   C1B15151   6.367   3.315   5.611 -0.0706 -0.0925 -0.1459
 1083YOPC   C2B15152   6.368   3.295   6.060  0.1636  0.1333 -0.0972
 1083YOPC   D3B15153   6.066   3.556   6.372  0.0712  0.0286  0.3707
 1083YOPC   C4B15154   5.927   3.519   6.817 -0.1470 -0.1099 -0.1340
 1084YOPC   NC315155   6.082  16.645   5.497 -0.2717 -0.0347  0.0773
 1084YOPC   PO415156   5.738  16.743   5.616 -0.1016  0.6213  0.0478
 1084YOPC   GL115157   5.829  16.622   5.976 -0.0903 -0.0704 -0.1783
 1084YOPC   GL215158   5.545  16.901   6.110 -0.1370  0.0834  0.0513
 1084YOPC   C1A15159   6.145  16.598   6.341  0.0263  0.3065 -0.0361
 1084YOPC   D2A15160   6.205  16.568   6.700 -0.1673 -0.0528 -0.0126
 1084YOPC   C3A15161   6.123  16.221   6.877  0.0262 -0.0336  0.3548
 1084YOPC   C4A15162   5.716  16.008   7.023  0.1667 -0.1991  0.0493
 1084YOPC   C1B15163   5.693  16.645   6.410 -0.0789  0.2115  0.1921
 1084YOPC   C2B15164   5.742  16.193   6.524 -0.1681  0.2360 -0.2931
 1084YOPC   D3B15165   5.460  15.875   6.596  0.2569 -0.1151 -0.1878
 1084YOPC   C4B15166   5.525  15.452   6.772 -0.0005 -0.1576  0.1977
 1085YOPC   NC315167   9.733  17.377   5.134  0.3012  0.1903  0.0279
 1085YOPC   PO415168  10.205  17.322   5.412 -0.0277  0.1026 -0.0098
 1085YOPC   GL115169  10.357  17.286   5.797  0.1704 -0.0014 -0.0967
 1085YOPC   GL215170  10.302  17.022   6.016  0.0403  0.2262 -0.0976
 1085YOPC   C1A15171  10.551  17.475   6.138  0.3412  0.2008 -0.2426
 1085YOPC   D2A15172  10.812  17.454   6.450  0.2861 -0.1963  0.2427
 1085YOPC   C3A15173  10.807  17.061   6.520 -0.3346  0.0184 -0.0441
 1085YOPC   C4A15174  11.043  16.871   6.823  0.0926  0.2589  0.1766
 1085YOPC   C1B15175  10.277  16.867   6.429 -0.2277 -0.2527  0.0491
 1085YOPC   C2B15176  10.331  16.881   6.857  0.1000 -0.1543  0.3087
 1085YOPC   D3B15177  10.656  17.089   7.034  0.0715 -0.1757  0.0237
 1085YOPC   C4B15178  11.024  17.133   7.247 -0.2542 -0.0659 -0.1312
 1086YOPC   NC315179   1.659  10.728   5.458  0.1251  0.1655 -0.2146
 1086YOPC   PO415180   1.394  10.423   5.566  0.0292 -0.0733  0.2411
 1086YOPC   GL115181   1.499  10.617   5.924  0.2347 -0.1058  0.1514
 1086YOPC   GL215182   1.824  10.790   6.017 -0.2491  0.0576  0.2041
 1086YOPC   C1A15183   1.451  10.545   6.381 -0.0341  0.0189  0.1162
 1086YOPC   D2A15184   1.496  10.460   6.847 -0.0850  0.3074  0.2247
 1086YOPC   C3A15185   1.632  10.707   7.089 -0.0168  0.1847  0.1729
 1086YOPC   C4A15186   1.705  10.741   7.513  0.1392  0.1774  0.1941
 1086YOPC   C1B15187   2.013  10.777   6.327  0.0536  0.1425 -0.2547
 1086YOPC   C2B15188   2.107  10.598   6.816 -0.1959 -0.0031 -0.2442
 1086YOPC   D3B15189   2.086  10.542   7.284 -0.0854 -0.0965  0.0934
 1086YOPC   C4B15190   2.174  10.198   7.520  0.1491 -0.1070 -0.1911
 1087YOPC   NC315191  12.852   3.993   5.414 -0.0199  0.1281  0.0356
 1087YOPC   PO415192  12.616   3.702   5.346  0.0149  0.1033 -0.0504
 1087YOPC   GL115193  12.519   3.722   5.772 -0.0429 -0.1161  0.1039
 1087YOPC   GL215194  12.207   3.680   5.749  0.3915 -0.2488 -0.1293
 1087YOPC   C1A15195  12.424   3.687   6.211 -0.0860 -0.0791 -0.0259
 1087YOPC   D2A15196  12.305   3.781   6.642 -0.2340  0.0472 -0.1926
 1087YOPC   C3A15197  11.896   3.770   6.553  0.3104  0.1360  0.1218
 1087YOPC   C4A15198  11.506   3.836   6.222 -0.1830  0.3570  0.0719
 1087YOPC   C1B15199  11.920   3.764   5.991 -0.3016 -0.0549 -0.0037
 1087YOPC   C2B15200  11.616   3.931   5.743  0.1239  0.2045 -0.0751
 1087YOPC   D3B15201  11.766   4.403   5.685  0.0343 -0.1396  0.1618
 1087YOPC   C4B15202  12.055   4.659   5.660 -0.0389 -0.2596 -0.1736
 1088YOPC   NC315203   3.708   2.701   5.346  0.0877 -0.4839  0.3035
 1088YOPC   PO415204   3.595   3.091   5.291  0.1370  0.1268  0.0150
 1088YOPC   GL115205   3.746   3.134   5.606  0.0280  0.1767 -0.2466
 1088YOPC   GL215206   3.465   3.217   5.744 -0.0094  0.0873  0.3744
 1088YOPC   C1A15207   3.879   3.222   6.002 -0.2416 -0.1912  0.1513
 1088YOPC   D2A15208   4.028   3.092   6.382  0.2376  0.0744 -0.0156
 1088YOPC   C3A15209   3.948   3.163   6.774  0.1711  0.0510  0.0511
 1088YOPC   C4A15210   3.957   3.090   7.238 -0.3526 -0.0248  0.0866
 1088YOPC   C1B15211   3.433   3.153   6.274 -0.1584  0.0083  0.0542
 1088YOPC   C2B15212   3.406   3.397   6.697 -0.2400  0.1868  0.1093
 1088YOPC   D3B15213   3.422   3.099   7.035  0.2181  0.4283  0.2713
 1088YOPC   C4B15214   3.124   2.716   7.141 -0.1937  0.0702 -0.0942
 1089YOPC   NC315215   4.315   6.413   5.154 -0.0591 -0.1814  0.0748
 1089YOPC   PO415216   4.054   6.772   5.377 -0.1433 -0.2384 -0.1948
 1089YOPC   GL115217   3.946   6.726   5.689 -0.2288  0.4044  0.1863
 1089YOPC   GL215218   3.603   6.582   5.703  0.2689 -0.3146 -0.0267
 1089YOPC   C1A15219   4.025   6.248   5.833 -0.0531  0.1858 -0.2017
 1089YOPC   D2A15220   4.032   5.824   5.971  0.0976 -0.1749  0.0751
 1089YOPC   C3A15221   4.296   5.656   6.368 -0.2623  0.1500  0.2980
 1089YOPC   C4A15222   4.762   5.494   6.626 -0.0209 -0.0737 -0.0934
 1089YOPC   C1B15223   3.748   6.809   6.156 -0.2425  0.0053 -0.3397
 1089YOPC   C2B15224   3.415   7.042   6.396 -0.4311 -0.1251 -0.2729
 1089YOPC   D3B15225   3.245   6.921   6.758  0.1059  0.0825  0.0662
 1089YOPC   C4B15226   3.135   6.667   7.091 -0.0237 -0.1037  0.1673
 1090YOPC   NC315227   9.194  10.215   4.761 -0.1710  0.0529 -0.0889
 1090YOPC   PO415228   8.814  10.190   5.012 -0.0503  0.0512  0.1314
 1090YOPC   GL115229   8.743  10.230   5.500 -0.0004 -0.1062  0.2026
 1090YOPC   GL215230   8.484  10.124   5.591 -0.0628  0.0869 -0.1232
 1090YOPC   C1A15231   8.863  10.098   5.936  0.0691 -0.1380 -0.0985
 1090YOPC   D2A15232   8.959   9.782   6.182 -0.1299 -0.1722  0.1448
 1090YOPC   C3A15233   9.186   9.700   6.591 -0.0152  0.2308 -0.1067
 1090YOPC   C4A15234   9.291   9.716   6.991 -0.3900 -0.0318 -0.5087
 1090YOPC   C1B15235   8.417  10.460   5.908 -0.1097 -0.2510 -0.3330
 1090YOPC   C2B15236   8.720  10.506   6.202 -0.0149  0.0221 -0.0665
 1090YOPC   D3B15237   9.160  10.232   6.343 -0.2467  0.0658  0.0226
 1090YOPC   C4B15238   9.408   9.956   6.166 -0.0218 -0.1177  0.2532
 1091YOPC   NC315239  13.824   2.513   5.094 -0.1085 -0.1316 -0.2222
 1091YOPC   PO415240  13.423   2.382   5.064  0.3218 -0.1173  0.0108
 1091YOPC   GL115241  13.429   2.371   5.456 -0.3098 -0.1438 -0.2589
 1091YOPC   GL215242  13.436   2.032   5.568 -0.0595  0.6388 -0.1156
 1091YOPC   C1A15243  13.501   2.496   5.888 -0.1830 -0.0027 -0.0041
 1091YOPC   D2A15244  13.699   2.639   6.218 -0.1294 -0.2204  0.0425
 1091YOPC   C3A15245  13.638   2.482   6.707  0.3026 -0.1310 -0.1447
 1091YOPC   C4A15246  13.508   2.447   7.131  0.0957 -0.0538  0.0789
 1091YOPC   C1B15247  13.806   2.058   5.833 -0.2082  0.0680  0.1443
 1091YOPC   C2B15248  13.917   2.258   6.062 -0.0568  0.0703  0.1575
 1091YOPC   D3B15249  14.089   2.311   6.438  0.1605  0.0713  0.1263
 1091YOPC   C4B15250  14.207   2.170   6.726  0.0826 -0.0298 -0.1329
 1092YOPC   NC315251  17.734   4.205   5.435 -0.0990  0.2531  0.1713
 1092YOPC   PO415252  18.150   4.279   5.557 -0.0023 -0.0349 -0.1701
 1092YOPC   GL115253  18.179   4.674   5.921  0.1623  0.1437 -0.1683
 1092YOPC   GL215254  17.880   4.501   6.078  0.0398 -0.2630  0.0466
 1092YOPC   C1A15255  18.355   4.809   6.364 -0.0558 -0.2246  0.3326
 1092YOPC   D2A15256  18.338   4.861   6.720 -0.1619 -0.2006 -0.1030
 1092YOPC   C3A15257  18.239   4.997   7.118  0.1585  0.1422 -0.0052
 1092YOPC   C4A15258  18.093   4.709   7.426  0.2988 -0.0757  0.1861
 1092YOPC   C1B15259  17.909   4.277   6.531  0.0172 -0.0659  0.0728
 1092YOPC   C2B15260  17.838   4.456   7.030 -0.0339 -0.1251  0.0599
 1092YOPC   D3B15261  17.765   4.317   7.392  0.3249 -0.0663  0.0269
 1092YOPC   C4B15262  17.575   3.963   7.533 -0.0938  0.2138  0.0502
 1093YOPC   NC315263  18.095   5.491   5.511 -0.2645 -0.0129 -0.1840
 1093YOPC   PO415264  18.486   5.216   5.497  0.0917 -0.0778 -0.2046
 1093YOPC   GL115265  18.436   5.203   5.974  0.2288  0.3654 -0.2175
 1093YOPC   GL215266  18.699   5.262   6.111  0.0334  0.0943  0.0556
 1093YOPC   C1A15267  18.233   5.389   6.315 -0.0491  0.1861  0.0004
 1093YOPC   D2A15268  18.281   5.356   6.731 -0.1363 -0.0622 -0.0744
 1093YOPC   C3A15269  18.028   5.445   7.045 -0.3706  0.2338 -0.2735
 1093YOPC   C4A15270  17.780   5.708   7.327  0.3519 -0.0878 -0.0006
 1093YOPC   C1B15271  18.709   5.221   6.503  0.1398 -0.0265  0.0466
 1093YOPC   C2B15272  18.857   5.533   6.789 -0.5171 -0.1438  0.1344
 1093YOPC   D3B15273  19.322   5.702   6.694 -0.0391 -0.0649 -0.0451
 1093YOPC   C4B15274  19.733   5.677   6.644 -0.0692  0.1297  0.1437
 1094YOPC   NC315275  14.649  16.731   5.718  0.0837 -0.2660  0.0439
 1094YOPC   PO415276  15.075  16.547   5.685 -0.0124 -0.2121  0.0260
 1094YOPC   GL115277  15.385  16.500   5.918  0.0099 -0.2970 -0.2316
 1094YOPC   GL215278  15.535  16.779   6.014 -0.3893  0.1603  0.0565
 1094YOPC   C1A15279  15.478  16.371   6.452  0.0417 -0.0162  0.4594
 1094YOPC   D2A15280  15.324  16.559   6.762 -0.2358 -0.0951  0.1601
 1094YOPC   C3A15281  14.953  16.716   6.827 -0.2561  0.0743 -0.1269
 1094YOPC   C4A15282  14.697  16.986   6.518 -0.1017  0.1810  0.0014
 1094YOPC   C1B15283  15.749  16.862   6.383  0.0340  0.0386 -0.0619
 1094YOPC   C2B15284  15.907  16.841   6.725  0.2904 -0.1121 -0.2526
 1094YOPC   D3B15285  15.743  16.937   7.040  0.0803 -0.0434 -0.2268
 1094YOPC   C4B15286  15.437  16.778   7.234  0.0858  0.0001 -0.0019
 1095YOPC   NC315287  14.323   2.629   4.857  0.2930  0.0172  0.0200
 1095YOPC   PO415288  14.185   2.314   4.743  0.0764 -0.0308  0.0354
 1095YOPC   GL115289  14.331   2.242   5.175 -0.0859 -0.1094 -0.0137
 1095YOPC   GL215290  14.327   1.954   5.350  0.2593  0.0445  0.0737
 1095YOPC   C1A15291  14.487   2.443   5.586 -0.1242 -0.0283  0.1766
 1095YOPC   D2A15292  14.487   2.893   5.743  0.1473  0.0698  0.3286
 1095YOPC   C3A15293  14.393   2.915   6.122  0.1431 -0.0809  0.3377
 1095YOPC   C4A15294  14.244   2.877   6.478  0.3854 -0.1739 -0.0177
 1095YOPC   C1B15295  14.360   2.000   5.748  0.1484 -0.0768  0.0589
 1095YOPC   C2B15296  14.184   1.820   6.108  0.1942  0.0327  0.0865
 1095YOPC   D3B15297  14.510   1.843   6.351 -0.2270  0.0157 -0.4941
 1095YOPC   C4B15298  14.513   1.596   6.790  0.2124 -0.5095  0.1273
 1096YOPC   NC315299   6.878  15.434   5.350  0.1652 -0.2321 -0.0736
 1096YOPC   PO415300   6.781  15.024   5.539  0.0415 -0.0575 -0.1751
 1096YOPC   GL115301   6.970  14.699   5.953 -0.0033 -0.1903 -0.0925
 1096YOPC   GL215302   7.255  14.531   5.935  0.0438  0.1460 -0.0187
 1096YOPC   C1A15303   6.960  14.668   6.426  0.2598  0.0162  0.2309
 1096YOPC   D2A15304   6.776  14.304   6.701 -0.1524 -0.3568  0.2794
 1096YOPC   C3A15305   6.888  14.301   7.033 -0.3101  0.1263 -0.0126
 1096YOPC   C4A15306   7.097  14.011   7.266 -0.2670 -0.2581  0.3244
 1096YOPC   C1B15307   7.368  14.510   6.331 -0.2438  0.3188 -0.4328
 1096YOPC   C2B15308   7.346  14.437   6.757  0.2650 -0.2185  0.2217
 1096YOPC   D3B15309   7.548  14.232   7.128 -0.2274  0.0922  0.3071
 1096YOPC   C4B15310   7.483  14.004   7.588 -0.1530 -0.0268  0.0623
 1097YOPC   NC315311   0.403   9.595   5.520 -0.0777  0.0111 -0.1694
 1097YOPC   PO415312   0.844   9.579   5.520 -0.1435 -0.1025  0.1474
 1097YOPC   GL115313   1.192   9.833   5.815  0.1375  0.0584 -0.0519
 1097YOPC   GL215314   1.473   9.911   5.695  0.1494 -0.2564  0.0955
 1097YOPC   C1A15315   1.279  10.131   6.101  0.2521  0.3632 -0.3526
 1097YOPC   D2A15316   1.453   9.978   6.474 -0.1572  0.1055 -0.1621
 1097YOPC   C3A15317   1.339   9.912   6.833 -0.0622  0.1563  0.0574
 1097YOPC   C4A15318   1.239  10.164   7.238 -0.1426  0.0413  0.0360
 1097YOPC   C1B15319   1.701   9.805   6.067  0.2253 -0.0616 -0.0463
 1097YOPC   C2B15320   1.939   9.829   6.338  0.0379 -0.1016  0.0008
 1097YOPC   D3B15321   1.824   9.784   6.737  0.0832  0.2586  0.0348
 1097YOPC   C4B15322   1.868  10.101   7.061  0.2461 -0.1132  0.0968
 1098YOPC   NC315323   0.605  14.195   6.153 -0.0005 -0.0939 -0.2474
 1098YOPC   PO415324   0.366  14.091   5.734  0.1157  0.2110  0.1311
 1098YOPC   GL115325   0.492  13.717   6.003  0.0326  0.1601  0.1030
 1098YOPC   GL215326   0.793  13.667   6.078 -0.2511  0.0914  0.0078
 1098YOPC   C1A15327   0.529  13.719   6.498  0.0016  0.4178 -0.1371
 1098YOPC   D2A15328   0.458  13.547   6.973  0.1460  0.1065  0.0725
 1098YOPC   C3A15329   0.760  13.349   7.229  0.0999  0.0166  0.3030
 1098YOPC   C4A15330   0.822  13.475   7.648  0.0178  0.1276 -0.0867
 1098YOPC   C1B15331   0.745  13.302   6.040  0.2102  0.0048  0.2461
 1098YOPC   C2B15332   0.837  13.084   6.305  0.1402  0.2478 -0.2141
 1098YOPC   D3B15333   0.607  13.214   6.623  0.4729 -0.1772 -0.2327
 1098YOPC   C4B15334   0.534  13.042   6.951  0.1529 -0.0038 -0.2148
 1099YOPC   NC315335   5.754   2.553   5.031 -0.0462  0.0441  0.0368
 1099YOPC   PO415336   6.176   2.702   4.906  0.0783 -0.1231  0.1992
 1099YOPC   GL115337   6.095   2.876   5.318  0.3345  0.3135  0.0872
 1099YOPC   GL215338   6.067   2.558   5.472 -0.4295 -0.1969 -0.1337
 1099YOPC   C1A15339   5.888   2.983   5.689 -0.3090 -0.0977 -0.2058
 1099YOPC   D2A15340   5.864   3.209   6.005 -0.0250  0.3480 -0.0719
 1099YOPC   C3A15341   5.533   3.183   6.035 -0.0445 -0.0288  0.2020
 1099YOPC   C4A15342   5.201   3.054   5.762  0.0097  0.0326 -0.3023
 1099YOPC   C1B15343   5.863   2.470   5.845  0.1794 -0.2776  0.2833
 1099YOPC   C2B15344   5.794   2.699   6.242 -0.0374 -0.1326 -0.1197
 1099YOPC   D3B15345   5.640   3.055   6.495 -0.2534  0.0054 -0.3857
 1099YOPC   C4B15346   5.386   3.490   6.553 -0.1236  0.2252  0.0792
 1100YOPC   NC315347  17.596   2.342   5.146 -0.1881  0.0720 -0.2109
 1100YOPC   PO415348  17.295   2.120   5.390  0.3557  0.0472  0.2270
 1100YOPC   GL115349  17.506   2.320   5.724 -0.0858  0.1776  0.0620
 1100YOPC   GL215350  17.835   2.452   5.949  0.0662  0.0446  0.3198
 1100YOPC   C1A15351  17.591   2.184   6.235 -0.1349 -0.2417  0.1207
 1100YOPC   D2A15352  17.794   1.995   6.595 -0.0813 -0.2738 -0.1694
 1100YOPC   C3A15353  17.874   2.228   7.024  0.1068  0.0220  0.0574
 1100YOPC   C4A15354  18.203   2.333   7.260  0.2558  0.0688  0.0411
 1100YOPC   C1B15355  18.094   2.292   6.331 -0.1535 -0.1910 -0.2450
 1100YOPC   C2B15356  18.284   2.451   6.757 -0.1610  0.1470 -0.2708
 1100YOPC   D3B15357  18.035   2.743   7.019  0.3437 -0.0088  0.1352
 1100YOPC   C4B15358  17.840   2.638   7.401 -0.2686 -0.0611  0.0861
 1101YOPC   NC315359   6.358   0.293   5.098 -0.1904 -0.2603 -0.1035
 1101YOPC   PO415360   6.528   0.132   5.390 -0.1680 -0.1098 -0.0024
 1101YOPC   GL115361   6.349   0.325   5.695  0.2668 -0.0435  0.0419
 1101YOPC   GL215362   6.573   0.331   6.011  0.1231 -0.4503 -0.0148
 1101YOPC   C1A15363   6.305   0.736   5.870 -0.0350 -0.1070 -0.2444
 1101YOPC   D2A15364   6.085   0.844   6.249 -0.3673 -0.0628  0.0395
 1101YOPC   C3A15365   6.238   0.762   6.664 -0.1002  0.0994  0.1103
 1101YOPC   C4A15366   6.116   0.309   6.813  0.1170  0.2288  0.0789
 1101YOPC   C1B15367   6.171   0.386   6.211 -0.2954 -0.0037  0.1267
 1101YOPC   C2B15368   5.746   0.197   6.342  0.2633  0.1409 -0.1950
 1101YOPC   D3B15369   5.596   0.089   6.826 -0.1733 -0.1751  0.1073
 1101YOPC   C4B15370   5.769   0.170   7.258  0.4663 -0.0555 -0.1386
 1102YOPC   NC315371  13.058  16.868   5.279 -0.1812 -0.0302  0.1655
 1102YOPC   PO415372  13.256  16.649   5.639  0.2184 -0.0992  0.1375
 1102YOPC   GL115373  13.152  16.580   6.085  0.2035  0.0708 -0.1488
 1102YOPC   GL215374  12.893  16.651   6.053  0.2844  0.2940 -0.2890
 1102YOPC   C1A15375  13.363  16.618   6.491 -0.0569  0.2410  0.0536
 1102YOPC   D2A15376  13.294  16.609   6.875  0.0682  0.1086 -0.1515
 1102YOPC   C3A15377  13.340  16.882   7.168 -0.1826 -0.5598 -0.1883
 1102YOPC   C4A15378  13.193  17.002   7.513  0.0129 -0.1749  0.0316
 1102YOPC   C1B15379  12.859  16.775   6.474  0.1899 -0.1081  0.1773
 1102YOPC   C2B15380  12.969  16.949   6.830  0.1622  0.0029 -0.1895
 1102YOPC   D3B15381  12.829  17.257   7.119 -0.0118 -0.2188 -0.0859
 1102YOPC   C4B15382  13.141  17.507   7.360 -0.0022  0.2665  0.1649
 1103YOPC   NC315383   7.828   5.971   4.853 -0.2586  0.2309  0.0157
 1103YOPC   PO415384   8.259   5.931   4.735 -0.2222 -0.1844  0.0676
 1103YOPC   GL115385   8.227   5.801   5.171  0.0123  0.0486 -0.2422
 1103YOPC   GL215386   7.884   5.579   5.151 -0.0197 -0.2762  0.0227
 1103YOPC   C1A15387   8.314   5.988   5.620  0.1407  0.1894  0.0209
 1103YOPC   D2A15388   8.648   5.947   5.866  0.0051 -0.0370  0.0615
 1103YOPC   C3A15389   9.011   5.736   5.836  0.1290 -0.2262 -0.3507
 1103YOPC   C4A15390   9.355   5.858   6.138 -0.0774 -0.2670  0.1298
 1103YOPC   C1B15391   7.932   5.673   5.623  0.0471 -0.0286 -0.0129
 1103YOPC   C2B15392   7.712   5.535   6.072 -0.3308 -0.1077  0.3527
 1103YOPC   D3B15393   7.679   5.618   6.449  0.0729 -0.0084 -0.0600
 1103YOPC   C4B15394   7.464   5.795   6.756 -0.0992 -0.1725  0.3880
 1104YOPC   NC315395  17.734   7.130   5.518 -0.0828  0.0818 -0.0056
 1104YOPC   PO415396  17.824   6.703   5.524  0.1987  0.0059  0.3557
 1104YOPC   GL115397  17.913   6.362   5.713  0.0643 -0.1008  0.0642
 1104YOPC   GL215398  17.673   6.292   5.845 -0.2178 -0.4193 -0.0992
 1104YOPC   C1A15399  18.095   6.473   6.094  0.2964  0.1903  0.1462
 1104YOPC   D2A15400  18.299   6.757   6.249 -0.1986 -0.0983  0.2136
 1104YOPC   C3A15401  18.489   6.704   6.648 -0.0531  0.1825 -0.0537
 1104YOPC   C4A15402  18.401   6.503   6.868 -0.0483 -0.1873 -0.1669
 1104YOPC   C1B15403  17.457   6.474   6.107 -0.3076 -0.2076 -0.1949
 1104YOPC   C2B15404  17.216   6.369   6.418 -0.0544  0.3590 -0.0606
 1104YOPC   D3B15405  16.954   6.204   6.751 -0.1517  0.0792 -0.1106
 1104YOPC   C4B15406  16.676   6.450   7.039  0.0131 -0.0478 -0.1313
 1105YOPC   NC315407  12.530  11.693   5.158  0.3849  0.1195  0.0782
 1105YOPC   PO415408  12.595  11.320   5.427 -0.0943 -0.0383 -0.1246
 1105YOPC   GL115409  12.399  11.267   5.757  0.0054  0.1527 -0.4689
 1105YOPC   GL215410  12.044  11.571   5.949  0.4229  0.0484 -0.1369
 1105YOPC   C1A15411  12.694  11.228   6.116  0.1094  0.0525 -0.0607
 1105YOPC   D2A15412  13.058  11.175   6.462 -0.0227 -0.3269  0.1108
 1105YOPC   C3A15413  13.059  10.988   6.788  0.2717  0.2883 -0.1055
 1105YOPC   C4A15414  12.994  11.011   7.210 -0.0730  0.0369  0.2157
 1105YOPC   C1B15415  12.193  11.265   6.262 -0.1700  0.1957 -0.3637
 1105YOPC   C2B15416  12.469  11.014   6.495  0.0702  0.1420 -0.0593
 1105YOPC   D3B15417  12.546  11.060   6.983 -0.1097  0.0389 -0.0091
 1105YOPC   C4B15418  12.195  11.176   7.141 -0.0379 -0.0121 -0.0699
 1106YOPC   NC315419   8.521  19.039   5.422  0.1596 -0.0861  0.1068
 1106YOPC   PO415420   8.238  18.693   5.242 -0.2072 -0.0692  0.1565
 1106YOPC   GL115421   8.184  18.753   5.730 -0.0277 -0.0268  0.0317
 1106YOPC   GL215422   8.482  18.806   5.881  0.0461 -0.1228 -0.4127
 1106YOPC   C1A15423   7.986  18.492   5.981  0.3308  0.1262 -0.4156
 1106YOPC   D2A15424   7.835  18.101   6.321 -0.1626 -0.0795 -0.0699
 1106YOPC   C3A15425   7.594  17.904   6.683 -0.0041  0.1848  0.1101
 1106YOPC   C4A15426   7.753  17.685   7.044  0.4681 -0.0384 -0.0548
 1106YOPC   C1B15427   8.405  18.628   6.257  0.1662  0.4497 -0.1543
 1106YOPC   C2B15428   8.464  18.704   6.695 -0.3084  0.2043  0.2833
 1106YOPC   D3B15429   8.735  18.472   7.005  0.0320  0.2213 -0.1041
 1106YOPC   C4B15430   9.113  18.404   7.163 -0.1762 -0.2146 -0.2017
 1107YOPC   NC315431  18.575   0.538   5.322 -0.0138  0.1487 -0.2351
 1107YOPC   PO415432  18.411   0.522   5.694  0.0011 -0.2355  0.0203
 1107YOPC   GL115433  18.478   0.682   6.088  0.1214 -0.0638 -0.0838
 1107YOPC   GL215434  18.749   0.836   6.163  0.0382  0.2371  0.1034
 1107YOPC   C1A15435  18.372   0.797   6.448 -0.2405 -0.1200 -0.1546
 1107YOPC   D2A15436  18.408   0.883   6.889 -0.1729 -0.2225 -0.2138
 1107YOPC   C3A15437  18.220   1.268   7.058 -0.3128 -0.1411  0.1441
 1107YOPC   C4A15438  18.474   1.520   7.371 -0.0662  0.3225 -0.2313
 1107YOPC   C1B15439  18.865   1.048   6.571  0.0170 -0.1453  0.2679
 1107YOPC   C2B15440  19.085   1.080   6.922  0.0695 -0.2371 -0.2985
 1107YOPC   D3B15441  18.822   1.045   7.333 -0.1559 -0.0373  0.0781
 1107YOPC   C4B15442  18.481   1.020   7.525 -0.1077 -0.0725  0.0911
 1108YOPC   NC315443  10.685   0.282   5.051  0.2277 -0.0831  0.2813
 1108YOPC   PO415444  10.648  -0.113   5.270  0.0856 -0.1324  0.0741
 1108YOPC   GL115445  10.725  -0.347   5.679  0.3033 -0.0505  0.1346
 1108YOPC   GL215446  10.944  -0.705   5.790 -0.0602  0.2503  0.0150
 1108YOPC   C1A15447  11.111  -0.252   5.945 -0.0518 -0.0711 -0.2749
 1108YOPC   D2A15448  11.277  -0.186   6.334 -0.0111  0.1601  0.0174
 1108YOPC   C3A15449  11.195  -0.138   6.785  0.0127  0.1026  0.1366
 1108YOPC   C4A15450  11.169  -0.214   7.221  0.1254  0.1951  0.4590
 1108YOPC   C1B15451  10.932  -0.586   6.241  0.0329  0.2672 -0.1798
 1108YOPC   C2B15452  10.775  -0.302   6.480 -0.0835 -0.0936  0.0020
 1108YOPC   D3B15453  10.712  -0.225   6.995  0.0993 -0.1095 -0.2932
 1108YOPC   C4B15454  10.399  -0.120   7.322  0.3623  0.0886 -0.0883
 1109YOPC   NC315455  17.994  11.710   5.405 -0.0853 -0.1360  0.1532
 1109YOPC   PO415456  17.437  11.664   5.475  0.0162  0.0731  0.0971
 1109YOPC   GL115457  17.287  11.587   5.964 -0.4517 -0.1252  0.1044
 1109YOPC   GL215458  16.955  11.659   6.017  0.3038  0.0797 -0.3558
 1109YOPC   C1A15459  17.402  11.757   6.384  0.0953 -0.1776 -0.0796
 1109YOPC   D2A15460  17.447  12.155   6.604 -0.0913  0.0197  0.1149
 1109YOPC   C3A15461  17.379  12.176   7.097 -0.0101 -0.3211 -0.0578
 1109YOPC   C4A15462  17.349  12.101   7.530 -0.3931 -0.3899 -0.1120
 1109YOPC   C1B15463  16.954  11.354   6.317  0.0771 -0.0154 -0.1256
 1109YOPC   C2B15464  17.030  11.418   6.708 -0.0140 -0.3141 -0.1412
 1109YOPC   D3B15465  17.398  11.682   6.929  0.1636 -0.0306 -0.3079
 1109YOPC   C4B15466  17.435  11.392   7.150 -0.1152 -0.0863  0.0416
 1110YOPC   NC315467   6.852   8.925   5.050  0.0003 -0.1245 -0.0539
 1110YOPC   PO415468   6.656   8.563   4.987 -0.3339  0.1482 -0.0994
 1110YOPC   GL115469   6.374   8.692   5.353  0.5879 -0.0908  0.2449
 1110YOPC   GL215470   6.714   8.763   5.535  0.3266 -0.1030 -0.3087
 1110YOPC   C1A15471   6.290   8.737   5.790 -0.0051 -0.1067 -0.1641
 1110YOPC   D2A15472   6.014   8.652   6.253 -0.4107  0.0672 -0.3599
 1110YOPC   C3A15473   6.159   8.623   6.597 -0.0383 -0.2342  0.2469
 1110YOPC   C4A15474   6.212   8.469   6.910 -0.0486 -0.0239 -0.0977
 1110YOPC   C1B15475   6.649   8.330   5.776 -0.1307 -0.2995  0.0806
 1110YOPC   C2B15476   7.086   8.356   5.874 -0.3116  0.1111 -0.0775
 1110YOPC   D3B15477   7.058   8.755   5.992 -0.0368  0.0850  0.1953
 1110YOPC   C4B15478   6.925   8.936   6.313 -0.2775  0.0746 -0.0268
 1111YOPC   NC315479   5.461   7.681   5.096 -0.0982  0.2797  0.2751
 1111YOPC   PO415480   5.484   8.174   5.028  0.0267 -0.0140  0.2613
 1111YOPC   GL115481   5.480   7.988   5.504 -0.0754 -0.0285 -0.0324
 1111YOPC   GL215482   5.550   7.611   5.581 -0.1197 -0.2315  0.1168
 1111YOPC   C1A15483   5.276   7.916   5.898 -0.1068 -0.1257  0.0485
 1111YOPC   D2A15484   4.977   8.093   6.228 -0.2116 -0.3373  0.1678
 1111YOPC   C3A15485   5.178   8.119   6.628 -0.3372 -0.1442 -0.0109
 1111YOPC   C4A15486   5.466   8.110   6.967 -0.0239 -0.2022  0.0643
 1111YOPC   C1B15487   5.727   7.862   5.940 -0.1716 -0.0576  0.2517
 1111YOPC   C2B15488   6.060   8.160   6.173  0.3291  0.2735  0.2027
 1111YOPC   D3B15489   6.360   8.061   6.460 -0.2078 -0.2216  0.2304
 1111YOPC   C4B15490   6.590   8.360   6.699 -0.2931  0.1402 -0.1251
 1112YOPC   NC315491   3.963  11.720   5.303 -0.1855  0.3949 -0.1852
 1112YOPC   PO415492   3.972  12.168   5.665  0.0167 -0.3127  0.1152
 1112YOPC   GL115493   4.005  12.257   6.148 -0.0809  0.1272  0.0570
 1112YOPC   GL215494   4.293  12.336   6.183  0.0004 -0.0856 -0.0004
 1112YOPC   C1A15495   3.910  12.191   6.576  0.1008 -0.4693  0.0553
 1112YOPC   D2A15496   3.936  12.480   6.908  0.0714  0.0109  0.3469
 1112YOPC   C3A15497   3.662  12.571   7.349  0.0467  0.3118  0.0101
 1112YOPC   C4A15498   3.598  12.388   7.707  0.0037 -0.4494 -0.1238
 1112YOPC   C1B15499   4.407  12.349   6.628 -0.1683 -0.0797  0.0702
 1112YOPC   C2B15500   4.413  12.652   6.943  0.0745  0.2954  0.1663
 1112YOPC   D3B15501   4.204  12.614   7.361  0.0457  0.0257  0.1461
 1112YOPC   C4B15502   4.341  12.628   7.753 -0.0257  0.3140 -0.2816
 1113YOPC   NC315503   1.268  12.496   5.550  0.2043  0.2894 -0.1276
 1113YOPC   PO415504   1.721  12.536   5.501 -0.0124  0.0148 -0.0691
 1113YOPC   GL115505   1.801  12.445   5.878  0.0133 -0.0306  0.0259
 1113YOPC   GL215506   1.802  12.235   6.141 -0.2007  0.1733  0.2219
 1113YOPC   C1A15507   1.798  12.884   6.087  0.4121 -0.2125  0.0590
 1113YOPC   D2A15508   1.703  13.213   6.480 -0.1804  0.0147 -0.1268
 1113YOPC   C3A15509   1.667  13.164   6.942 -0.1828  0.2060 -0.0653
 1113YOPC   C4A15510   1.900  12.976   7.182  0.1687 -0.1202 -0.1338
 1113YOPC   C1B15511   1.561  12.465   6.374  0.0398 -0.3342 -0.0627
 1113YOPC   C2B15512   1.876  12.759   6.591  0.0158  0.0310 -0.0811
 1113YOPC   D3B15513   1.841  12.536   7.030 -0.1482 -0.1310  0.2884
 1113YOPC   C4B15514   1.782  12.342   7.323 -0.0011 -0.0396  0.1139
 1114YOPC   NC315515  11.702   3.461   4.969 -0.2129 -0.0005 -0.0451
 1114YOPC   PO415516  11.307   3.262   5.128  0.0223  0.1781  0.0847
 1114YOPC   GL115517  11.064   3.453   5.496 -0.0561 -0.1892  0.0249
 1114YOPC   GL215518  10.847   3.226   5.758  0.4062  0.2641  0.2337
 1114YOPC   C1A15519  11.088   3.644   5.955 -0.2555 -0.2815  0.0702
 1114YOPC   D2A15520  11.103   3.612   6.432  0.0195  0.1260 -0.0887
 1114YOPC   C3A15521  11.238   3.795   6.843  0.3351  0.0613 -0.1285
 1114YOPC   C4A15522  11.601   4.001   6.925  0.1356  0.3350 -0.3609
 1114YOPC   C1B15523  11.004   3.074   6.167 -0.3290  0.0396 -0.0565
 1114YOPC   C2B15524  11.105   3.151   6.632 -0.2398 -0.2244  0.5068
 1114YOPC   D3B15525  11.340   3.075   6.958  0.2720  0.0619 -0.1612
 1114YOPC   C4B15526  11.430   2.902   7.304 -0.1543  0.0757  0.2454
 1115YOPC   NC315527  14.234   3.640   5.031 -0.0838 -0.2537  0.4773
 1115YOPC   PO415528  14.227   4.076   5.003 -0.1204  0.0501 -0.0768
 1115YOPC   GL115529  14.146   3.974   5.383 -0.1082 -0.0310  0.0123
 1115YOPC   GL215530  13.837   3.765   5.380 -0.1104  0.0724 -0.0661
 1115YOPC   C1A15531  14.335   3.997   5.705  0.3755 -0.2684 -0.1370
 1115YOPC   D2A15532  14.619   3.905   6.140 -0.2153 -0.0848  0.2966
 1115YOPC   C3A15533  14.985   4.069   6.345 -0.1249  0.0230  0.0777
 1115YOPC   C4A15534  15.442   3.975   6.585 -0.1587  0.0427 -0.1188
 1115YOPC   C1B15535  13.951   3.724   5.775  0.1147  0.1952  0.0621
 1115YOPC   C2B15536  14.126   3.735   6.183  0.0788  0.1766  0.1583
 1115YOPC   D3B15537  14.321   4.013   6.498  0.2056 -0.2759 -0.0739
 1115YOPC   C4B15538  14.436   4.160   6.952 -0.0459  0.2006 -0.0987
 1116YOPC   NC315539   2.223  12.548   5.512  0.2039 -0.1195  0.1255
 1116YOPC   PO415540   2.215  12.113   5.361  0.2934  0.2160  0.3644
 1116YOPC   GL115541   2.305  12.050   5.864  0.0412  0.3468 -0.4498
 1116YOPC   GL215542   2.571  11.891   5.746 -0.1746 -0.1982  0.0391
 1116YOPC   C1A15543   2.247  12.306   6.326  0.2222 -0.1797 -0.2457
 1116YOPC   D2A15544   2.422  12.642   6.586  0.3424  0.0736 -0.0236
 1116YOPC   C3A15545   2.397  12.494   7.000  0.2284  0.1085 -0.0011
 1116YOPC   C4A15546   2.209  12.634   7.366 -0.1716  0.0755 -0.1059
 1116YOPC   C1B15547   2.658  12.025   6.198  0.0044  0.0182  0.0848
 1116YOPC   C2B15548   2.523  12.026   6.664  0.2850  0.2725  0.2231
 1116YOPC   D3B15549   2.744  12.026   7.182  0.4744 -0.1287  0.4634
 1116YOPC   C4B15550   2.988  12.047   7.475  0.0004 -0.2551  0.0465
 1117YOPC   NC315551  13.892  16.153   5.935  0.2494  0.1315  0.0426
 1117YOPC   PO415552  14.197  16.405   5.851  0.1453 -0.3075  0.2865
 1117YOPC   GL115553  14.231  16.404   6.344 -0.1328 -0.1646  0.0865
 1117YOPC   GL215554  14.470  16.529   6.474 -0.2065  0.0239  0.1671
 1117YOPC   C1A15555  13.964  16.339   6.688  0.0347 -0.4675  0.3079
 1117YOPC   D2A15556  13.771  16.480   7.120  0.2598  0.4233  0.1367
 1117YOPC   C3A15557  14.085  16.540   7.408  0.1884 -0.3868  0.0352
 1117YOPC   C4A15558  14.213  16.361   7.669 -0.0901 -0.2934  0.2801
 1117YOPC   C1B15559  14.466  16.590   6.941 -0.1193 -0.0330  0.1330
 1117YOPC   C2B15560  14.502  16.774   7.309 -0.5287  0.3422 -0.1592
 1117YOPC   D3B15561  14.576  16.690   7.781  0.1915  0.1057  0.1288
 1117YOPC   C4B15562  15.051  16.986   7.931 -0.0137  0.2293  0.2537
 1118YOPC   NC315563  16.938   7.103   4.525 -0.0112 -0.1624 -0.0238
 1118YOPC   PO415564  16.583   6.934   4.906 -0.0556 -0.0715 -0.0735
 1118YOPC   GL115565  16.737   6.613   5.193 -0.0021 -0.1177 -0.0239
 1118YOPC   GL215566  16.568   6.261   5.111 -0.2477  0.1572 -0.0054
 1118YOPC   C1A15567  16.715   6.504   5.675 -0.2963  0.2155  0.3527
 1118YOPC   D2A15568  16.881   6.163   5.977 -0.1403  0.0194  0.0843
 1118YOPC   C3A15569  16.669   6.037   6.385  0.1260  0.0713 -0.0740
 1118YOPC   C4A15570  16.340   6.084   6.657  0.0135  0.0999 -0.1172
 1118YOPC   C1B15571  16.223   6.256   5.364 -0.1670  0.0973  0.1186
 1118YOPC   C2B15572  16.028   6.163   5.716 -0.1099  0.2627 -0.1089
 1118YOPC   D3B15573  15.762   6.420   6.011  0.0901  0.1796 -0.5688
 1118YOPC   C4B15574  15.486   6.800   6.018  0.1914 -0.2001  0.0035
 1119YOPC   NC315575   0.742  18.510   5.652  0.2888  0.1504 -0.1835
 1119YOPC   PO415576   1.128  18.239   5.676 -0.0669  0.2644 -0.0199
 1119YOPC   GL115577   1.114  18.311   6.167  0.0608  0.2691  0.2472
 1119YOPC   GL215578   0.778  18.452   6.138 -0.2604 -0.0698 -0.0497
 1119YOPC   C1A15579   1.231  18.432   6.572  0.2027  0.0586 -0.2192
 1119YOPC   D2A15580   1.570  18.628   6.797  0.0771  0.1793 -0.0773
 1119YOPC   C3A15581   1.608  18.477   7.266  0.4359 -0.3969  0.0450
 1119YOPC   C4A15582   1.948  18.160   7.439 -0.0593  0.3306  0.3260
 1119YOPC   C1B15583   0.559  18.214   6.391 -0.1451 -0.1706 -0.3493
 1119YOPC   C2B15584   0.467  17.889   6.647  0.2718 -0.0180  0.1481
 1119YOPC   D3B15585   0.265  17.698   7.006 -0.2261  0.0701 -0.0040
 1119YOPC   C4B15586   0.057  17.560   7.371 -0.0423 -0.2178  0.4449
 1120YOPC   NC315587   4.495   8.083   5.195  0.0707  0.2319  0.5279
 1120YOPC   PO415588   4.554   7.590   5.212  0.0994 -0.0629  0.1003
 1120YOPC   GL115589   4.540   7.500   5.606 -0.1850 -0.0450  0.0343
 1120YOPC   GL215590   4.624   7.246   5.689  0.1473  0.0417 -0.2969
 1120YOPC   C1A15591   4.481   7.635   6.122  0.1347  0.2231  0.1711
 1120YOPC   D2A15592   4.351   7.383   6.492  0.0767 -0.2654 -0.1047
 1120YOPC   C3A15593   4.624   7.241   6.643 -0.0826  0.1476 -0.1991
 1120YOPC   C4A15594   4.816   6.870   6.585  0.0603 -0.1525 -0.5006
 1120YOPC   C1B15595   4.715   7.188   6.076  0.0274  0.0368 -0.2963
 1120YOPC   C2B15596   5.196   7.130   6.222  0.0663  0.4212  0.1858
 1120YOPC   D3B15597   5.358   7.193   6.510  0.0994 -0.1059 -0.1120
 1120YOPC   C4B15598   5.494   7.593   6.910 -0.1257  0.0609  0.0624
 1121YOPC   NC315599   1.369  17.810   5.564  0.5060 -0.0401  0.2405
 1121YOPC   PO415600   1.047  17.484   5.676 -0.0934 -0.1754 -0.1564
 1121YOPC   GL115601   1.006  17.577   6.136  0.0498 -0.1116  0.1290
 1121YOPC   GL215602   0.674  17.679   6.113 -0.1039 -0.2834 -0.2746
 1121YOPC   C1A15603   1.293  17.493   6.454 -0.3240 -0.1464  0.0972
 1121YOPC   D2A15604   1.535  17.326   6.770  0.3608  0.0816  0.2225
 1121YOPC   C3A15605   1.908  17.117   6.686  0.2507  0.0368 -0.4047
 1121YOPC   C4A15606   2.105  16.794   6.499  0.0613  0.2961  0.0085
 1121YOPC   C1B15607   0.468  17.461   6.429  0.1769 -0.3926  0.4324
 1121YOPC   C2B15608   0.029  17.554   6.582  0.0379 -0.1416 -0.0360
 1121YOPC   D3B15609  -0.163  17.328   6.950 -0.0216  0.0658  0.0373
 1121YOPC   C4B15610  -0.417  17.323   7.341  0.1561  0.0098  0.1223
 1122YOPC   NC315611  15.800  15.081   5.025  0.1879  0.1902  0.1682
 1122YOPC   PO415612  15.637  14.887   5.303 -0.2412  0.2070  0.1492
 1122YOPC   GL115613  15.778  14.894   5.701 -0.0856 -0.0126  0.0067
 1122YOPC   GL215614  16.068  14.657   5.890  0.4797  0.0310  0.1405
 1122YOPC   C1A15615  15.645  14.972   6.179 -0.2270 -0.0855  0.0782
 1122YOPC   D2A15616  15.590  14.991   6.665  0.2730  0.0832  0.0203
 1122YOPC   C3A15617  15.811  14.745   7.028  0.2906  0.0366  0.2594
 1122YOPC   C4A15618  15.950  14.387   7.256  0.2543 -0.2547 -0.3012
 1122YOPC   C1B15619  16.271  14.888   6.166 -0.0240 -0.1959 -0.4479
 1122YOPC   C2B15620  16.030  14.840   6.488  0.0458 -0.1206 -0.0055
 1122YOPC   D3B15621  15.766  14.539   6.414 -0.0107 -0.1885  0.0096
 1122YOPC   C4B15622  15.378  14.550   6.414 -0.4545 -0.1806 -0.0528
 1123YOPC   NC315623  18.401   3.615   5.444 -0.3177 -0.0412  0.1724
 1123YOPC   PO415624  18.818   3.674   5.496 -0.1001 -0.1567  0.1448
 1123YOPC   GL115625  18.884   3.621   5.824  0.3362 -0.0955 -0.2051
 1123YOPC   GL215626  19.204   3.608   5.920  0.0294 -0.1906 -0.0501
 1123YOPC   C1A15627  18.932   3.849   6.280 -0.3460  0.0581  0.1558
 1123YOPC   D2A15628  19.096   3.636   6.662 -0.1424 -0.0717 -0.0347
 1123YOPC   C3A15629  18.904   3.630   7.044 -0.2676  0.3753  0.0722
 1123YOPC   C4A15630  18.897   3.525   7.462 -0.4115 -0.1083  0.0661
 1123YOPC   C1B15631  19.340   3.421   6.313 -0.2532  0.0283 -0.4383
 1123YOPC   C2B15632  19.613   3.492   6.623  0.4944 -0.1423  0.2094
 1123YOPC   D3B15633  19.888   3.799   6.600  0.4053  0.1085 -0.0856
 1123YOPC   C4B15634  19.915   4.183   6.743  0.0338 -0.2574 -0.1074
 1124YOPC   NC315635   7.547  11.687   5.215  0.0010 -0.1265 -0.0164
 1124YOPC   PO415636   7.794  11.992   5.286 -0.4852  0.2042 -0.0757
 1124YOPC   GL115637   7.838  11.766   5.641 -0.1046  0.1588 -0.1049
 1124YOPC   GL215638   8.199  11.565   5.677  0.0310  0.1423 -0.3155
 1124YOPC   C1A15639   7.758  11.656   6.069  0.0978  0.2105 -0.0561
 1124YOPC   D2A15640   7.475  11.701   6.284 -0.0436  0.1691  0.0501
 1124YOPC   C3A15641   7.589  11.858   6.584 -0.2732  0.0992  0.0938
 1124YOPC   C4A15642   7.780  12.184   6.746  0.1283  0.0094  0.1213
 1124YOPC   C1B15643   8.297  11.627   6.021 -0.1349 -0.1310  0.2260
 1124YOPC   C2B15644   8.577  11.631   6.324  0.3774  0.0193  0.0666
 1124YOPC   D3B15645   8.560  11.601   6.736 -0.0489 -0.0006  0.1882
 1124YOPC   C4B15646   8.359  11.360   7.074 -0.0475 -0.2088  0.2520
 1125YOPC   NC315647  10.345  14.231   5.154 -0.1624 -0.0976  0.0637
 1125YOPC   PO415648  10.263  14.404   5.591  0.1107 -0.3026  0.3982
 1125YOPC   GL115649  10.255  14.666   5.905  0.1110 -0.3935  0.0011
 1125YOPC   GL215650  10.476  14.537   6.216  0.1408  0.2361  0.0934
 1125YOPC   C1A15651  10.097  14.849   6.237 -0.1114  0.1831  0.1293
 1125YOPC   D2A15652   9.932  15.072   6.626 -0.1519  0.0890 -0.1670
 1125YOPC   C3A15653   9.985  15.491   6.710 -0.0746  0.2134  0.1611
 1125YOPC   C4A15654   9.652  15.634   7.051  0.0936 -0.0438 -0.0050
 1125YOPC   C1B15655  10.601  14.534   6.622  0.1048  0.0904 -0.3420
 1125YOPC   C2B15656  11.024  14.659   6.734 -0.1342  0.4183 -0.3176
 1125YOPC   D3B15657  11.057  14.692   7.162  0.3279  0.0436  0.0810
 1125YOPC   C4B15658  10.913  14.498   7.494  0.1816  0.1555 -0.2003
 1126YOPC   NC315659   3.785   3.839   4.963 -0.3768 -0.0671  0.0131
 1126YOPC   PO415660   4.310   3.785   5.112  0.0461  0.0624 -0.0874
 1126YOPC   GL115661   4.392   3.829   5.491 -0.1367 -0.1508  0.0116
 1126YOPC   GL215662   4.011   3.720   5.564 -0.1094 -0.1307 -0.0409
 1126YOPC   C1A15663   4.286   3.968   5.909 -0.2724 -0.0361  0.0676
 1126YOPC   D2A15664   4.208   4.094   6.287  0.1870 -0.2897  0.2938
 1126YOPC   C3A15665   4.058   4.202   6.713 -0.0426 -0.2030 -0.0156
 1126YOPC   C4A15666   4.086   4.125   7.191  0.0868  0.3589  0.3868
 1126YOPC   C1B15667   3.708   3.763   5.812 -0.1333 -0.1719 -0.0680
 1126YOPC   C2B15668   3.475   3.665   6.215 -0.0879 -0.1268  0.1385
 1126YOPC   D3B15669   3.738   3.798   6.558  0.3557  0.1819 -0.0770
 1126YOPC   C4B15670   3.666   4.100   6.961 -0.0857  0.3510  0.0542
 1127YOPC   NC315671  15.664   2.640   5.287 -0.0448 -0.0461  0.0023
 1127YOPC   PO415672  15.991   2.961   5.476  0.2021  0.0713 -0.0604
 1127YOPC   GL115673  15.992   3.099   5.921 -0.1214  0.1563 -0.2545
 1127YOPC   GL215674  16.332   2.995   6.027 -0.1105  0.0058 -0.0793
 1127YOPC   C1A15675  15.835   2.797   6.248  0.0530  0.0540  0.1661
 1127YOPC   D2A15676  15.810   2.449   6.352 -0.0756 -0.0937  0.1072
 1127YOPC   C3A15677  15.537   2.164   6.277 -0.1462 -0.2680  0.1818
 1127YOPC   C4A15678  15.401   2.041   5.865 -0.1658  0.1131  0.0063
 1127YOPC   C1B15679  16.318   2.865   6.516 -0.2655  0.1603 -0.3558
 1127YOPC   C2B15680  15.982   2.897   6.856  0.2328 -0.1191  0.0916
 1127YOPC   D3B15681  16.017   3.185   7.236  0.2027  0.0648  0.2203
 1127YOPC   C4B15682  15.933   3.460   7.553  0.0774  0.0411 -0.1192
 1128YOPC   NC315683  16.445  18.216   5.303 -0.0482  0.1751  0.2706
 1128YOPC   PO415684  16.533  18.626   5.498 -0.0022 -0.4586  0.2523
 1128YOPC   GL115685  16.680  18.675   5.922  0.1859  0.0763  0.0845
 1128YOPC   GL215686  16.695  18.936   6.154  0.0160  0.3970 -0.1643
 1128YOPC   C1A15687  16.782  18.444   6.233  0.0077 -0.3778 -0.2737
 1128YOPC   D2A15688  17.214  18.343   6.347 -0.1669  0.2247  0.1908
 1128YOPC   C3A15689  17.680  18.473   6.353 -0.1735  0.0113  0.2246
 1128YOPC   C4A15690  18.053  18.636   6.611  0.5158  0.1958  0.2360
 1128YOPC   C1B15691  16.607  18.808   6.540 -0.0735 -0.0057 -0.2276
 1128YOPC   C2B15692  16.773  18.599   6.832  0.2968  0.4322  0.1603
 1128YOPC   D3B15693  17.204  18.554   6.801 -0.0054 -0.2231  0.2082
 1128YOPC   C4B15694  17.555  18.656   6.855 -0.3257  0.1974 -0.1687
 1129YOPC   NC315695   1.121  15.422   5.739 -0.0250 -0.2458 -0.0416
 1129YOPC   PO415696   0.771  15.393   5.814 -0.1784  0.1238  0.1623
 1129YOPC   GL115697   0.932  15.211   6.150  0.1037  0.2863  0.0390
 1129YOPC   GL215698   1.161  15.349   6.339 -0.3755  0.3820 -0.0508
 1129YOPC   C1A15699   0.945  14.808   6.400 -0.0029  0.1450  0.2644
 1129YOPC   D2A15700   0.570  14.620   6.488 -0.4010  0.0371 -0.0640
 1129YOPC   C3A15701   0.331  14.536   6.777  0.0574 -0.0309  0.4199
 1129YOPC   C4A15702   0.021  14.650   7.135  0.0449 -0.2277 -0.2680
 1129YOPC   C1B15703   0.974  15.518   6.707  0.0139  0.2632 -0.0298
 1129YOPC   C2B15704   1.027  15.707   7.116 -0.0112  0.0719 -0.2043
 1129YOPC   D3B15705   1.382  16.016   7.075 -0.1101 -0.1414 -0.0178
 1129YOPC   C4B15706   1.688  16.233   7.319  0.0360  0.2889 -0.1614
 1130YOPC   NC315707  12.378   9.507   5.402 -0.0654 -0.0333  0.3784
 1130YOPC   PO415708  12.909   9.508   5.372  0.0461  0.0769 -0.0564
 1130YOPC   GL115709  12.927   9.516   5.844  0.1948  0.1077 -0.0306
 1130YOPC   GL215710  12.522   9.340   5.969 -0.3249  0.2901  0.1773
 1130YOPC   C1A15711  12.900   9.504   6.280  0.1302  0.2259 -0.3526
 1130YOPC   D2A15712  12.815   9.280   6.568  0.1804  0.0437 -0.1531
 1130YOPC   C3A15713  13.132   9.261   6.882  0.2924 -0.1452 -0.0224
 1130YOPC   C4A15714  13.232   9.358   7.401 -0.0279 -0.4782  0.1357
 1130YOPC   C1B15715  12.221   9.722   5.996 -0.0591 -0.1585 -0.1825
 1130YOPC   C2B15716  11.984   9.861   6.377  0.0640 -0.0310 -0.0293
 1130YOPC   D3B15717  12.032   9.761   6.880 -0.1176  0.2147  0.2996
 1130YOPC   C4B15718  12.231   9.677   7.298  0.4358  0.0987  0.2083
 1131YOPC   NC315719  11.421   9.378   5.446 -0.2338 -0.1064 -0.2070
 1131YOPC   PO415720  11.511   9.803   5.248  0.0129 -0.0891  0.2298
 1131YOPC   GL115721  11.768  10.095   5.531  0.0915  0.1237 -0.1822
 1131YOPC   GL215722  11.747  10.418   5.643 -0.2310  0.0089  0.0766
 1131YOPC   C1A15723  11.731  10.002   5.937 -0.4751  0.1517  0.1355
 1131YOPC   D2A15724  11.516   9.602   5.950 -0.0287  0.0458 -0.1363
 1131YOPC   C3A15725  11.245   9.543   6.216 -0.1948  0.1988  0.0390
 1131YOPC   C4A15726  10.857   9.610   6.310 -0.3563 -0.1720  0.1582
 1131YOPC   C1B15727  11.442  10.393   5.880  0.3097  0.0526 -0.0182
 1131YOPC   C2B15728  11.548  10.302   6.292  0.2431  0.4417  0.1736
 1131YOPC   D3B15729  11.375  10.335   6.675 -0.0967  0.1369  0.1179
 1131YOPC   C4B15730  11.609  10.054   6.928  0.0481  0.3438 -0.1453
 1132YOPC   NC315731   4.841   9.646   4.902  0.2530  0.0158 -0.2113
 1132YOPC   PO415732   4.606   9.236   5.122  0.0924 -0.3398 -0.2728
 1132YOPC   GL115733   4.616   9.185   5.527 -0.0719 -0.0100  0.0027
 1132YOPC   GL215734   4.663   8.793   5.584 -0.1466 -0.0878 -0.0566
 1132YOPC   C1A15735   4.820   9.236   5.953  0.0757 -0.5414  0.2966
 1132YOPC   D2A15736   4.955   9.381   6.350  0.0631  0.0448 -0.1628
 1132YOPC   C3A15737   5.190   9.347   6.647  0.0006 -0.0868 -0.0477
 1132YOPC   C4A15738   5.321   9.005   6.979 -0.1473 -0.2505 -0.5753
 1132YOPC   C1B15739   4.379   9.077   5.891  0.4787 -0.1368  0.1521
 1132YOPC   C2B15740   4.208   9.128   6.321 -0.1928  0.3132 -0.1006
 1132YOPC   D3B15741   4.436   9.411   6.650  0.0355  0.3564  0.0517
 1132YOPC   C4B15742   4.641   9.540   7.026  0.0402 -0.1962  0.2620
 1133YOPC   NC315743  11.736   4.775   4.954  0.2185  0.0476  0.0642
 1133YOPC   PO415744  11.219   4.762   5.096 -0.1240 -0.0277 -0.3069
 1133YOPC   GL115745  10.985   5.085   5.408 -0.2894 -0.0276 -0.0720
 1133YOPC   GL215746  11.015   5.475   5.435  0.0225 -0.1345  0.0026
 1133YOPC   C1A15747  10.853   5.213   5.805 -0.0022  0.2628 -0.0643
 1133YOPC   D2A15748  10.656   5.062   6.195 -0.0448  0.4731 -0.0154
 1133YOPC   C3A15749  10.833   5.152   6.624 -0.0806  0.1418 -0.2327
 1133YOPC   C4A15750  11.136   5.070   6.955 -0.0927 -0.1889  0.0291
 1133YOPC   C1B15751  10.995   5.666   5.909 -0.0855 -0.2266 -0.1886
 1133YOPC   C2B15752  11.112   5.410   6.324  0.3709  0.0704  0.0749
 1133YOPC   D3B15753  11.405   5.189   6.550 -0.1955  0.0534  0.1584
 1133YOPC   C4B15754  11.593   4.754   6.588 -0.2187 -0.3949  0.2674
 1134YOPC   NC315755   0.275   1.138   5.487  0.0843  0.3150  0.0724
 1134YOPC   PO415756   0.566   1.097   5.824 -0.2250 -0.3275  0.2808
 1134YOPC   GL115757   0.524   1.143   6.148  0.1853  0.1400 -0.2087
 1134YOPC   GL215758   0.339   1.410   6.194 -0.2082 -0.0890  0.1940
 1134YOPC   C1A15759   0.517   0.880   6.543  0.5969  0.1918  0.0458
 1134YOPC   D2A15760   0.227   0.703   6.791 -0.3809 -0.1686 -0.0774
 1134YOPC   C3A15761   0.186   0.265   6.787  0.0765  0.0682  0.3151
 1134YOPC   C4A15762   0.006  -0.014   6.521  0.2597 -0.2100  0.1585
 1134YOPC   C1B15763   0.651   1.324   6.589  0.0855 -0.1147 -0.3545
 1134YOPC   C2B15764   0.944   1.338   6.875 -0.2927  0.3581 -0.1580
 1134YOPC   D3B15765   1.093   1.737   7.114 -0.1836 -0.3285  0.2870
 1134YOPC   C4B15766   0.786   1.918   7.400  0.1923 -0.1963 -0.1132
 1135YOPC   NC315767   9.944  10.284   5.093 -0.2104 -0.0945  0.1427
 1135YOPC   PO415768  10.420  10.284   5.135 -0.2087 -0.1203 -0.0704
 1135YOPC   GL115769  10.385  10.144   5.488 -0.1522 -0.1019  0.0104
 1135YOPC   GL215770  10.699  10.129   5.554 -0.1757  0.0416  0.1756
 1135YOPC   C1A15771  10.071   9.869   5.728 -0.0636  0.0989 -0.3538
 1135YOPC   D2A15772   9.919   9.844   6.111  0.1615  0.2829  0.1901
 1135YOPC   C3A15773  10.168   9.923   6.535 -0.0680 -0.4114  0.0791
 1135YOPC   C4A15774  10.270   9.883   6.915 -0.0646  0.3268  0.0132
 1135YOPC   C1B15775  10.724  10.399   5.982  0.0121 -0.3041 -0.3692
 1135YOPC   C2B15776  10.511  10.320   6.422 -0.1767  0.2543  0.1108
 1135YOPC   D3B15777  10.686  10.052   6.541  0.1222  0.1600 -0.0734
 1135YOPC   C4B15778  10.785   9.880   6.899 -0.0165  0.1231  0.2333
 1136YOPC   NC315779  17.422   8.704   5.536  0.1935 -0.1243  0.0735
 1136YOPC   PO415780  17.071   8.453   5.578 -0.0869  0.1388 -0.1350
 1136YOPC   GL115781  16.966   8.552   6.009 -0.2066 -0.0315 -0.0521
 1136YOPC   GL215782  17.111   8.788   6.014 -0.4482 -0.2381  0.2643
 1136YOPC   C1A15783  16.787   8.473   6.266  0.1269  0.1936 -0.2038
 1136YOPC   D2A15784  17.029   8.279   6.646 -0.5341  0.3147 -0.0722
 1136YOPC   C3A15785  16.838   8.386   6.994  0.1591 -0.2329 -0.0114
 1136YOPC   C4A15786  16.577   8.406   7.390 -0.2923  0.1678 -0.0254
 1136YOPC   C1B15787  16.887   8.929   6.445  0.1073 -0.2850 -0.0705
 1136YOPC   C2B15788  16.629   8.750   6.650  0.1985  0.1325  0.2017
 1136YOPC   D3B15789  16.523   8.957   7.108 -0.0046  0.0207  0.3236
 1136YOPC   C4B15790  16.342   8.872   7.478 -0.5167 -0.1686  0.2502
 1137YOPC   NC315791   5.764   9.525   4.647  0.1419 -0.1438 -0.0352
 1137YOPC   PO415792   5.799   9.212   5.028  0.0142 -0.0019 -0.0253
 1137YOPC   GL115793   5.949   8.982   5.322 -0.0850  0.1471 -0.3343
 1137YOPC   GL215794   6.013   9.146   5.624  0.2528 -0.3941  0.1688
 1137YOPC   C1A15795   5.876   8.634   5.504 -0.1765 -0.1442 -0.0786
 1137YOPC   D2A15796   5.951   8.248   5.621 -0.3184  0.2516  0.1959
 1137YOPC   C3A15797   6.216   7.816   5.726 -0.3733 -0.5434 -0.0690
 1137YOPC   C4A15798   6.557   7.902   5.996 -0.2493  0.2072 -0.1051
 1137YOPC   C1B15799   5.692   8.949   5.976 -0.0166 -0.1255  0.0866
 1137YOPC   C2B15800   5.584   8.999   6.406 -0.0424 -0.0043  0.1335
 1137YOPC   D3B15801   5.668   9.319   6.570  0.2694 -0.1214  0.0619
 1137YOPC   C4B15802   5.552   9.691   6.763 -0.0669  0.0863 -0.1638
 1138YOPC   NC315803   8.371   0.757   5.369  0.1694 -0.1197  0.0367
 1138YOPC   PO415804   8.002   0.889   5.321 -0.1233  0.0665 -0.4055
 1138YOPC   GL115805   7.994   0.963   5.693  0.0164 -0.0696  0.1032
 1138YOPC   GL215806   8.019   1.218   5.936 -0.1251 -0.0535 -0.0756
 1138YOPC   C1A15807   8.438   0.862   6.014  0.0416  0.0785 -0.0225
 1138YOPC   D2A15808   8.746   1.029   6.342 -0.1527  0.3313 -0.0366
 1138YOPC   C3A15809   8.676   0.866   6.773 -0.2323 -0.2345  0.4647
 1138YOPC   C4A15810   8.660   0.509   7.041  0.0165 -0.1974  0.0383
 1138YOPC   C1B15811   7.567   1.268   5.915  0.0711  0.2908 -0.1292
 1138YOPC   C2B15812   7.384   1.566   6.192 -0.1272  0.0846  0.1353
 1138YOPC   D3B15813   7.508   1.626   6.582 -0.1948 -0.1294  0.4062
 1138YOPC   C4B15814   7.382   1.839   6.813  0.6261  0.0362  0.1615
 1139YOPC   NC315815   8.619   9.416   4.730  0.0798  0.0365 -0.1024
 1139YOPC   PO415816   8.267   9.446   4.974 -0.2215 -0.1224 -0.0342
 1139YOPC   GL115817   8.468   9.324   5.370  0.1576 -0.0070 -0.0449
 1139YOPC   GL215818   8.342   9.243   5.704  0.0283 -0.0732 -0.2649
 1139YOPC   C1A15819   8.805   8.976   5.423 -0.2171 -0.0223  0.0065
 1139YOPC   D2A15820   9.160   8.930   5.693  0.1604  0.0943 -0.3622
 1139YOPC   C3A15821   9.168   8.833   6.219 -0.0034 -0.0815  0.0493
 1139YOPC   C4A15822   9.018   8.918   6.515  0.1888 -0.1171  0.0533
 1139YOPC   C1B15823   8.203   9.016   6.044  0.0474  0.0237  0.2158
 1139YOPC   C2B15824   7.967   9.194   6.452 -0.2618  0.1496  0.0570
 1139YOPC   D3B15825   8.368   9.184   6.695  0.1438 -0.0359  0.4365
 1139YOPC   C4B15826   8.823   9.409   6.577  0.0688 -0.0499 -0.1593
 1140YOPC   NC315827   6.682  17.547   5.448  0.2611  0.2035 -0.4345
 1140YOPC   PO415828   7.191  17.396   5.474 -0.2637  0.1659  0.2076
 1140YOPC   GL115829   7.476  17.249   5.790  0.1756  0.1173  0.2411
 1140YOPC   GL215830   7.225  17.001   5.947 -0.0269 -0.0001  0.3186
 1140YOPC   C1A15831   7.913  17.337   5.878 -0.0355  0.1945 -0.1819
 1140YOPC   D2A15832   8.036  17.228   6.211  0.0278 -0.1229 -0.1941
 1140YOPC   C3A15833   8.197  17.436   6.361 -0.0608  0.2523  0.1935
 1140YOPC   C4A15834   8.138  17.782   6.561  0.0166  0.2363 -0.1386
 1140YOPC   C1B15835   7.147  17.272   6.191 -0.3389  0.0781 -0.0087
 1140YOPC   C2B15836   6.760  17.438   6.318  0.1909  0.3653 -0.2882
 1140YOPC   D3B15837   6.528  17.388   6.605 -0.1823 -0.0460 -0.3882
 1140YOPC   C4B15838   6.640  17.432   7.026  0.0936 -0.0547  0.1083
 1141YOPC   NC315839   1.771   0.203   5.562  0.1718 -0.1286  0.0189
 1141YOPC   PO415840   2.200   0.323   5.527  0.0490 -0.1284  0.0729
 1141YOPC   GL115841   2.244   0.085   5.911 -0.0886  0.0851 -0.1109
 1141YOPC   GL215842   2.046   0.066   6.083 -0.1855 -0.3090  0.4042
 1141YOPC   C1A15843   2.356  -0.408   5.973 -0.0172 -0.0426 -0.1288
 1141YOPC   D2A15844   2.164  -0.771   6.062 -0.0825  0.0196  0.1353
 1141YOPC   C3A15845   1.914  -0.944   6.461 -0.0622 -0.2963 -0.4966
 1141YOPC   C4A15846   2.042  -1.145   6.862  0.0461  0.2160 -0.0338
 1141YOPC   C1B15847   2.193   0.022   6.435 -0.0249  0.0932 -0.0850
 1141YOPC   C2B15848   2.375  -0.359   6.501  0.0070  0.0648  0.4306
 1141YOPC   D3B15849   2.240  -0.699   6.813 -0.1451  0.2029 -0.3715
 1141YOPC   C4B15850   2.408  -0.751   7.257  0.2681  0.0272 -0.0137
 1142YOPC   NC315851  14.378  12.510   5.834  0.1885  0.0235  0.1102
 1142YOPC   PO415852  13.973  12.768   5.837 -0.2339 -0.1707 -0.1669
 1142YOPC   GL115853  14.087  12.762   6.167 -0.0246 -0.0154  0.0925
 1142YOPC   GL215854  13.731  12.962   6.273 -0.1005 -0.1507 -0.1119
 1142YOPC   C1A15855  14.108  12.673   6.624  0.1444  0.1820 -0.0457
 1142YOPC   D2A15856  14.169  12.407   7.021 -0.4120  0.0885 -0.0135
 1142YOPC   C3A15857  14.469  12.270   7.329 -0.1106  0.1719  0.1607
 1142YOPC   C4A15858  14.722  12.057   7.534 -0.1343  0.0390  0.1885
 1142YOPC   C1B15859  13.701  13.058   6.690 -0.1452  0.0218  0.3332
 1142YOPC   C2B15860  14.066  12.994   6.997  0.4523  0.0745  0.0240
 1142YOPC   D3B15861  13.948  13.244   7.413  0.1322  0.1293  0.0422
 1142YOPC   C4B15862  13.860  13.560   7.496  0.1552  0.0191 -0.0173
 1143ERGO   ROH15863   2.989   4.079   5.641  0.2812 -0.2355 -0.2109
 1143ERGO    R115864   3.200   4.018   5.819  0.1161 -0.1030  0.0357
 1143ERGO    R215865   3.416   4.185   5.856  0.1295 -0.1222  0.0378
 1143ERGO    R315866   3.345   4.167   6.118 -0.0959  0.1791  0.0031
 1143ERGO    R415867   3.599   4.315   6.119  0.2027 -0.3065  0.0793
 1143ERGO    R515868   3.553   4.134   6.233 -0.2303 -0.1540  0.1671
 1143ERGO    C115869   3.639   4.373   6.518  0.0338 -0.1310  0.0709
 1143ERGO    C215870   3.656   4.624   6.776 -0.3475 -0.1926 -0.1611
 1144ERGO   ROH15871   7.980  12.254   5.796  0.1396 -0.0079 -0.0041
 1144ERGO    R115872   8.058  12.059   5.986  0.0646  0.0580  0.0952
 1144ERGO    R215873   8.208  12.120   6.209 -0.0394  0.1388  0.1419
 1144ERGO    R315874   8.003  11.998   6.341 -0.0915  0.1709  0.0919
 1144ERGO    R415875   8.229  11.986   6.527 -0.0814 -0.0420  0.0705
 1144ERGO    R515876   8.108  11.818   6.459 -0.1717  0.0536 -0.0110
 1144ERGO    C115877   8.050  11.794   6.836 -0.1550 -0.1170 -0.0182
 1144ERGO    C215878   8.157  11.783   7.194  0.2475  0.0010  0.2384
 1145ERGO   ROH15879  12.623  11.743   6.078  0.1973  0.0571 -0.1039
 1145ERGO    R115880  12.460  11.692   6.304  0.0230  0.1410 -0.2079
 1145ERGO    R215881  12.534  11.518   6.505 -0.3409 -0.1575 -0.3150
 1145ERGO    R315882  12.487  11.733   6.665 -0.0393 -0.2003 -0.1624
 1145ERGO    R415883  12.369  11.508   6.809 -0.3385 -0.1380 -0.3139
 1145ERGO    R515884  12.270  11.694   6.756 -0.0883  0.0353 -0.1791
 1145ERGO    C115885  12.229  11.704   7.135 -0.0539 -0.1671 -0.1700
 1145ERGO    C215886  11.987  11.964   7.394 -0.1499  0.0744  0.5283
 1146ERGO   ROH15887   8.820   9.633   5.668 -0.2279  0.2656  0.1322
 1146ERGO    R115888   9.029   9.465   5.759 -0.3043  0.1099  0.0276
 1146ERGO    R215889   9.252   9.563   5.888 -0.1054 -0.0403 -0.1851
 1146ERGO    R315890   9.182   9.383   6.080 -0.1247  0.0974 -0.0620
 1146ERGO    R415891   9.466   9.437   6.129 -0.0210 -0.2147 -0.3496
 1146ERGO    R515892   9.374   9.241   6.101 -0.2685 -0.1154 -0.2015
 1146ERGO    C115893   9.524   9.195   6.448  0.0099 -0.1869 -0.3298
 1146ERGO    C215894   9.628   9.287   6.824  0.0346 -0.1137  0.0175
 1147ERGO   ROH15895  16.514  16.063   6.147 -0.1914  0.0730 -0.0671
 1147ERGO    R115896  16.618  16.090   6.409 -0.1561  0.1072 -0.0847
 1147ERGO    R215897  16.463  16.171   6.623 -0.1405  0.0832 -0.0641
 1147ERGO    R315898  16.555  15.941   6.735 -0.0731  0.1077 -0.0685
 1147ERGO    R415899  16.515  16.124   6.961 -0.1585  0.0771 -0.0619
 1147ERGO    R515900  16.698  16.015   6.913 -0.1169  0.1436 -0.0492
 1147ERGO    C115901  16.631  15.880   7.263 -0.1057  0.0964 -0.0647
 1147ERGO    C215902  16.672  15.631   7.493  0.1002 -0.0388 -0.0574
 1148ERGO   ROH15903  11.458  10.882   5.855  0.0819 -0.0622 -0.1169
 1148ERGO    R115904  11.308  10.862   6.095  0.0489 -0.0099 -0.1314
 1148ERGO    R215905  11.050  10.765   6.101  0.0275  0.0307 -0.1515
 1148ERGO    R315906  11.152  10.595   6.287 -0.0159  0.0356 -0.1227
 1148ERGO    R415907  10.896  10.682   6.399 -0.0355  0.0418 -0.1818
 1148ERGO    R515908  11.090  10.692   6.497 -0.0586  0.0415 -0.1403
 1148ERGO    C115909  10.903  10.474   6.748 -0.1129  0.0528 -0.1724
 1148ERGO    C215910  10.703  10.322   6.996 -0.2299  0.2766  0.1476
 1149ERGO   ROH15911   1.284   0.513   6.358  0.0188 -0.1038  0.1053
 1149ERGO    R115912   1.339   0.369   6.596  0.1093  0.0829  0.2000
 1149ERGO    R215913   1.294   0.475   6.849 -0.2038  0.1269  0.1323
 1149ERGO    R315914   1.148   0.248   6.882  0.1289 -0.0926  0.1394
 1149ERGO    R415915   1.213   0.334   7.153 -0.4416  0.3199  0.1606
 1149ERGO    R515916   1.250   0.138   7.068  0.0330  0.2811  0.4241
 1149ERGO    C115917   1.029   0.040   7.362 -0.2677  0.2262  0.1836
 1149ERGO    C215918   0.784   0.036   7.589 -0.4758  0.0645 -0.0481
 1150ERGO   ROH15919   5.826  12.904   6.194  0.0083  0.0946 -0.0132
 1150ERGO    R115920   5.937  12.804   6.434 -0.0286  0.0371 -0.0201
 1150ERGO    R215921   5.987  12.965   6.654 -0.1039 -0.0243  0.0415
 1150ERGO    R315922   5.836  12.780   6.783 -0.1017 -0.0905 -0.0492
 1150ERGO    R415923   5.923  12.964   6.993 -0.1155 -0.1824  0.0397
 1150ERGO    R515924   5.947  12.747   6.992 -0.1071 -0.1824 -0.0595
 1150ERGO    C115925   5.743  12.790   7.312 -0.1203 -0.3364 -0.0465
 1150ERGO    C215926   5.521  12.771   7.612 -0.3405  0.0116 -0.2118
 1151ERGO   ROH15927   6.115  18.017   5.933 -0.2313 -0.0652 -0.0658
 1151ERGO    R115928   6.046  18.130   6.183 -0.1794 -0.0130 -0.0747
 1151ERGO    R215929   6.128  18.382   6.260 -0.0865 -0.0323 -0.1064
 1151ERGO    R315930   5.862  18.422   6.300 -0.0712  0.0649 -0.0984
 1151ERGO    R415931   5.992  18.623   6.467  0.0007  0.1539 -0.2632
 1151ERGO    R515932   5.844  18.478   6.532 -0.0275  0.2391 -0.1367
 1151ERGO    C115933   5.663  18.801   6.625  0.0659  0.3537 -0.3469
 1151ERGO    C215934   5.603  18.830   7.033  0.0592 -0.5080  0.2310
 1152ERGO   ROH15935  19.014   1.448   6.211  0.2942  0.1410 -0.1781
 1152ERGO    R115936  18.964   1.553   6.469  0.2413  0.0638 -0.1570
 1152ERGO    R215937  19.087   1.782   6.563  0.1933  0.0560 -0.0778
 1152ERGO    R315938  18.832   1.862   6.608  0.1747  0.0066 -0.0911
 1152ERGO    R415939  18.988   1.990   6.820  0.1575  0.1323 -0.1526
 1152ERGO    R515940  18.811   1.866   6.846  0.1917  0.0955 -0.0902
 1152ERGO    C115941  18.690   2.188   7.011  0.1195  0.1302 -0.2087
 1152ERGO    C215942  18.739   2.444   7.310 -0.0394 -0.2527 -0.3445
 1153ERGO   ROH15943  13.058  16.068   5.889 -0.0320  0.1390 -0.0841
 1153ERGO    R115944  12.899  16.123   6.116 -0.0356  0.0857 -0.0729
 1153ERGO    R215945  12.954  16.019   6.366 -0.0854 -0.0388 -0.1102
 1153ERGO    R315946  12.947  16.280   6.441 -0.0163 -0.0684 -0.0019
 1153ERGO    R415947  12.857  16.132   6.678 -0.0229 -0.1381 -0.0549
 1153ERGO    R515948  12.753  16.296   6.581  0.0062 -0.0760  0.0259
 1153ERGO    C115949  12.795  16.443   6.931  0.0784 -0.2234  0.0791
 1153ERGO    C215950  12.884  16.636   7.231  0.0700 -0.0666 -0.1517
 1154ERGO   ROH15951   9.279  14.643   5.868  0.0972 -0.2344 -0.0830
 1154ERGO    R115952   9.102  14.609   6.086  0.0972 -0.0462 -0.0515
 1154ERGO    R215953   9.124  14.398   6.264 -0.0504 -0.0299 -0.0099
 1154ERGO    R315954   9.130  14.597   6.449  0.1372  0.0062 -0.0534
 1154ERGO    R415955   9.076  14.354   6.603 -0.0703  0.0896  0.0030
 1154ERGO    R515956   8.959  14.537   6.606  0.0937  0.1941 -0.0295
 1154ERGO    C115957   9.054  14.515   6.975  0.0941  0.1931 -0.0302
 1154ERGO    C215958   8.856  14.573   7.334 -0.0973 -0.1111  0.1422
 1155ERGO   ROH15959  14.328   5.228   5.732 -0.2213  0.2746 -0.0229
 1155ERGO    R115960  14.235   5.332   5.978 -0.0545  0.1973  0.0753
 1155ERGO    R215961  14.304   5.224   6.222  0.1207  0.1269 -0.0061
 1155ERGO    R315962  14.382   5.479   6.277  0.1479  0.1136  0.0187
 1155ERGO    R415963  14.379   5.344   6.537  0.1280  0.0856  0.0082
 1155ERGO    R515964  14.277   5.529   6.486  0.1482  0.1037  0.0231
 1155ERGO    C115965  14.497   5.653   6.772  0.1578  0.0492  0.0397
 1155ERGO    C215966  14.550   5.655   7.058 -0.1512  0.0310 -0.2236
 1156ERGO   ROH15967   7.903   9.254   5.506 -0.0881  0.0766  0.0089
 1156ERGO    R115968   7.701   9.243   5.704 -0.0159  0.1617  0.0890
 1156ERGO    R215969   7.643   9.012   5.844 -0.1838  0.1335 -0.0222
 1156ERGO    R315970   7.683   9.172   6.060  0.0695 -0.0306  0.0561
 1156ERGO    R415971   7.482   8.977   6.148 -0.1415  0.1618  0.0033
 1156ERGO    R515972   7.466   9.195   6.159  0.1223  0.1781  0.1276
 1156ERGO    C115973   7.426   9.107   6.528  0.1210  0.0243  0.0916
 1156ERGO    C215974   7.433   9.186   6.846 -0.1875 -0.1828  0.1300
 1157ERGO   ROH15975  19.122  18.857   6.137 -0.2696 -0.0307 -0.0521
 1157ERGO    R115976  18.983  18.784   6.373 -0.0838 -0.0530  0.0530
 1157ERGO    R215977  19.015  18.538   6.494  0.0045 -0.0720  0.0014
 1157ERGO    R315978  19.072  18.689   6.713  0.1895 -0.0965 -0.0290
 1157ERGO    R415979  18.985  18.430   6.821 -0.1175  0.0310  0.0242
 1157ERGO    R515980  18.904  18.626   6.873  0.1188  0.1368 -0.0122
 1157ERGO    C115981  19.021  18.509   7.217 -0.0146  0.0682  0.0090
 1157ERGO    C215982  18.976  18.452   7.633 -0.2439  0.1094 -0.1062
 1158ERGO   ROH15983  17.888   0.487   5.943  0.3779  0.2616  0.0161
 1158ERGO    R115984  18.014   0.529   6.193  0.3607  0.0551  0.0602
 1158ERGO    R215985  17.888   0.657   6.404  0.4320  0.0909  0.0733
 1158ERGO    R315986  17.955   0.431   6.539  0.1970 -0.0175  0.0145
 1158ERGO    R415987  17.856   0.614   6.745  0.5100  0.0991  0.0828
 1158ERGO    R515988  18.047   0.509   6.745  0.3855 -0.1526 -0.0098
 1158ERGO    C115989  17.899   0.375   7.070  0.3347  0.0022  0.0331
 1158ERGO    C215990  17.860   0.283   7.400 -0.2970  0.1829  0.0026
 1159ERGO   ROH15991   5.409   8.459   5.506 -0.2427  0.0063 -0.0413
 1159ERGO    R115992   5.362   8.390   5.776 -0.1994 -0.0122 -0.0392
 1159ERGO    R215993   5.567   8.355   5.959 -0.1620 -0.2136 -0.1230
 1159ERGO    R315994   5.427   8.539   6.102  0.0371 -0.1321 -0.0283
 1159ERGO    R415995   5.564   8.375   6.304  0.0191 -0.2677 -0.1167
 1159ERGO    R515996   5.351   8.418   6.295  0.0406 -0.1105 -0.0100
 1159ERGO    C115997   5.432   8.560   6.639  0.3115 -0.2226 -0.0242
 1159ERGO    C215998   5.683   8.566   6.826 -0.0399  0.2097 -0.1394
 1160ERGO   ROH15999  11.457  12.111   5.973 -0.0875 -0.1174  0.0785
 1160ERGO    R116000  11.321  11.949   6.162 -0.2425  0.1137  0.1698
 1160ERGO    R216001  11.453  11.814   6.363 -0.2889 -0.3362 -0.0883
 1160ERGO    R316002  11.276  11.945   6.523  0.2487  0.0346  0.2382
 1160ERGO    R416003  11.348  11.704   6.674 -0.4101 -0.4542 -0.1697
 1160ERGO    R516004  11.146  11.770   6.624 -0.2572  0.2920  0.0725
 1160ERGO    C116005  11.121  11.762   7.004  0.0239 -0.1747  0.0896
 1160ERGO    C216006  11.168  11.539   7.323  0.3069 -0.2834 -0.1768
 1161ERGO   ROH16007   8.179  13.135   5.792  0.0918 -0.2623 -0.0870
 1161ERGO    R116008   8.266  13.204   6.052  0.1693 -0.3545 -0.0882
 1161ERGO    R216009   8.531  13.192   6.128  0.2591  0.0519 -0.3117
 1161ERGO    R316010   8.489  13.451   6.199 -0.1602 -0.0834 -0.0318
 1161ERGO    R416011   8.714  13.363   6.366  0.4292  0.2725 -0.5934
 1161ERGO    R516012   8.528  13.454   6.436  0.3642 -0.1842 -0.1052
 1161ERGO    C116013   8.780  13.706   6.572  0.1347  0.2738 -0.4947
 1161ERGO    C216014   8.853  13.839   6.911 -0.0658  0.0229 -0.0964
 1162ERGO   ROH16015   6.581   2.601   5.287 -0.1182 -0.2205  0.1738
 1162ERGO    R116016   6.606   2.723   5.541 -0.0281 -0.1294  0.1218
 1162ERGO    R216017   6.392   2.837   5.673  0.0453  0.0294  0.1008
 1162ERGO    R316018   6.469   2.670   5.874 -0.0143  0.0743  0.1621
 1162ERGO    R416019   6.257   2.834   5.992  0.0223  0.1814  0.0935
 1162ERGO    R516020   6.457   2.804   6.071  0.0124  0.1495  0.1158
 1162ERGO    C116021   6.251   2.675   6.365 -0.0471  0.3121  0.1468
 1162ERGO    C216022   6.022   2.667   6.693  0.1504  0.3066  0.0754
 1163ERGO   ROH16023  15.213  14.028   6.182 -0.0170  0.0536  0.1769
 1163ERGO    R116024  15.136  13.989   6.452  0.0065 -0.3177  0.1343
 1163ERGO    R216025  15.209  13.765   6.597  0.5123 -0.2523 -0.0074
 1163ERGO    R316026  15.305  13.950   6.772  0.0313 -0.1323  0.1465
 1163ERGO    R416027  15.177  13.747   6.940  0.2977 -0.4724 -0.0359
 1163ERGO    R516028  15.138  13.962   6.943 -0.1262 -0.5364  0.0369
 1163ERGO    C116029  15.248  13.910   7.305 -0.2786 -0.4879  0.0919
 1163ERGO    C216030  15.313  13.801   7.723  0.2019  0.3497 -0.2279
 1164ERGO   ROH16031   3.785   2.687   5.822 -0.2010  0.2631 -0.0792
 1164ERGO    R116032   3.707   2.780   6.077 -0.1390  0.0956  0.0026
 1164ERGO    R216033   3.501   2.665   6.221 -0.1008 -0.0043 -0.0174
 1164ERGO    R316034   3.691   2.644   6.414 -0.0490 -0.1254 -0.0810
 1164ERGO    R416035   3.439   2.676   6.561  0.0464  0.2598  0.0033
 1164ERGO    R516036   3.619   2.796   6.585  0.2019  0.0569 -0.1347
 1164ERGO    C116037   3.581   2.662   6.940  0.1808  0.2998 -0.0444
 1164ERGO    C216038   3.565   2.618   7.289  0.1886 -0.0573  0.1176
 1165ERGO   ROH16039   9.345   8.106   6.813  0.0772 -0.3293 -0.1026
 1165ERGO    R116040   9.166   7.922   6.932  0.0229 -0.1977  0.0223
 1165ERGO    R216041   9.169   7.652   6.874 -0.1215 -0.2239  0.1291
 1165ERGO    R316042   9.192   7.627   7.143 -0.0573 -0.1263  0.1332
 1165ERGO    R416043   9.197   7.351   7.043 -0.0862 -0.1633  0.2319
 1165ERGO    R516044   9.064   7.431   7.196 -0.0482 -0.1055  0.2349
 1165ERGO    C116045   9.234   7.153   7.394 -0.0054 -0.0365  0.2957
 1165ERGO    C216046   9.460   6.935   7.684 -0.2695 -0.0960 -0.1005
 1166ERGO   ROH16047  18.265  10.061   5.942 -0.0162  0.0604  0.1552
 1166ERGO    R116048  18.232   9.954   6.202 -0.1745  0.1576  0.1764
 1166ERGO    R216049  17.986   9.940   6.327 -0.2964 -0.0483 -0.0802
 1166ERGO    R316050  18.051   9.677   6.353 -0.0309  0.0319  0.1212
 1166ERGO    R416051  17.808   9.711   6.515 -0.3637 -0.1879 -0.3094
 1166ERGO    R516052  17.998   9.625   6.581 -0.3697  0.0551  0.0535
 1166ERGO    C116053  17.765   9.331   6.649 -0.1535 -0.1939 -0.2539
 1166ERGO    C216054  17.447   9.191   6.771 -0.0874 -0.1848 -0.0784
 1167ERGO   ROH16055   0.922   3.609   5.818 -0.1032  0.0232 -0.1105
 1167ERGO    R116056   1.106   3.671   6.023 -0.0723 -0.0612 -0.1144
 1167ERGO    R216057   1.108   3.914   6.153  0.0358 -0.0704 -0.1136
 1167ERGO    R316058   1.090   3.760   6.376 -0.0202 -0.0607 -0.1097
 1167ERGO    R416059   1.216   4.009   6.467  0.1857 -0.1363 -0.1434
 1167ERGO    R516060   1.292   3.806   6.496  0.0515 -0.1990 -0.1629
 1167ERGO    C116061   1.262   3.919   6.859  0.2204 -0.1655 -0.1570
 1167ERGO    C216062   1.180   3.933   7.210 -0.0967  0.0507 -0.0730
 1168ERGO   ROH16063  15.087  14.911   6.628 -0.0803 -0.0345  0.0467
 1168ERGO    R116064  14.909  14.995   6.832  0.0021  0.0318  0.0916
 1168ERGO    R216065  14.697  14.841   6.917 -0.0203  0.1006  0.1613
 1168ERGO    R316066  14.810  14.877   7.162  0.0595  0.0826  0.1273
 1168ERGO    R416067  14.529  14.817   7.218  0.1295 -0.1647  0.2279
 1168ERGO    R516068  14.642  14.990   7.289  0.0249 -0.1053  0.2524
 1168ERGO    C116069  14.537  14.838   7.623  0.2917 -0.3361  0.2348
 1168ERGO    C216070  14.331  14.950   7.857  0.2210  0.1761  0.4793
 1169ERGO   ROH16071  10.679  18.154   5.668 -0.0720  0.0227 -0.1280
 1169ERGO    R116072  10.560  18.144   5.924 -0.0617  0.3187 -0.1107
 1169ERGO    R216073  10.629  17.954   6.113 -0.4366  0.2044 -0.1007
 1169ERGO    R316074  10.672  18.172   6.270  0.0441  0.1410 -0.1245
 1169ERGO    R416075  10.710  17.943   6.449 -0.3847  0.0339 -0.1163
 1169ERGO    R516076  10.577  18.113   6.482 -0.0473  0.3284 -0.0969
 1169ERGO    C116077  10.798  18.141   6.791  0.0970 -0.1251 -0.1478
 1169ERGO    C216078  10.829  18.127   7.094 -0.1256 -0.0574  0.1384
 1170ERGO   ROH16079   8.801   0.493   5.712 -0.0623 -0.0332  0.0231
 1170ERGO    R116080   8.738   0.441   5.983 -0.1068  0.0009  0.0190
 1170ERGO    R216081   8.917   0.322   6.157 -0.1324  0.0350  0.0647
 1170ERGO    R316082   8.867   0.542   6.308 -0.1701  0.0515  0.0295
 1170ERGO    R416083   9.046   0.377   6.472 -0.0911  0.1299  0.0318
 1170ERGO    R516084   8.852   0.458   6.532 -0.1072  0.0871  0.0498
 1170ERGO    C116085   9.075   0.616   6.799 -0.1023  0.2007 -0.0202
 1170ERGO    C216086   9.259   0.575   7.069 -0.3522 -0.0727 -0.1854
 1171ERGO   ROH16087   2.109  17.179   5.963  0.1037 -0.0183  0.0343
 1171ERGO    R116088   2.099  17.317   6.210 -0.0901 -0.3589  0.2239
 1171ERGO    R216089   2.050  17.589   6.227  0.5418 -0.2476  0.5011
 1171ERGO    R316090   1.852  17.510   6.395 -0.0387 -0.0280 -0.0407
 1171ERGO    R416091   1.914  17.785   6.477  0.5722 -0.3117  0.5680
 1171ERGO    R516092   1.910  17.609   6.606 -0.1766 -0.5570  0.2674
 1171ERGO    C116093   1.649  17.826   6.780  0.0450 -0.1425  0.0983
 1171ERGO    C216094   1.429  18.147   6.928  0.0218 -0.2290 -0.1123
 1172ERGO   ROH16095  13.739   8.863   5.701 -0.0591 -0.0400  0.1046
 1172ERGO    R116096  13.789   8.894   5.978 -0.0182  0.0187  0.0907
 1172ERGO    R216097  13.809   8.680   6.150 -0.0719  0.0602  0.1456
 1172ERGO    R316098  14.048   8.794   6.213 -0.0265 -0.0041  0.0915
 1172ERGO    R416099  14.014   8.577   6.409 -0.0177 -0.0393  0.0635
 1172ERGO    R516100  14.055   8.787   6.453  0.0434 -0.0528  0.0909
 1172ERGO    C116101  14.357   8.624   6.618  0.0566 -0.1577 -0.0351
 1172ERGO    C216102  14.548   8.293   6.722 -0.2086 -0.2176  0.0137
 1173ERGO   ROH16103   9.798   4.807   5.564  0.1844  0.1618 -0.1679
 1173ERGO    R116104   9.945   4.989   5.722  0.2182  0.0659 -0.0888
 1173ERGO    R216105   9.860   5.073   5.971  0.1953  0.0328 -0.0890
 1173ERGO    R316106  10.106   4.986   6.048  0.1472 -0.0759 -0.0531
 1173ERGO    R416107  10.010   5.148   6.274  0.2302  0.0751 -0.1162
 1173ERGO    R516108  10.199   5.172   6.168  0.2488 -0.0742 -0.1274
 1173ERGO    C116109  10.328   5.111   6.522  0.2054 -0.0023 -0.0983
 1173ERGO    C216110  10.400   5.182   6.791 -0.0139 -0.0508  0.0385
 1174ERGO   ROH16111   3.928  16.010   6.460 -0.0106 -0.0598  0.0067
 1174ERGO    R116112   4.054  15.923   6.698 -0.1317 -0.0388  0.0793
 1174ERGO    R216113   4.272  16.052   6.807  0.0194 -0.2201 -0.0049
 1174ERGO    R316114   4.116  16.058   7.030  0.0099  0.1325 -0.0152
 1174ERGO    R416115   4.369  16.185   7.111  0.3781 -0.5891  0.0501
 1174ERGO    R516116   4.269  16.017   7.210 -0.1027 -0.3620 -0.0172
 1174ERGO    C116117   4.279  16.268   7.497  0.5780 -0.4728  0.0724
 1174ERGO    C216118   4.156  16.629   7.688 -0.2419  0.0365 -0.0362
 1175ERGO   ROH16119   1.163  11.369   5.539  0.1933  0.2175 -0.0086
 1175ERGO    R116120   1.121  11.454   5.806  0.2611  0.1585  0.0212
 1175ERGO    R216121   1.093  11.277   6.016  0.1111  0.1062 -0.0419
 1175ERGO    R316122   1.296  11.423   6.124  0.2326 -0.0993  0.0137
 1175ERGO    R416123   1.184  11.273   6.350 -0.1055  0.1467  0.0196
 1175ERGO    R516124   1.214  11.488   6.339  0.1765  0.1082 -0.0678
 1175ERGO    C116125   1.428  11.407   6.645 -0.1175 -0.0228  0.1074
 1175ERGO    C216126   1.480  11.492   7.008 -0.0161  0.3163 -0.0164
 1176ERGO   ROH16127   4.781  12.115   6.207 -0.0733 -0.0808  0.0228
 1176ERGO    R116128   4.849  12.048   6.474  0.0203 -0.1318 -0.0143
 1176ERGO    R216129   5.015  11.836   6.536  0.1829 -0.0375 -0.1234
 1176ERGO    R316130   5.154  12.027   6.672  0.0707  0.0130 -0.0762
 1176ERGO    R416131   5.174  11.786   6.839  0.1318  0.0206 -0.0852
 1176ERGO    R516132   5.104  11.983   6.902  0.0347 -0.0153 -0.0914
 1176ERGO    C116133   5.397  11.937   7.142 -0.0034  0.1019 -0.0186
 1176ERGO    C216134   5.419  11.810   7.457  0.1848 -0.0237  0.3101
 1177ERGO   ROH16135  16.542   0.226   6.049 -0.1821  0.1194 -0.0209
 1177ERGO    R116136  16.442   0.178   6.310 -0.0225  0.0506  0.0284
 1177ERGO    R216137  16.598   0.068   6.510  0.1006 -0.0063 -0.0951
 1177ERGO    R316138  16.520   0.290   6.647  0.1877 -0.0411  0.0117
 1177ERGO    R416139  16.590   0.095   6.855  0.0055 -0.2055 -0.0808
 1177ERGO    R516140  16.402   0.204   6.837  0.0758 -0.0843 -0.0773
 1177ERGO    C116141  16.512   0.318   7.184  0.0316 -0.3542  0.0278
 1177ERGO    C216142  16.509   0.392   7.498  0.0428  0.1243 -0.1340
 1178ERGO   ROH16143   2.013   4.175   5.843 -0.3591  0.0182  0.4873
 1178ERGO    R116144   2.085   4.097   6.105 -0.1163  0.0514  0.4328
 1178ERGO    R216145   2.255   3.885   6.155 -0.2407 -0.0822  0.3050
 1178ERGO    R316146   2.392   4.070   6.298  0.0966 -0.1470  0.0766
 1178ERGO    R416147   2.444   3.817   6.436 -0.0349 -0.1244  0.1585
 1178ERGO    R516148   2.368   4.000   6.526  0.2450  0.0035  0.1389
 1178ERGO    C116149   2.684   3.952   6.733  0.4016 -0.2099 -0.1413
 1178ERGO    C216150   2.852   3.920   7.084 -0.0108  0.2783  0.2691
 1179ERGO   ROH16151  15.759  18.493   6.017 -0.0600 -0.0263 -0.0362
 1179ERGO    R116152  15.667  18.602   6.261 -0.0497 -0.0625 -0.0158
 1179ERGO    R216153  15.647  18.453   6.493  0.0020 -0.0860 -0.0254
 1179ERGO    R316154  15.800  18.652   6.596 -0.0185 -0.0692 -0.0276
 1179ERGO    R416155  15.755  18.471   6.821 -0.1346  0.0157  0.0150
 1179ERGO    R516156  15.716  18.685   6.817 -0.1078  0.0177 -0.0750
 1179ERGO    C116157  15.962  18.669   7.108 -0.2332  0.0904  0.0364
 1179ERGO    C216158  16.057  18.642   7.463  0.1850  0.1520  0.1785
 1180ERGO   ROH16159  10.667   4.164   5.774  0.3387  0.3164  0.0095
 1180ERGO    R116160  10.574   4.118   6.037  0.1607  0.0450 -0.0969
 1180ERGO    R216161  10.707   3.954   6.216  0.2265  0.1291 -0.0684
 1180ERGO    R316162  10.697   4.174   6.375 -0.2196  0.0343  0.0490
 1180ERGO    R416163  10.785   3.958   6.552  0.1726  0.0990 -0.0555
 1180ERGO    R516164  10.617   4.092   6.585 -0.0962 -0.2365 -0.0046
 1180ERGO    C116165  10.821   4.166   6.898 -0.2777 -0.0076  0.0623
 1180ERGO    C216166  11.026   4.060   7.219 -0.0382 -0.0856 -0.2414
 1181ERGO   ROH16167  11.768  18.210   7.722 -0.1404  0.1669 -0.0949
 1181ERGO    R116168  11.669  18.359   7.942  0.0739  0.1127  0.0432
 1181ERGO    R216169  11.635  18.249   8.193  0.1297 -0.0071  0.0060
 1181ERGO    R316170  11.790  18.457   8.270  0.3166 -0.1573  0.0370
 1181ERGO    R416171  11.604  18.416   8.494 -0.0336  0.2837 -0.1689
 1181ERGO    R516172  11.640  18.603   8.387  0.3633  0.1488 -0.2771
 1181ERGO    C116173  11.733  18.710   8.742  0.0468  0.3120 -0.2417
 1181ERGO    C216174  11.988  18.794   9.035 -0.1121 -0.0552 -0.0850
 1182ERGO   ROH16175   7.601   3.818   5.580  0.2501 -0.0832  0.1797
 1182ERGO    R116176   7.623   3.651   5.807 -0.0784 -0.0399  0.2495
 1182ERGO    R216177   7.404   3.539   5.932 -0.2627 -0.0551 -0.0730
 1182ERGO    R316178   7.539   3.307   5.892 -0.1564 -0.0387  0.1765
 1182ERGO    R416179   7.330   3.239   6.087 -0.4682 -0.0481 -0.1552
 1182ERGO    R516180   7.544   3.203   6.108 -0.4939 -0.0117  0.2012
 1182ERGO    C116181   7.414   2.846   6.139 -0.4881 -0.0285  0.0311
 1182ERGO    C216182   7.235   2.544   6.202  0.2080  0.0920 -0.1774
 1183ERGO   ROH16183   9.356  12.236   5.982 -0.0327 -0.1449 -0.0529
 1183ERGO    R116184   9.338  12.413   6.203  0.0217 -0.0447 -0.1291
 1183ERGO    R216185   9.160  12.374   6.410  0.0564  0.0645 -0.0847
 1183ERGO    R316186   9.384  12.392   6.563  0.0818  0.1158 -0.1252
 1183ERGO    R416187   9.161  12.395   6.755  0.1140 -0.1801 -0.0676
 1183ERGO    R516188   9.323  12.541   6.740  0.0096 -0.0495 -0.0032
 1183ERGO    C116189   9.372  12.423   7.100  0.1712 -0.2743 -0.0956
 1183ERGO    C216190   9.329  12.545   7.381  0.0039  0.2508  0.0113
 1184ERGO   ROH16191  17.485  17.402   6.211  0.0081 -0.0053  0.0268
 1184ERGO    R116192  17.483  17.558   6.447  0.1157 -0.0781  0.0766
 1184ERGO    R216193  17.249  17.631   6.575  0.1556  0.1681  0.0159
 1184ERGO    R316194  17.369  17.516   6.790 -0.0598 -0.0527  0.0220
 1184ERGO    R416195  17.201  17.729   6.903  0.2222  0.1712  0.0249
 1184ERGO    R516196  17.414  17.699   6.938  0.1745 -0.1470  0.0699
 1184ERGO    C116197  17.285  17.677   7.296  0.0590 -0.0341  0.0359
 1184ERGO    C216198  17.158  17.808   7.655  0.1375  0.0970  0.0374
 1185ERGO   ROH16199  13.211  17.088   5.888  0.1640 -0.0097 -0.1203
 1185ERGO    R116200  13.333  17.203   6.116  0.0067 -0.0588 -0.0099
 1185ERGO    R216201  13.252  17.144   6.374 -0.0837 -0.2178 -0.0729
 1185ERGO    R316202  13.515  17.082   6.407 -0.0695 -0.1106  0.0161
 1185ERGO    R416203  13.403  17.087   6.679 -0.2005 -0.3254 -0.0341
 1185ERGO    R516204  13.577  17.198   6.608 -0.2198 -0.1991  0.1149
 1185ERGO    C116205  13.738  16.996   6.889 -0.2551 -0.2874  0.0721
 1185ERGO    C216206  13.964  16.955   7.138  0.0331 -0.2393  0.1464
 1186ERGO   ROH16207   4.059  12.831   6.165  0.2419  0.1117  0.0699
 1186ERGO    R116208   4.077  13.019   6.375  0.1626  0.0092  0.1703
 1186ERGO    R216209   3.932  12.995   6.610  0.0735 -0.1091  0.1051
 1186ERGO    R316210   4.178  13.017   6.725  0.0332 -0.1639  0.2085
 1186ERGO    R416211   3.989  13.039   6.948 -0.0748  0.2827  0.0846
 1186ERGO    R516212   4.148  13.179   6.898  0.0706  0.0906 -0.0157
 1186ERGO    C116213   4.252  13.085   7.253 -0.1990  0.4595  0.1697
 1186ERGO    C216214   4.458  13.131   7.525 -0.2198 -0.1100 -0.2718
 1187ERGO   ROH16215   0.799   1.597   5.894  0.0926 -0.3909 -0.0994
 1187ERGO    R116216   0.829   1.660   6.168 -0.0383  0.0069 -0.1695
 1187ERGO    R216217   1.024   1.545   6.326 -0.2650  0.0496  0.1441
 1187ERGO    R316218   1.087   1.804   6.380 -0.0401  0.0764 -0.2118
 1187ERGO    R416219   1.233   1.648   6.582 -0.3617  0.2196  0.1564
 1187ERGO    R516220   1.097   1.814   6.619 -0.2266  0.4325 -0.2095
 1187ERGO    C116221   1.414   1.952   6.781 -0.2068  0.3437 -0.1707
 1187ERGO    C216222   1.596   2.215   6.955 -0.1053  0.1494 -0.2367
 1188ERGO   ROH16223   4.904   4.497   5.729  0.0090  0.0917  0.0379
 1188ERGO    R116224   4.718   4.462   5.940  0.0087 -0.2208 -0.0095
 1188ERGO    R216225   4.760   4.287   6.149  0.3721  0.0248  0.1301
 1188ERGO    R316226   4.715   4.508   6.301 -0.2343  0.0351 -0.0394
 1188ERGO    R416227   4.665   4.281   6.481  0.4734  0.0082  0.1594
 1188ERGO    R516228   4.529   4.447   6.439 -0.0354 -0.4060  0.0543
 1188ERGO    C116229   4.567   4.485   6.817 -0.0369  0.0081  0.0173
 1188ERGO    C216230   4.639   4.426   7.153  0.0790  0.2224  0.1536
 1189ERGO   ROH16231   9.960  11.070   6.205 -0.1331 -0.0402 -0.0805
 1189ERGO    R116232   9.917  11.086   6.484 -0.1095 -0.1089 -0.0733
 1189ERGO    R216233   9.811  10.878   6.631  0.0391 -0.1965 -0.0933
 1189ERGO    R316234  10.036  10.911   6.781  0.0357 -0.0797 -0.1121
 1189ERGO    R416235   9.822  10.871   6.977  0.0958 -0.3963 -0.0973
 1189ERGO    R516236   9.963  11.037   6.971 -0.0542 -0.2581 -0.0225
 1189ERGO    C116237  10.039  10.898   7.318  0.1256 -0.4031 -0.1173
 1189ERGO    C216238  10.023  10.877   7.679 -0.0522  0.3779  0.1914
 1190ERGO   ROH16239  17.921   5.212   5.905 -0.0221  0.1333  0.0772
 1190ERGO    R116240  17.793   5.139   6.146  0.0718 -0.0522  0.0717
 1190ERGO    R216241  17.901   4.956   6.322  0.4028  0.2059  0.1418
 1190ERGO    R316242  17.869   5.158   6.502 -0.0303  0.1987  0.0837
 1190ERGO    R416243  17.834   4.912   6.659  0.1756  0.1679  0.0939
 1190ERGO    R516244  17.695   5.080   6.648 -0.0541 -0.0199 -0.0522
 1190ERGO    C116245  17.765   5.075   7.023 -0.3632  0.1390  0.0115
 1190ERGO    C216246  17.668   4.932   7.329 -0.1046 -0.0379 -0.0863
 1191ERGO   ROH16247  12.676   1.697   5.560 -0.0929  0.1063  0.1325
 1191ERGO    R116248  12.697   1.927   5.723 -0.0222  0.1341  0.0850
 1191ERGO    R216249  12.508   1.992   5.914 -0.0085  0.2376  0.0652
 1191ERGO    R316250  12.723   1.997   6.080 -0.0123  0.1995  0.0712
 1191ERGO    R416251  12.501   2.095   6.244 -0.0229  0.1192  0.1024
 1191ERGO    R516252  12.693   2.195   6.211 -0.0329  0.1489  0.1415
 1191ERGO    C116253  12.700   2.161   6.591 -0.0351  0.0145  0.1298
 1191ERGO    C216254  12.783   2.045   6.894  0.0286 -0.3810  0.1512
 1192ERGO   ROH16255   8.815   3.297   5.435  0.2443  0.1109 -0.0306
 1192ERGO    R116256   8.933   3.321   5.691  0.1880  0.1326 -0.0065
 1192ERGO    R216257   8.787   3.384   5.917  0.1279  0.1040 -0.0371
 1192ERGO    R316258   8.900   3.157   6.015  0.1532  0.1230 -0.0140
 1192ERGO    R416259   8.926   3.353   6.232  0.2859  0.1992 -0.0959
 1192ERGO    R516260   9.087   3.235   6.143  0.2297  0.1486 -0.1370
 1192ERGO    C116261   9.113   3.122   6.507  0.4016  0.2725 -0.1084
 1192ERGO    C216262   9.040   3.140   6.850 -0.3022 -0.1881 -0.0973
 1193ERGO   ROH16263  17.210  18.966   6.191  0.1098  0.0661  0.1075
 1193ERGO    R116264  17.148  18.905   6.461  0.1020 -0.0210  0.0870
 1193ERGO    R216265  17.250  19.050   6.673  0.0431 -0.0469  0.1349
 1193ERGO    R316266  16.987  19.076   6.740  0.0301 -0.1367  0.1168
 1193ERGO    R416267  17.133  19.143   6.985 -0.0048  0.0669  0.0832
 1193ERGO    R516268  16.975  18.995   6.965  0.0667 -0.0206  0.1611
 1193ERGO    C116269  16.819  19.221   7.229 -0.0451  0.0490  0.0360
 1193ERGO    C216270  16.753  19.231   7.521 -0.1080 -0.0256  0.0511
 1194ERGO   ROH16271   7.176  16.387   6.169  0.3469 -0.1264  0.1507
 1194ERGO    R116272   7.214  16.613   6.334  0.2414 -0.0900  0.1267
 1194ERGO    R216273   7.020  16.808   6.366  0.2125 -0.0896 -0.0242
 1194ERGO    R316274   7.055  16.754   6.630  0.0627 -0.0368  0.0064
 1194ERGO    R416275   6.985  17.039   6.621  0.0344 -0.0481 -0.0854
 1194ERGO    R516276   7.160  16.950   6.718 -0.0130 -0.0096  0.0336
 1194ERGO    C116277   6.998  17.122   7.018 -0.2099  0.0254 -0.0922
 1194ERGO    C216278   7.030  17.199   7.297 -0.0325  0.1349 -0.3256
 1195ERGO   ROH16279  17.914  10.455   6.072  0.0959  0.0820 -0.1867
 1195ERGO    R116280  17.891  10.411   6.351  0.1660 -0.0568 -0.2008
 1195ERGO    R216281  18.110  10.358   6.512  0.2516  0.1743 -0.2282
 1195ERGO    R316282  18.015  10.570   6.654 -0.0309 -0.0017 -0.1499
 1195ERGO    R416283  18.186  10.426   6.842  0.3431  0.2874 -0.2726
 1195ERGO    R516284  17.979  10.483   6.873  0.2623 -0.0804 -0.1335
 1195ERGO    C116285  18.140  10.664   7.167  0.1310  0.1881 -0.2249
 1195ERGO    C216286  18.204  10.897   7.415  0.0407 -0.0640 -0.1695
 1196ERGO   ROH16287   7.661  18.789   5.721 -0.0570  0.1383 -0.0670
 1196ERGO    R116288   7.546  18.955   5.920 -0.0299  0.0420  0.0308
 1196ERGO    R216289   7.420  18.853   6.145  0.0078 -0.0688  0.0064
 1196ERGO    R316290   7.596  19.014   6.276  0.0275 -0.1269  0.0510
 1196ERGO    R416291   7.353  19.021   6.439 -0.0559  0.0752 -0.0901
 1196ERGO    R516292   7.461  19.193   6.360  0.0887 -0.0179 -0.0869
 1196ERGO    C116293   7.477  19.271   6.733 -0.0744  0.1048 -0.1045
 1196ERGO    C216294   7.515  19.413   7.040 -0.2505 -0.3615  0.1160
 1197ERGO   ROH16295   2.621  10.168   5.746 -0.1387  0.1011 -0.0067
 1197ERGO    R116296   2.678  10.046   5.995 -0.1752  0.0671 -0.0134
 1197ERGO    R216297   2.910  10.100   6.137 -0.1198 -0.0634 -0.0387
 1197ERGO    R316298   2.735  10.157   6.337 -0.0677  0.0395 -0.0243
 1197ERGO    R416299   2.964  10.039   6.473 -0.1822 -0.1833 -0.0506
 1197ERGO    R516300   2.757   9.976   6.491 -0.2285 -0.0076 -0.0647
 1197ERGO    C116301   2.831  10.058   6.856 -0.1696 -0.1564 -0.0440
 1197ERGO    C216302   2.930  10.163   7.190 -0.2461  0.2109  0.2543
 1198ERGO   ROH16303   9.604  14.928   6.070  0.0981  0.3088 -0.0065
 1198ERGO    R116304   9.544  14.749   6.281 -0.1615  0.2651 -0.1110
 1198ERGO    R216305   9.712  14.711   6.496 -0.1496 -0.1921 -0.1767
 1198ERGO    R316306   9.489  14.772   6.640 -0.0040  0.1258 -0.0801
 1198ERGO    R416307   9.664  14.631   6.829 -0.0557  0.0717 -0.0992
 1198ERGO    R516308   9.456  14.582   6.782 -0.1266  0.2575  0.0570
 1198ERGO    C116309   9.426  14.642   7.158  0.1357  0.5237  0.0367
 1198ERGO    C216310   9.442  14.454   7.507  0.2215  0.1687 -0.2618
 1199ERGO   ROH16311  11.782  18.902   5.798  0.0263  0.1963 -0.1126
 1199ERGO    R116312  11.694  19.033   6.033 -0.0333 -0.0164 -0.0156
 1199ERGO    R216313  11.751  18.939   6.286  0.2348 -0.0343 -0.0856
 1199ERGO    R316314  11.848  19.190   6.322 -0.0988  0.0940 -0.0386
 1199ERGO    R416315  11.760  19.106   6.589  0.2428 -0.1857 -0.0000
 1199ERGO    R516316  11.702  19.288   6.485 -0.1138 -0.2063  0.1412
 1199ERGO    C116317  11.857  19.439   6.799 -0.0658 -0.1534  0.0939
 1199ERGO    C216318  11.916  19.708   6.949  0.2040  0.3167  0.0476
 1200ERGO   ROH16319   2.665   0.007   5.660 -0.3017  0.0776  0.0261
 1200ERGO    R116320   2.792  -0.025   5.911 -0.1347 -0.1415 -0.0827
 1200ERGO    R216321   2.766   0.159   6.115  0.3572 -0.0917 -0.0537
 1200ERGO    R316322   2.688  -0.058   6.258  0.1041  0.0370  0.0093
 1200ERGO    R416323   2.721   0.152   6.458  0.1573  0.1095 -0.0735
 1200ERGO    R516324   2.813  -0.045   6.461  0.0009  0.0364  0.0740
 1200ERGO    C116325   2.621  -0.056   6.791 -0.1966  0.3475 -0.0259
 1200ERGO    C216326   2.388  -0.200   6.976  0.0433 -0.0174  0.1434
 1201ERGO   ROH16327  14.656   7.059   5.648  0.0275 -0.1352 -0.1128
 1201ERGO    R116328  14.721   6.942   5.898  0.0445  0.0479 -0.0300
 1201ERGO    R216329  14.981   6.917   5.987  0.0622 -0.0112 -0.0907
 1201ERGO    R316330  14.885   7.049   6.204  0.1981  0.2320 -0.1752
 1201ERGO    R416331  15.128   6.918   6.300  0.1551  0.1942 -0.1334
 1201ERGO    R516332  14.930   6.903   6.388  0.1769  0.3747 -0.0581
 1201ERGO    C116333  15.123   7.043   6.686  0.3368  0.5422 -0.2377
 1201ERGO    C216334  15.325   7.134   7.017  0.0951  0.2383 -0.3593
 1202ERGO   ROH16335  18.462   1.805   6.168 -0.1562 -0.1986  0.0932
 1202ERGO    R116336  18.461   1.781   6.450 -0.2272 -0.1891  0.0929
 1202ERGO    R216337  18.402   1.992   6.617 -0.1369 -0.1525  0.0695
 1202ERGO    R316338  18.218   1.819   6.718 -0.2582 -0.0409  0.0468
 1202ERGO    R416339  18.313   1.971   6.950 -0.0495 -0.2135  0.0901
 1202ERGO    R516340  18.308   1.754   6.930 -0.2422 -0.2093 -0.0051
 1202ERGO    C116341  18.089   1.795   7.239 -0.1124 -0.1442  0.0809
 1202ERGO    C216342  18.067   1.686   7.585 -0.0292 -0.1377  0.1682
 1203ERGO   ROH16343   4.709  12.719   7.330  0.1487 -0.0805 -0.1392
 1203ERGO    R116344   4.680  12.440   7.369  0.0634 -0.0683 -0.1126
 1203ERGO    R216345   4.705  12.321   7.617  0.1485 -0.0676 -0.1196
 1203ERGO    R316346   4.459  12.221   7.558  0.0787  0.0242  0.0127
 1203ERGO    R416347   4.565  12.044   7.767  0.2352 -0.1725 -0.2303
 1203ERGO    R516348   4.487  11.983   7.572  0.0517  0.0064 -0.2147
 1203ERGO    C116349   4.252  11.788   7.800  0.2201 -0.1475 -0.1705
 1203ERGO    C216350   3.975  11.609   7.975  0.0425  0.1063 -0.1270
 1204ERGO   ROH16351  14.384   5.694   5.788 -0.0958  0.1211  0.1596
 1204ERGO    R116352  14.212   5.882   5.912 -0.0819  0.0858  0.2345
 1204ERGO    R216353  14.230   5.945   6.180 -0.0124  0.0527  0.2410
 1204ERGO    R316354  14.250   6.199   6.087 -0.0656  0.0654  0.2669
 1204ERGO    R416355  14.168   6.229   6.367 -0.1062  0.0206  0.2576
 1204ERGO    R516356  14.069   6.316   6.192 -0.1061  0.0107  0.2549
 1204ERGO    C116357  14.150   6.634   6.387 -0.2106  0.0138  0.2915
 1204ERGO    C216358  13.984   6.960   6.628 -0.2649 -0.0708 -0.0061
 1205ERGO   ROH16359  16.345   2.199   5.731 -0.1481 -0.0983 -0.0059
 1205ERGO    R116360  16.350   1.985   5.916 -0.1894 -0.0992 -0.0028
 1205ERGO    R216361  16.514   1.984   6.139  0.0192 -0.2496 -0.1407
 1205ERGO    R316362  16.280   1.939   6.270  0.0850 -0.0100  0.0630
 1205ERGO    R416363  16.483   1.807   6.434  0.0684 -0.2999 -0.1673
 1205ERGO    R516364  16.301   1.717   6.355 -0.1084 -0.0565 -0.0245
 1205ERGO    C116365  16.245   1.662   6.729  0.1589 -0.1043  0.0085
 1205ERGO    C216366  16.374   1.880   7.012  0.2505  0.2753  0.1725
 1206ERGO   ROH16367  17.144   0.742   5.802  0.2852  0.2440  0.2149
 1206ERGO    R116368  16.971   0.672   6.015  0.1824  0.1611  0.1056
 1206ERGO    R216369  17.004   0.769   6.272 -0.0659  0.2287  0.1129
 1206ERGO    R316370  16.745   0.846   6.241 -0.1011  0.0437 -0.0811
 1206ERGO    R416371  16.748   0.689   6.489 -0.1682  0.0667 -0.0639
 1206ERGO    R516372  16.618   0.658   6.317 -0.0234 -0.0412 -0.1567
 1206ERGO    C116373  16.355   0.715   6.587 -0.2609 -0.2013 -0.3489
 1206ERGO    C216374  16.130   0.630   6.860 -0.2751 -0.0889 -0.2553
 1207ERGO   ROH16375   4.119  19.036   5.815  0.1178  0.0492  0.1180
 1207ERGO    R116376   4.189  19.136   6.070  0.0332  0.0201  0.1539
 1207ERGO    R216377   4.229  19.405   6.118  0.1212  0.0068  0.1720
 1207ERGO    R316378   4.044  19.364   6.314  0.0039  0.0811  0.0799
 1207ERGO    R416379   4.210  19.586   6.412  0.2717 -0.2152  0.3212
 1207ERGO    R516380   4.166  19.400   6.517 -0.0073 -0.2519  0.1514
 1207ERGO    C116381   4.026  19.654   6.766  0.2493 -0.2746  0.3217
 1207ERGO    C216382   4.001  19.746   7.146  0.0814  0.1622  0.0702
 1208ERGO   ROH16383  17.614   6.925   5.949  0.3148 -0.1261  0.0700
 1208ERGO    R116384  17.663   6.909   6.227  0.2078 -0.0386  0.0955
 1208ERGO    R216385  17.517   7.055   6.413  0.0901 -0.0262  0.0034
 1208ERGO    R316386  17.475   6.810   6.523  0.1134 -0.0112  0.0431
 1208ERGO    R416387  17.391   6.999   6.729 -0.0246 -0.0006 -0.0381
 1208ERGO    R516388  17.534   6.837   6.753  0.0069  0.0505  0.0582
 1208ERGO    C116389  17.278   6.737   7.017 -0.0695  0.0284 -0.0251
 1208ERGO    C216390  17.140   6.521   7.242 -0.3074 -0.4144 -0.0344
 1209ERGO   ROH16391  11.335   3.055   5.686  0.2710  0.0676 -0.0975
 1209ERGO    R116392  11.443   3.083   5.946  0.1864  0.0667 -0.0624
 1209ERGO    R216393  11.608   3.294   6.016  0.0389  0.1459  0.0333
 1209ERGO    R316394  11.425   3.328   6.214 -0.0295 -0.0131  0.0002
 1209ERGO    R416395  11.682   3.394   6.338 -0.1018  0.3080  0.0170
 1209ERGO    R516396  11.535   3.250   6.412  0.0437  0.1534  0.0330
 1209ERGO    C116397  11.553   3.485   6.712 -0.2481  0.2531 -0.0236
 1209ERGO    C216398  11.698   3.591   7.133  0.0043 -0.2982 -0.1994
 1210ERGO   ROH16399   7.265  10.977   5.675  0.0166  0.1048  0.0709
 1210ERGO    R116400   7.443  10.971   5.895  0.0375  0.0483  0.0516
 1210ERGO    R216401   7.466  11.181   6.073  0.0810  0.0158  0.0796
 1210ERGO    R316402   7.417  10.987   6.258  0.0777 -0.0054  0.0578
 1210ERGO    R416403   7.524  11.211   6.413 -0.0022  0.0116  0.0952
 1210ERGO    R516404   7.597  11.006   6.414  0.0405  0.0242  0.1004
 1210ERGO    C116405   7.512  11.047   6.783 -0.0538 -0.0106  0.0838
 1210ERGO    C216406   7.671  10.981   7.074  0.0785  0.0863  0.3108
 1211ERGO   ROH16407  18.141  12.074   5.773 -0.0015  0.1409 -0.0271
 1211ERGO    R116408  18.333  12.128   5.974 -0.0853  0.2381  0.0274
 1211ERGO    R216409  18.605  12.105   5.930 -0.0732 -0.0130  0.2168
 1211ERGO    R316410  18.609  12.361   6.021  0.0555  0.0961 -0.0827
 1211ERGO    R416411  18.858  12.245   6.120 -0.1904 -0.0460  0.4006
 1211ERGO    R516412  18.706  12.346   6.238 -0.2586  0.2505  0.0760
 1211ERGO    C116413  19.008  12.567   6.315 -0.1378  0.0371  0.2264
 1211ERGO    C216414  19.161  12.825   6.277  0.0765 -0.0471  0.0285
 1212ERGO   ROH16415   7.520  13.067   5.947 -0.0543  0.1341  0.0614
 1212ERGO    R116416   7.411  12.985   6.195  0.0856  0.1629  0.1329
 1212ERGO    R216417   7.433  12.726   6.289 -0.1027  0.1060  0.0157
 1212ERGO    R316418   7.538  12.848   6.508  0.2302 -0.0848 -0.0294
 1212ERGO    R416419   7.484  12.574   6.595 -0.2356 -0.0033 -0.0146
 1212ERGO    R516420   7.415  12.756   6.692  0.1415  0.1306  0.0257
 1212ERGO    C116421   7.613  12.600   6.979 -0.0005 -0.2460 -0.0746
 1212ERGO    C216422   7.529  12.345   7.252 -0.1883 -0.0716 -0.3798
 1213ERGO   ROH16423   4.893   9.590   5.475 -0.0754 -0.1084 -0.1042
 1213ERGO    R116424   4.781   9.741   5.687 -0.1985 -0.0693 -0.1953
 1213ERGO    R216425   4.581   9.642   5.851 -0.0531 -0.1722 -0.0704
 1213ERGO    R316426   4.755   9.711   6.049 -0.0774  0.1778 -0.1651
 1213ERGO    R416427   4.490   9.738   6.170 -0.0681 -0.2973 -0.0372
 1213ERGO    R516428   4.646   9.890   6.164 -0.3506 -0.0064 -0.1356
 1213ERGO    C116429   4.599   9.859   6.541 -0.0997 -0.0415 -0.1067
 1213ERGO    C216430   4.402   9.979   6.709 -0.4323  0.1828  0.2646
 1214ERGO   ROH16431   7.977  10.202   5.710  0.2728  0.0211 -0.0486
 1214ERGO    R116432   8.032  10.087   5.963  0.1940  0.0111 -0.0367
 1214ERGO    R216433   8.086  10.240   6.186  0.1507 -0.0002 -0.0225
 1214ERGO    R316434   7.882  10.096   6.295  0.1086  0.0191 -0.0741
 1214ERGO    R416435   8.013  10.225   6.524  0.1867 -0.1402 -0.0198
 1214ERGO    R516436   7.972  10.012   6.501  0.1051 -0.1179 -0.1242
 1214ERGO    C116437   7.779  10.082   6.822  0.1682 -0.2037 -0.0666
 1214ERGO    C216438   7.629  10.158   7.114  0.0318  0.2698 -0.2369
 1215ERGO   ROH16439  18.813   8.267   5.743  0.1015 -0.0315 -0.0703
 1215ERGO    R116440  18.761   8.361   6.005  0.1025 -0.0378 -0.0700
 1215ERGO    R216441  18.655   8.199   6.202  0.0442 -0.0200 -0.0994
 1215ERGO    R316442  18.873   8.279   6.342  0.0479 -0.0881 -0.0610
 1215ERGO    R416443  18.673   8.219   6.546 -0.0452  0.0357 -0.0962
 1215ERGO    R516444  18.784   8.405   6.525  0.0465 -0.0096 -0.1066
 1215ERGO    C116445  18.888   8.307   6.878 -0.0941  0.0041 -0.0582
 1215ERGO    C216446  18.888   8.251   7.281 -0.1821  0.1744  0.2192
 1216ERGO   ROH16447  12.501   9.510   6.889 -0.0747  0.0579 -0.0366
 1216ERGO    R116448  12.385   9.261   6.958 -0.1283  0.0644 -0.1056
 1216ERGO    R216449  12.332   9.188   7.220 -0.1148 -0.0077 -0.1254
 1216ERGO    R316450  12.081   9.148   7.124 -0.1375  0.0837 -0.1082
 1216ERGO    R416451  12.060   9.097   7.412 -0.1445  0.1296 -0.0992
 1216ERGO    R516452  11.998   8.963   7.251 -0.2079  0.1333 -0.0796
 1216ERGO    C116453  11.666   9.006   7.434 -0.1827  0.2954 -0.0678
 1216ERGO    C216454  11.380   9.096   7.421  0.1122 -0.0422  0.1806
 1217ERGO   ROH16455  16.912   4.969   6.074  0.0453 -0.2308  0.0374
 1217ERGO    R116456  16.816   4.868   6.320  0.0042 -0.1170  0.0692
 1217ERGO    R216457  16.923   4.943   6.563  0.0616 -0.1149  0.0448
 1217ERGO    R316458  16.665   5.005   6.621  0.0987  0.0429  0.0449
 1217ERGO    R416459  16.808   5.038   6.875  0.0415 -0.4855  0.1549
 1217ERGO    R516460  16.630   4.916   6.841 -0.0648 -0.2671 -0.1003
 1217ERGO    C116461  16.499   5.151   7.111  0.0645 -0.5532  0.2190
 1217ERGO    C216462  16.376   5.450   7.348 -0.2926  0.3629  0.0086
 1218ERGO   ROH16463  19.058   2.640   6.062  0.0257 -0.0547 -0.0082
 1218ERGO    R116464  19.066   2.859   6.241  0.1710  0.0568 -0.1474
 1218ERGO    R216465  18.929   2.859   6.483 -0.0295  0.3972 -0.2544
 1218ERGO    R316466  19.175   2.916   6.584 -0.0307  0.1341 -0.0944
 1218ERGO    R416467  18.990   3.076   6.745  0.0095  0.0971 -0.0097
 1218ERGO    R516468  19.165   3.149   6.638  0.1028  0.0901  0.1343
 1218ERGO    C116469  19.256   3.255   6.992  0.0313 -0.3246  0.2830
 1218ERGO    C216470  19.359   3.486   7.125  0.0104  0.0111 -0.2112
 1219ERGO   ROH16471   3.383  17.365   5.882 -0.0493 -0.2726 -0.0514
 1219ERGO    R116472   3.290  17.383   6.148  0.1156 -0.2564  0.0072
 1219ERGO    R216473   3.029  17.323   6.219  0.0892 -0.0181  0.1341
 1219ERGO    R316474   3.151  17.155   6.395  0.0246 -0.1925  0.0141
 1219ERGO    R416475   2.945  17.291   6.553  0.3574  0.0860  0.2138
 1219ERGO    R516476   3.157  17.278   6.600  0.3863 -0.2078  0.0158
 1219ERGO    C116477   3.010  17.116   6.912  0.4529 -0.0170  0.1475
 1219ERGO    C216478   2.977  16.971   7.212  0.0112 -0.1855 -0.2738
 1220ERGO   ROH16479   9.283   3.693   5.614  0.1362 -0.0534  0.1280
 1220ERGO    R116480   9.148   3.714   5.862  0.0915 -0.0839  0.1072
 1220ERGO    R216481   9.264   3.641   6.102  0.1376  0.1102  0.1497
 1220ERGO    R316482   9.197   3.894   6.174 -0.0998  0.0790  0.0447
 1220ERGO    R416483   9.227   3.749   6.428  0.1250  0.2365  0.1060
 1220ERGO    R516484   9.053   3.865   6.364 -0.0125  0.0275  0.1008
 1220ERGO    C116485   9.141   4.050   6.686 -0.1053  0.2808 -0.0179
 1220ERGO    C216486   9.162   4.068   6.992 -0.2382  0.1063 -0.0218
 1221ERGO   ROH16487  13.522  15.168   5.923  0.0348  0.1374 -0.0323
 1221ERGO    R116488  13.644  15.144   6.177 -0.0369  0.0354 -0.0072
 1221ERGO    R216489  13.882  15.268   6.241  0.0168 -0.1018  0.0659
 1221ERGO    R316490  13.737  15.368   6.448  0.0219 -0.0529  0.0460
 1221ERGO    R416491  14.017  15.402   6.530  0.0254  0.0926 -0.0265
 1221ERGO    R516492  13.860  15.302   6.643  0.0858  0.0900  0.0546
 1221ERGO    C116493  13.959  15.573   6.892  0.0351  0.2518 -0.0991
 1221ERGO    C216494  14.055  15.622   7.211  0.1410 -0.1520  0.0795
 1222ERGO   ROH16495   1.978   0.580   6.039 -0.0041 -0.2918  0.0672
 1222ERGO    R116496   1.797   0.555   6.256 -0.0507  0.0343  0.0700
 1222ERGO    R216497   1.879   0.498   6.513 -0.1383  0.0179  0.0939
 1222ERGO    R316498   1.739   0.724   6.573  0.1612  0.2343  0.0051
 1222ERGO    R416499   1.876   0.651   6.823 -0.2341 -0.0801  0.1419
 1222ERGO    R516500   1.662   0.687   6.797 -0.1548  0.2826 -0.0906
 1222ERGO    C116501   1.742   0.951   7.060 -0.0087  0.0659  0.0865
 1222ERGO    C216502   2.002   0.997   7.264 -0.0554 -0.0494  0.1580
 1223ERGO   ROH16503   6.205  10.769   5.750 -0.1659 -0.3050 -0.0987
 1223ERGO    R116504   6.118  10.707   6.012 -0.2015 -0.2723 -0.1018
 1223ERGO    R216505   6.113  10.449   6.111 -0.0473 -0.2447 -0.0075
 1223ERGO    R316506   6.262  10.557   6.311 -0.1820 -0.0622 -0.0049
 1223ERGO    R416507   6.169  10.300   6.417 -0.0088 -0.0947  0.0582
 1223ERGO    R516508   6.145  10.495   6.511 -0.1833 -0.0825 -0.0149
 1223ERGO    C116509   6.341  10.315   6.784 -0.1129  0.1639  0.0989
 1223ERGO    C216510   6.234  10.024   6.930 -0.1725  0.2478 -0.2146
 1224ERGO   ROH16511   6.876  11.184   5.849 -0.0020 -0.0932 -0.1247
 1224ERGO    R116512   7.012  11.202   6.097  0.0280 -0.0346 -0.1441
 1224ERGO    R216513   6.884  11.270   6.332  0.0732  0.1152 -0.1569
 1224ERGO    R316514   6.992  11.037   6.421 -0.0042  0.1123 -0.0723
 1224ERGO    R416515   6.938  11.192   6.665 -0.0130  0.1828 -0.1274
 1224ERGO    R516516   7.128  11.102   6.608 -0.0277  0.1215 -0.0628
 1224ERGO    C116517   7.070  10.927   6.942 -0.1359  0.2193 -0.0307
 1224ERGO    C216518   7.054  10.855   7.398 -0.4987  0.3463 -0.1285
 1225ERGO   ROH16519   9.920   2.111   5.722  0.1813  0.0658  0.0976
 1225ERGO    R116520   9.829   2.283   5.928  0.0805  0.0731  0.0488
 1225ERGO    R216521   9.581   2.255   6.047  0.0804 -0.0211  0.0415
 1225ERGO    R316522   9.728   2.249   6.275  0.0742  0.1053  0.0480
 1225ERGO    R416523   9.450   2.244   6.366  0.0783 -0.5350  0.0301
 1225ERGO    R516524   9.604   2.383   6.430 -0.2137 -0.2653  0.1465
 1225ERGO    C116525   9.512   2.232   6.767  0.0714 -0.7155  0.0294
 1225ERGO    C216526   9.340   2.304   7.082 -0.0403  0.0226 -0.2888
 1226ERGO   ROH16527   5.091   6.108   5.762 -0.0005  0.4611 -0.0879
 1226ERGO    R116528   5.089   6.189   6.032  0.1141  0.1840  0.0005
 1226ERGO    R216529   5.241   6.065   6.227  0.3121  0.0744 -0.2161
 1226ERGO    R316530   5.331   6.317   6.272  0.1841  0.0872 -0.0196
 1226ERGO    R416531   5.457   6.155   6.481  0.1729  0.0170 -0.0764
 1226ERGO    R516532   5.339   6.336   6.511  0.0837 -0.0561 -0.0069
 1226ERGO    C116533   5.667   6.444   6.672 -0.0284 -0.0045  0.1895
 1226ERGO    C216534   5.801   6.301   6.959 -0.0162  0.0567  0.0680
 1227ERGO   ROH16535   7.100   1.858   5.906  0.0214 -0.0745  0.1170
 1227ERGO    R116536   6.950   1.857   6.146  0.0013  0.1174  0.1083
 1227ERGO    R216537   6.879   1.623   6.276 -0.2821  0.2020  0.1246
 1227ERGO    R316538   7.000   1.743   6.488 -0.1503  0.0808  0.1174
 1227ERGO    R416539   6.940   1.472   6.581 -0.2290  0.0858  0.0557
 1227ERGO    R516540   6.883   1.658   6.679 -0.1094  0.0746  0.1343
 1227ERGO    C116541   7.088   1.497   6.958 -0.0742 -0.0957  0.0089
 1227ERGO    C216542   7.297   1.326   7.215 -0.1077 -0.1880  0.1337
 1228ERGO   ROH16543  12.579   0.177   5.853 -0.0706 -0.1166  0.2920
 1228ERGO    R116544  12.573   0.252   6.126  0.1046 -0.0763  0.2859
 1228ERGO    R216545  12.802   0.283   6.277  0.2131  0.0960  0.0951
 1228ERGO    R316546  12.699   0.529   6.326  0.0933  0.0380  0.1356
 1228ERGO    R416547  12.815   0.445   6.582  0.3099  0.1393  0.0682
 1228ERGO    R516548  12.611   0.513   6.548  0.2470  0.0097  0.1936
 1228ERGO    C116549  12.725   0.770   6.806  0.2538  0.1100  0.0907
 1228ERGO    C216550  12.775   0.833   7.060 -0.0144 -0.4765 -0.1972
 1229ERGO   ROH16551  17.912  17.541   6.157  0.1019 -0.0700 -0.0203
 1229ERGO    R116552  17.980  17.573   6.430  0.0176  0.0241 -0.0103
 1229ERGO    R216553  17.881  17.779   6.586 -0.1270  0.0037 -0.0817
 1229ERGO    R316554  17.803  17.576   6.748 -0.0610  0.0012 -0.0519
 1229ERGO    R416555  17.850  17.801   6.929  0.0856 -0.0102 -0.0600
 1229ERGO    R516556  17.937  17.602   6.945  0.0673 -0.0299 -0.1288
 1229ERGO    C116557  17.759  17.621   7.282  0.2716 -0.0207 -0.0193
 1229ERGO    C216558  17.684  17.729   7.646 -0.1021 -0.1488  0.1054
 1230ERGO   ROH16559  12.461   0.904   5.894 -0.0038  0.2293  0.1366
 1230ERGO    R116560  12.308   0.943   6.128  0.0544  0.1869  0.1819
 1230ERGO    R216561  12.226   0.733   6.290 -0.0336  0.1438  0.0823
 1230ERGO    R316562  12.348   0.878   6.484  0.0763 -0.0261  0.1418
 1230ERGO    R416563  12.186   0.682   6.629 -0.0967  0.0575  0.0623
 1230ERGO    R516564  12.184   0.897   6.657  0.0819  0.0511  0.1382
 1230ERGO    C116565  12.278   0.787   7.009 -0.0303 -0.1523  0.1065
 1230ERGO    C216566  12.230   0.795   7.293 -0.0481  0.0110 -0.1646
 1231ERGO   ROH16567   9.939   8.466   5.340 -0.0044 -0.2015 -0.0065
 1231ERGO    R116568   9.805   8.332   5.551  0.0514 -0.4147 -0.1042
 1231ERGO    R216569   9.891   8.089   5.652  0.4305 -0.2335  0.0252
 1231ERGO    R316570   9.887   8.222   5.889 -0.0489 -0.1824 -0.0023
 1231ERGO    R416571   9.747   7.970   5.942  0.4583 -0.4909 -0.0631
 1231ERGO    R516572   9.672   8.171   5.981 -0.0206 -0.6372 -0.1610
 1231ERGO    C116573   9.659   8.026   6.334  0.0244 -0.5927 -0.1404
 1231ERGO    C216574   9.539   7.745   6.538  0.5011  0.1696 -0.2324
 1232ERGO   ROH16575   0.443   6.792   5.768 -0.0488  0.2988  0.0086
 1232ERGO    R116576   0.647   6.940   5.897  0.1134  0.1571 -0.0829
 1232ERGO    R216577   0.645   6.992   6.168  0.0373  0.5286 -0.1501
 1232ERGO    R316578   0.893   6.880   6.158 -0.1236  0.1222  0.1357
 1232ERGO    R416579   0.871   6.989   6.429 -0.1827  0.3436  0.0437
 1232ERGO    R516580   1.030   7.029   6.286  0.0084 -0.0072  0.1470
 1232ERGO    C116581   1.235   6.882   6.572 -0.4618 -0.1456  0.4248
 1232ERGO    C216582   1.452   6.781   6.863 -0.2178 -0.1661  0.1424
 1233ERGO   ROH16583  16.820   2.802   7.551 -0.1546 -0.1754 -0.2577
 1233ERGO    R116584  16.751   2.546   7.453 -0.0020 -0.2602 -0.1516
 1233ERGO    R216585  16.940   2.354   7.395  0.1079 -0.2387  0.0912
 1233ERGO    R316586  16.790   2.201   7.564  0.0437 -0.1791  0.0868
 1233ERGO    R416587  16.850   2.025   7.337 -0.0533 -0.1927  0.0813
 1233ERGO    R516588  16.653   2.070   7.418 -0.0245 -0.1059  0.0907
 1233ERGO    C116589  16.658   1.690   7.461 -0.2075 -0.1101  0.0712
 1233ERGO    C216590  16.786   1.467   7.377 -0.3245  0.3142  0.0285
 1234ERGO   ROH16591   5.298   6.721   6.682  0.0043 -0.1296  0.2419
 1234ERGO    R116592   5.174   6.848   6.902  0.0842 -0.0469  0.2394
 1234ERGO    R216593   5.276   7.077   7.018 -0.0197  0.1538 -0.0583
 1234ERGO    R316594   5.026   7.174   6.970 -0.1561 -0.1178  0.0773
 1234ERGO    R416595   5.121   7.326   7.202 -0.0712  0.1789 -0.1352
 1234ERGO    R516596   4.935   7.214   7.187  0.0097 -0.0103  0.1330
 1234ERGO    C116597   4.797   7.562   7.263 -0.2292 -0.0615 -0.0526
 1234ERGO    C216598   4.398   7.573   7.423  0.0556 -0.1153  0.2470
 1235ERGO   ROH16599   2.825  18.173   5.707  0.0613 -0.2968 -0.0139
 1235ERGO    R116600   2.754  18.235   5.974  0.0560 -0.2768 -0.0198
 1235ERGO    R216601   2.526  18.135   6.094  0.0397 -0.2479 -0.0246
 1235ERGO    R316602   2.703  18.051   6.284  0.0236 -0.2572 -0.0139
 1235ERGO    R416603   2.462  18.125   6.434  0.1452  0.1019  0.0098
 1235ERGO    R516604   2.665  18.197   6.470  0.2278 -0.0614 -0.1222
 1235ERGO    C116605   2.590  18.040   6.809  0.1915  0.2969  0.0400
 1235ERGO    C216606   2.458  17.951   7.206 -0.4809  0.3332  0.3039
 1236ERGO   ROH16607  14.996  16.764   6.169  0.3361 -0.0220 -0.3314
 1236ERGO    R116608  15.178  16.853   6.367  0.2862  0.0499 -0.3182
 1236ERGO    R216609  15.293  17.104   6.362  0.0699  0.1512 -0.2282
 1236ERGO    R316610  15.190  17.121   6.613  0.0889 -0.0408 -0.2050
 1236ERGO    R416611  15.462  17.228   6.636 -0.0450  0.3357 -0.2393
 1236ERGO    R516612  15.375  17.069   6.756  0.1956  0.1850 -0.2511
 1236ERGO    C116613  15.464  17.317   7.032 -0.0941  0.2632 -0.2239
 1236ERGO    C216614  15.349  17.348   7.232  0.0526 -0.2111 -0.1008
 1237ERGO   ROH16615  15.996  10.578   5.979  0.3588  0.1762  0.0584
 1237ERGO    R116616  16.066  10.483   6.237  0.3102  0.0906  0.0411
 1237ERGO    R216617  16.225  10.627   6.411  0.1802  0.0893  0.1687
 1237ERGO    R316618  16.016  10.590   6.580  0.1319 -0.0890  0.0727
 1237ERGO    R416619  16.241  10.661   6.754  0.0360 -0.0919  0.1944
 1237ERGO    R516620  16.113  10.486   6.773  0.1009 -0.1535  0.0512
 1237ERGO    C116621  16.054  10.647   7.114 -0.0930 -0.3648  0.1192
 1237ERGO    C216622  16.064  10.485   7.480  0.1301 -0.2219 -0.2613
 1238ERGO   ROH16623   5.197  16.458   5.821  0.2626  0.0118 -0.0573
 1238ERGO    R116624   5.260  16.524   6.089  0.0987  0.0782 -0.0342
 1238ERGO    R216625   5.071  16.520   6.291 -0.0240  0.1173 -0.1452
 1238ERGO    R316626   5.251  16.355   6.411 -0.0866  0.1533  0.0008
 1238ERGO    R416627   5.081  16.451   6.630 -0.3417  0.0374 -0.1486
 1238ERGO    R516628   5.299  16.461   6.621 -0.3360  0.1176  0.0766
 1238ERGO    C116629   5.256  16.256   6.940 -0.5854  0.0245 -0.0136
 1238ERGO    C216630   5.227  16.330   7.255  0.2140 -0.0673  0.1877
 1239ERGO   ROH16631  12.302  19.134   7.899 -0.0122 -0.0753  0.0583
 1239ERGO    R116632  12.379  18.981   7.674  0.0000 -0.0697  0.0579
 1239ERGO    R216633  12.643  18.923   7.616  0.0098 -0.0289  0.0427
 1239ERGO    R316634  12.553  18.666   7.615  0.0485 -0.0417  0.0602
 1239ERGO    R416635  12.837  18.645   7.549 -0.0001  0.0048 -0.1283
 1239ERGO    R516636  12.671  18.562   7.435 -0.0583  0.0010 -0.0300
 1239ERGO    C116637  12.865  18.242   7.508  0.0303  0.0124 -0.2113
 1239ERGO    C216638  12.971  17.977   7.474  0.0660  0.0575  0.0453
 1240ERGO   ROH16639   1.288   6.152   6.025 -0.0158 -0.2390 -0.0370
 1240ERGO    R116640   1.197   5.978   6.229  0.1277 -0.1457  0.1076
 1240ERGO    R216641   1.359   5.786   6.343  0.2308 -0.0351  0.1412
 1240ERGO    R316642   1.286   5.907   6.575  0.3103  0.0748  0.1090
 1240ERGO    R416643   1.364   5.636   6.655  0.1028  0.0325  0.1766
 1240ERGO    R516644   1.175   5.736   6.700  0.1740  0.1857  0.1441
 1240ERGO    C116645   1.297   5.663   7.054  0.1028  0.1751  0.1671
 1240ERGO    C216646   1.381   5.560   7.359 -0.1154  0.3824 -0.1938
 1241ERGO   ROH16647   3.224  14.207   6.152 -0.2300  0.0560  0.0011
 1241ERGO    R116648   3.210  14.396   6.362  0.0210  0.0989 -0.0176
 1241ERGO    R216649   3.028  14.374   6.570 -0.1470  0.4641 -0.1201
 1241ERGO    R316650   3.251  14.392   6.724 -0.1919  0.0314  0.0082
 1241ERGO    R416651   3.031  14.362   6.915 -0.3932  0.5735 -0.1122
 1241ERGO    R516652   3.182  14.519   6.915 -0.0409  0.2548 -0.0791
 1241ERGO    C116653   3.242  14.371   7.261 -0.5786  0.2310  0.0128
 1241ERGO    C216654   3.310  14.158   7.508  0.0731 -0.0161 -0.3413
 1242ERGO   ROH16655  11.223   6.421   5.679  0.1768 -0.0708 -0.1349
 1242ERGO    R116656  11.272   6.324   5.941  0.0906 -0.0649 -0.1166
 1242ERGO    R216657  11.087   6.346   6.145  0.0896  0.0976 -0.1321
 1242ERGO    R316658  11.124   6.077   6.163 -0.1000  0.0725 -0.0895
 1242ERGO    R416659  11.096   6.168   6.441  0.2994  0.1821 -0.0855
 1242ERGO    R516660  11.260   6.050   6.359  0.1100  0.0272 -0.2407
 1242ERGO    C116661  11.136   5.813   6.631  0.2435  0.2076 -0.0183
 1242ERGO    C216662  11.025   5.588   6.875  0.1055  0.3200  0.0164
 1243ERGO   ROH16663  16.350   6.845   5.436  0.1030  0.0866 -0.0653
 1243ERGO    R116664  16.445   7.024   5.635 -0.1774  0.0252  0.1266
 1243ERGO    R216665  16.367   7.006   5.899 -0.0413 -0.4774  0.1347
 1243ERGO    R316666  16.636   6.999   5.944  0.0016  0.0090  0.0185
 1243ERGO    R416667  16.515   7.025   6.211  0.0155 -0.6872  0.1234
 1243ERGO    R516668  16.669   7.153   6.124 -0.2714 -0.2056  0.2710
 1243ERGO    C116669  16.853   7.029   6.435  0.0888 -0.3528  0.0077
 1243ERGO    C216670  16.971   6.816   6.550  0.1480 -0.0427 -0.2491
 1244ERGO   ROH16671  12.693   3.225   5.599  0.0823 -0.2586  0.1753
 1244ERGO    R116672  12.629   3.167   5.869  0.0767 -0.1823  0.1904
 1244ERGO    R216673  12.821   3.108   6.059  0.0728 -0.1317  0.2105
 1244ERGO    R316674  12.702   3.311   6.195  0.0727 -0.0917  0.1514
 1244ERGO    R416675  12.803   3.132   6.403  0.1681  0.0258  0.2060
 1244ERGO    R516676  12.599   3.205   6.382  0.1483 -0.0244  0.2314
 1244ERGO    C116677  12.680   3.336   6.731  0.2236  0.1550  0.1479
 1244ERGO    C216678  12.757   3.224   7.212  0.0357 -0.1472  0.1474
 1245ERGO   ROH16679  14.031  17.835   5.950  0.0435  0.0755  0.0758
 1245ERGO    R116680  14.062  17.868   6.229  0.0927  0.2490  0.0511
 1245ERGO    R216681  13.971  18.091   6.364 -0.1435  0.2039 -0.0290
 1245ERGO    R316682  13.842  17.907   6.517  0.1330  0.1140  0.1005
 1245ERGO    R416683  13.959  18.095   6.709  0.0309  0.3042 -0.0231
 1245ERGO    R516684  13.985  17.879   6.707  0.2633  0.3294  0.0378
 1245ERGO    C116685  13.832  17.924   7.054  0.3920  0.2780  0.1019
 1245ERGO    C216686  13.554  17.798   7.303 -0.2348 -0.2147  0.0112
 1246ERGO   ROH16687  14.603  13.058   6.346 -0.0103  0.1303 -0.0636
 1246ERGO    R116688  14.653  12.890   6.568  0.1504  0.1394 -0.0914
 1246ERGO    R216689  14.702  12.989   6.822  0.0992  0.1453 -0.0804
 1246ERGO    R316690  14.497  12.823   6.890  0.2376 -0.0290 -0.0842
 1246ERGO    R416691  14.581  12.944   7.142 -0.0179  0.2071 -0.1157
 1246ERGO    R516692  14.562  12.731   7.101  0.2257  0.1634  0.0015
 1246ERGO    C116693  14.319  12.762   7.393  0.0438  0.0795 -0.1398
 1246ERGO    C216694  13.983  12.483   7.539 -0.1632 -0.3251  0.1271
 1247ERGO   ROH16695  11.371  12.664   6.275  0.0654 -0.1622 -0.0433
 1247ERGO    R116696  11.329  12.660   6.555 -0.0263 -0.1451 -0.0563
 1247ERGO    R216697  11.308  12.890   6.705 -0.0413 -0.1367 -0.0720
 1247ERGO    R316698  11.074  12.779   6.786 -0.0839 -0.0985 -0.1429
 1247ERGO    R416699  11.185  12.904   7.028 -0.2737  0.1316 -0.1687
 1247ERGO    R516700  11.121  12.696   7.006 -0.2282  0.1012 -0.0334
 1247ERGO    C116701  10.892  12.807   7.291 -0.4488  0.3237 -0.2916
 1247ERGO    C216702  10.929  12.869   7.589 -0.1280  0.0939 -0.0553
 1248ERGO   ROH16703   6.357   4.908   5.342 -0.4229 -0.0539 -0.0121
 1248ERGO    R116704   6.378   4.699   5.532 -0.2871 -0.0797 -0.0555
 1248ERGO    R216705   6.439   4.745   5.798 -0.0336 -0.1226 -0.1067
 1248ERGO    R316706   6.211   4.604   5.841 -0.0206 -0.0862  0.0917
 1248ERGO    R416707   6.347   4.606   6.101  0.1446  0.0230  0.0162
 1248ERGO    R516708   6.276   4.431   5.993  0.0640 -0.0242  0.1331
 1248ERGO    C116709   6.079   4.393   6.318  0.2607  0.1420  0.2742
 1248ERGO    C216710   5.853   4.431   6.576  0.2043  0.2439 -0.1704
 1249ERGO   ROH16711  16.394  17.356   6.237  0.3207  0.2379  0.0708
 1249ERGO    R116712  16.336  17.221   6.479  0.1595  0.2786  0.0558
 1249ERGO    R216713  16.528  17.084   6.623  0.0302  0.1641  0.1227
 1249ERGO    R316714  16.443  17.244   6.826  0.0609  0.2219  0.0901
 1249ERGO    R416715  16.563  17.013   6.959 -0.0449  0.1944  0.1370
 1249ERGO    R516716  16.363  17.092   6.992 -0.0201  0.2735  0.0983
 1249ERGO    C116717  16.503  17.122   7.346 -0.0600  0.2662  0.1146
 1249ERGO    C216718  16.479  17.127   7.740  0.0692  0.2941  0.1669
 1250ERGO   ROH16719  15.742  17.308   6.125 -0.2795 -0.0013 -0.0073
 1250ERGO    R116720  15.914  17.379   6.338 -0.0195 -0.1518 -0.1639
 1250ERGO    R216721  15.827  17.521   6.559  0.3552  0.1123 -0.1867
 1250ERGO    R316722  15.933  17.311   6.695  0.1182  0.0206 -0.1348
 1250ERGO    R416723  15.864  17.505   6.902  0.1349  0.0792 -0.1627
 1250ERGO    R516724  16.058  17.411   6.873  0.0919 -0.0706 -0.0550
 1250ERGO    C116725  15.984  17.298   7.230 -0.2158 -0.0261 -0.0999
 1250ERGO    C216726  16.041  17.289   7.585 -0.1058  0.0937 -0.1794
 1251ERGO   ROH16727   8.740   8.561   5.100  0.1042  0.2011  0.0571
 1251ERGO    R116728   8.865   8.405   5.300  0.0903  0.1897  0.0559
 1251ERGO    R216729   9.124   8.452   5.386  0.0544  0.2326  0.1321
 1251ERGO    R316730   9.007   8.463   5.631 -0.0069  0.1511  0.1050
 1251ERGO    R416731   9.287   8.396   5.685  0.0147  0.2516  0.1582
 1251ERGO    R516732   9.112   8.287   5.755  0.0380  0.1710  0.1014
 1251ERGO    C116733   9.272   8.374   6.089 -0.0659  0.1861  0.1479
 1251ERGO    C216734   9.334   8.443   6.406 -0.4860 -0.0244  0.0313
 1252ERGO   ROH16735  13.366   1.006   5.965  0.3662 -0.3035  0.0216
 1252ERGO    R116736  13.486   1.073   6.212  0.2503 -0.0310  0.0086
 1252ERGO    R216737  13.527   1.334   6.291 -0.0509  0.0661 -0.1271
 1252ERGO    R316738  13.390   1.255   6.512 -0.0070  0.0349 -0.1119
 1252ERGO    R416739  13.535   1.496   6.596 -0.0385  0.0493 -0.1191
 1252ERGO    R516740  13.539   1.301   6.694  0.0062  0.0491 -0.1301
 1252ERGO    C116741  13.411   1.516   6.981  0.0100  0.0102 -0.1002
 1252ERGO    C216742  13.291   1.679   7.296 -0.1038 -0.2337 -0.0103
 1253ERGO   ROH16743   6.544  12.571   5.927 -0.1055  0.0761  0.0821
 1253ERGO    R116744   6.449  12.638   6.186 -0.2121  0.0506  0.0495
 1253ERGO    R216745   6.258  12.487   6.318 -0.1115 -0.0821  0.0411
 1253ERGO    R316746   6.446  12.482   6.514 -0.1453  0.1157  0.0822
 1253ERGO    R416747   6.190  12.491   6.657 -0.1824  0.0667  0.0265
 1253ERGO    R516748   6.359  12.626   6.684 -0.2520  0.1668 -0.0119
 1253ERGO    C116749   6.327  12.488   7.038 -0.2554  0.3391  0.0565
 1253ERGO    C216750   6.185  12.457   7.352  0.0967 -0.0539  0.0767
 1254ERGO   ROH16751   6.276   5.711   5.524  0.0430 -0.0187  0.1856
 1254ERGO    R116752   6.353   5.456   5.619  0.0665 -0.0811  0.0040
 1254ERGO    R216753   6.503   5.280   5.468  0.1107  0.0524 -0.1107
 1254ERGO    R316754   6.666   5.282   5.685  0.0826 -0.0874 -0.0873
 1254ERGO    R416755   6.808   5.119   5.487  0.0782 -0.0140 -0.1508
 1254ERGO    R516756   6.759   5.061   5.691  0.0405 -0.1083 -0.1860
 1254ERGO    C116757   7.139   5.027   5.701  0.0329 -0.1841 -0.1523
 1254ERGO    C216758   7.378   4.751   5.561  0.1551  0.4301  0.1398
 1255ERGO   ROH16759   2.892  11.587   6.020 -0.0843  0.0079 -0.0570
 1255ERGO    R116760   2.835  11.471   6.272  0.0368  0.1119  0.0189
 1255ERGO    R216761   2.872  11.605   6.510 -0.1019  0.3073 -0.0728
 1255ERGO    R316762   2.611  11.541   6.551 -0.0372  0.0614 -0.0253
 1255ERGO    R416763   2.713  11.611   6.817 -0.0981  0.3727 -0.0710
 1255ERGO    R516764   2.611  11.426   6.761  0.0919  0.2152  0.0654
 1255ERGO    C116765   2.376  11.553   7.034 -0.0352  0.1800 -0.0253
 1255ERGO    C216766   2.219  11.491   7.339 -0.2802 -0.2219  0.3405
 1256ERGO   ROH16767   3.310   7.653   6.008 -0.4243  0.0693  0.0011
 1256ERGO    R116768   3.372   7.691   6.282 -0.3850 -0.0455  0.0082
 1256ERGO    R216769   3.453   7.935   6.384 -0.1344 -0.1465  0.0541
 1256ERGO    R316770   3.245   7.896   6.555 -0.1768  0.0338  0.0475
 1256ERGO    R416771   3.395   8.118   6.671 -0.1151  0.0544 -0.0675
 1256ERGO    R516772   3.338   7.934   6.772 -0.1971  0.1356  0.0394
 1256ERGO    C116773   3.166   8.188   6.999 -0.1437  0.3405 -0.1446
 1256ERGO    C216774   2.914   8.238   7.205 -0.0304 -0.2711  0.1585
 1257ERGO   ROH16775   2.440   2.532   6.199  0.0784  0.2625  0.0461
 1257ERGO    R116776   2.314   2.663   6.416 -0.3138  0.0473 -0.0411
 1257ERGO    R216777   2.068   2.582   6.517 -0.1044 -0.6092  0.0008
 1257ERGO    R316778   2.206   2.572   6.752 -0.0616 -0.0638  0.0116
 1257ERGO    R416779   1.926   2.549   6.830 -0.0154 -0.4380  0.0611
 1257ERGO    R516780   2.069   2.692   6.907 -0.2511 -0.0867 -0.1374
 1257ERGO    C116781   1.971   2.520   7.232  0.0766  0.1737  0.1062
 1257ERGO    C216782   1.696   2.394   7.467  0.0933  0.0918  0.2922
 1258ERGO   ROH16783   6.694   7.474   5.613 -0.0524 -0.4278 -0.0325
 1258ERGO    R116784   6.743   7.371   5.873  0.0225 -0.1792  0.0546
 1258ERGO    R216785   6.850   7.525   6.075 -0.0624  0.0613 -0.0773
 1258ERGO    R316786   6.629   7.444   6.211 -0.0075  0.0386 -0.0010
 1258ERGO    R416787   6.741   7.659   6.375 -0.0119  0.0943 -0.0736
 1258ERGO    R516788   6.692   7.458   6.441  0.0510  0.0972 -0.0208
 1258ERGO    C116789   6.470   7.660   6.676  0.0690  0.0922  0.0002
 1258ERGO    C216790   6.345   7.792   6.892 -0.0185 -0.2423  0.0851
 1259ERGO   ROH16791  11.819   8.029   9.026  0.1843 -0.0242  0.0978
 1259ERGO    R116792  11.999   8.003   8.809  0.1971 -0.0839  0.1156
 1259ERGO    R216793  11.976   7.801   8.621  0.0903 -0.0192  0.0593
 1259ERGO    R316794  11.977   8.009   8.445  0.2512  0.0276  0.1134
 1259ERGO    R416795  11.983   7.770   8.277 -0.0926  0.0572  0.0478
 1259ERGO    R516796  12.122   7.937   8.268  0.0972 -0.0951  0.0333
 1259ERGO    C116797  11.987   7.946   7.912 -0.0483  0.1456  0.0921
 1259ERGO    C216798  12.021   7.930   7.577  0.2128 -0.1235  0.0963
 1260ERGO   ROH16799  10.373  13.856   6.039  0.0348 -0.1581 -0.0871
 1260ERGO    R116800  10.383  13.837   6.321 -0.2276 -0.1889 -0.0793
 1260ERGO    R216801  10.519  14.018   6.479 -0.0059 -0.4510  0.0301
 1260ERGO    R316802  10.278  14.041   6.604 -0.0705  0.0003 -0.1538
 1260ERGO    R416803  10.476  14.086   6.815 -0.1277 -0.3657 -0.0009
 1260ERGO    R516804  10.313  13.941   6.818 -0.4121 -0.0704 -0.1199
 1260ERGO    C116805  10.226  14.146   7.128 -0.2592  0.1077 -0.1916
 1260ERGO    C216806  10.121  14.185   7.397  0.2244  0.1241 -0.0037
 1261ERGO   ROH16807  16.621   8.841   5.775  0.0077  0.0964 -0.0468
 1261ERGO    R116808  16.383   8.779   5.916  0.0788  0.0332  0.0470
 1261ERGO    R216809  16.381   8.719   6.186  0.1747  0.2568  0.1025
 1261ERGO    R316810  16.198   8.920   6.196  0.0255  0.1312 -0.0379
 1261ERGO    R416811  16.158   8.769   6.445  0.0564  0.2180  0.0095
 1261ERGO    R516812  16.005   8.819   6.297  0.0666  0.0436 -0.0546
 1261ERGO    C116813  15.856   8.987   6.605 -0.1523  0.0776 -0.1763
 1261ERGO    C216814  15.552   9.011   6.836  0.0153  0.0597  0.2025
 1262ERGO   ROH16815   0.859  15.777   6.127  0.1577  0.1651 -0.1630
 1262ERGO    R116816   0.928  15.935   6.352 -0.0437  0.2417 -0.1544
 1262ERGO    R216817   0.755  16.122   6.461 -0.3351 -0.0734 -0.0675
 1262ERGO    R316818   0.801  15.983   6.690 -0.0256 -0.0403 -0.1037
 1262ERGO    R416819   0.806  16.264   6.772 -0.2380 -0.0262 -0.1040
 1262ERGO    R516820   0.961  16.115   6.809 -0.0587  0.1176 -0.2234
 1262ERGO    C116821   0.879  16.216   7.168  0.1090  0.0323 -0.1591
 1262ERGO    C216822   1.071  16.300   7.424  0.2734  0.0957  0.0289
 1263ERGO   ROH16823   7.625   3.195   7.972  0.0574 -0.0526 -0.2069
 1263ERGO    R116824   7.531   3.461   7.946  0.1046 -0.0245 -0.0947
 1263ERGO    R216825   7.697   3.680   7.972  0.1754 -0.0699 -0.1530
 1263ERGO    R316826   7.598   3.744   7.728  0.0375  0.0024 -0.0798
 1263ERGO    R416827   7.730   3.989   7.820  0.0528 -0.0145 -0.0697
 1263ERGO    R516828   7.524   3.971   7.750  0.0196 -0.0158  0.0335
 1263ERGO    C116829   7.656   4.229   7.502 -0.1480  0.0856  0.0475
 1263ERGO    C216830   7.685   4.369   7.134 -0.0635 -0.0311  0.0539
 1264ERGO   ROH16831   5.135  17.232   8.708 -0.1077  0.0020 -0.1765
 1264ERGO    R116832   5.043  17.355   8.471 -0.0280 -0.0593 -0.2399
 1264ERGO    R216833   5.030  17.630   8.441 -0.1856 -0.0672 -0.2506
 1264ERGO    R316834   5.181  17.581   8.220 -0.0042  0.0273 -0.1494
 1264ERGO    R416835   4.995  17.792   8.138 -0.0702 -0.0743 -0.2674
 1264ERGO    R516836   5.028  17.601   8.037  0.1084 -0.0530 -0.2544
 1264ERGO    C116837   5.117  17.840   7.754  0.1674  0.0104 -0.1822
 1264ERGO    C216838   5.162  18.123   7.511 -0.0639  0.0652  0.0666
 1265ERGO   ROH16839   6.549   1.328   5.711  0.0015 -0.2322 -0.0043
 1265ERGO    R116840   6.441   1.285   5.969  0.0516 -0.1852  0.0251
 1265ERGO    R216841   6.590   1.182   6.177  0.1155 -0.0736  0.0393
 1265ERGO    R316842   6.504   1.405   6.306  0.0633 -0.0573 -0.0236
 1265ERGO    R416843   6.613   1.234   6.518  0.1177  0.0455  0.0215
 1265ERGO    R516844   6.414   1.324   6.512  0.0975 -0.0115  0.0057
 1265ERGO    C116845   6.546   1.474   6.838  0.0701  0.1303 -0.0480
 1265ERGO    C216846   6.606   1.485   7.212  0.2322 -0.0767  0.2895
 1266ERGO   ROH16847   8.330   2.542   6.000  0.1967  0.0198 -0.1184
 1266ERGO    R116848   8.340   2.455   6.270  0.0726 -0.0780 -0.1448
 1266ERGO    R216849   8.329   2.630   6.483  0.1366 -0.1431 -0.0898
 1266ERGO    R316850   8.122   2.472   6.561  0.0117 -0.0329 -0.1922
 1266ERGO    R416851   8.205   2.611   6.805  0.1429 -0.2723 -0.0942
 1266ERGO    R516852   8.184   2.396   6.779 -0.0337 -0.2408 -0.2486
 1266ERGO    C116853   7.938   2.452   7.065  0.0293 -0.2441 -0.1929
 1266ERGO    C216854   7.700   2.588   7.120  0.0116  0.0332  0.1993
 1267ERGO   ROH16855   8.697  16.124   5.954  0.0574 -0.1166  0.2487
 1267ERGO    R116856   8.764  16.365   6.086  0.0355 -0.0315  0.1086
 1267ERGO    R216857   8.572  16.543   6.177  0.0151 -0.0293  0.0707
 1267ERGO    R316858   8.702  16.512   6.414  0.0875  0.1186  0.0506
 1267ERGO    R416859   8.580  16.779   6.429 -0.0298  0.0638 -0.0147
 1267ERGO    R516860   8.790  16.730   6.461 -0.0019  0.1747 -0.0478
 1267ERGO    C116861   8.707  16.887   6.799  0.0118  0.2570 -0.0832
 1267ERGO    C216862   8.584  16.956   7.064  0.0107 -0.3993 -0.1496
 1268ERGO   ROH16863  13.783   4.246   5.668  0.1294 -0.3135 -0.2519
 1268ERGO    R116864  13.728   4.262   5.945 -0.0253 -0.1897 -0.2888
 1268ERGO    R216865  13.750   4.045   6.115  0.0446 -0.0752 -0.1497
 1268ERGO    R316866  13.912   4.212   6.255 -0.1473  0.1244 -0.1609
 1268ERGO    R416867  13.771   4.057   6.459  0.2611 -0.2631 -0.1544
 1268ERGO    R516868  13.782   4.274   6.446 -0.1303 -0.2256 -0.0281
 1268ERGO    C116869  13.935   4.221   6.792  0.2068 -0.1850 -0.1678
 1268ERGO    C216870  13.922   4.251   7.162  0.0440 -0.2020  0.0314
 1269ERGO   ROH16871  19.155  15.367   6.210 -0.1842 -0.0243 -0.1199
 1269ERGO    R116872  19.140  15.360   6.492 -0.2302 -0.0395 -0.1222
 1269ERGO    R216873  19.269  15.168   6.644 -0.2277 -0.0293 -0.1081
 1269ERGO    R316874  19.373  15.384   6.771 -0.2794 -0.0199 -0.0830
 1269ERGO    R416875  19.310  15.195   6.986 -0.2116 -0.0693 -0.1075
 1269ERGO    R516876  19.245  15.402   6.972 -0.2699 -0.0862 -0.0717
 1269ERGO    C116877  19.432  15.414   7.304 -0.2508 -0.0840 -0.0836
 1269ERGO    C216878  19.516  15.657   7.672 -0.0158 -0.0204 -0.1892
 1270ERGO   ROH16879  18.441   3.506   6.103  0.0270  0.2244  0.1546
 1270ERGO    R116880  18.241   3.501   6.303  0.1277  0.3311  0.2610
 1270ERGO    R216881  18.142   3.266   6.409 -0.2844  0.3546 -0.0388
 1270ERGO    R316882  18.211   3.382   6.645  0.0937 -0.1289  0.1037
 1270ERGO    R416883  18.011   3.179   6.717 -0.3681  0.2390 -0.1065
 1270ERGO    R516884  18.006   3.391   6.769  0.1587  0.1931  0.1924
 1270ERGO    C116885  17.999   3.238   7.118 -0.0619 -0.2822 -0.0122
 1270ERGO    C216886  17.782   3.143   7.389  0.1860  0.2144 -0.2542
 1271ERGO   ROH16887  12.563   6.945   5.770 -0.1174  0.2784 -0.0526
 1271ERGO    R116888  12.668   7.105   5.978 -0.2557  0.3166 -0.0114
 1271ERGO    R216889  12.507   7.224   6.170 -0.3432 -0.0803  0.1718
 1271ERGO    R316890  12.673   7.095   6.342 -0.0133  0.0765 -0.0186
 1271ERGO    R416891  12.621   7.354   6.469 -0.1665  0.0062  0.0682
 1271ERGO    R516892  12.816   7.267   6.427 -0.1101  0.2257 -0.1511
 1271ERGO    C116893  12.843   7.309   6.805  0.2461  0.2038 -0.1708
 1271ERGO    C216894  12.799   7.378   7.107  0.0114 -0.0778 -0.2651
 1272ERGO   ROH16895   2.321  16.588   5.993  0.0618  0.1927  0.0029
 1272ERGO    R116896   2.304  16.403   6.207  0.0636  0.0967 -0.0798
 1272ERGO    R216897   2.496  16.210   6.253  0.0345  0.0441 -0.1998
 1272ERGO    R316898   2.501  16.320   6.502  0.0940 -0.0771 -0.1460
 1272ERGO    R416899   2.572  16.039   6.543  0.1001 -0.1100 -0.3068
 1272ERGO    R516900   2.413  16.149   6.644  0.1213 -0.1528 -0.2131
 1272ERGO    C116901   2.621  16.042   6.945  0.1941 -0.3134 -0.3187
 1272ERGO    C216902   2.610  15.850   7.168 -0.0124  0.3412  0.2943
 1273ERGO   ROH16903   5.872  17.170   7.638  0.3449  0.0364  0.0395
 1273ERGO    R116904   5.991  17.343   7.827  0.2431  0.0851  0.0603
 1273ERGO    R216905   5.952  17.616   7.824  0.1414  0.0702  0.0481
 1273ERGO    R316906   5.877  17.576   8.082  0.1057  0.0473  0.0344
 1273ERGO    R416907   5.992  17.847   8.078  0.1323  0.0378  0.0793
 1273ERGO    R516908   6.050  17.683   8.211  0.1006  0.0163  0.0678
 1273ERGO    C116909   5.945  17.945   8.468  0.0935 -0.0027  0.0844
 1273ERGO    C216910   6.018  18.392   8.623 -0.0123  0.0683 -0.2362
 1274ERGO   ROH16911   5.651   9.747   5.720  0.0327  0.1033  0.1633
 1274ERGO    R116912   5.769   9.514   5.830 -0.1494  0.0180  0.1784
 1274ERGO    R216913   6.025   9.512   5.935 -0.1053 -0.2042  0.0611
 1274ERGO    R316914   5.899   9.412   6.154 -0.1046 -0.0169  0.1505
 1274ERGO    R416915   6.179   9.338   6.190 -0.1333 -0.1568  0.1122
 1274ERGO    R516916   6.008   9.204   6.196 -0.2102 -0.0591  0.2301
 1274ERGO    C116917   6.151   9.143   6.545 -0.1488  0.0466  0.2260
 1274ERGO    C216918   6.056   9.018   6.871 -0.1550  0.0729  0.2713
 1275ERGO   ROH16919   2.770  12.495   6.167  0.0485  0.0964  0.0735
 1275ERGO    R116920   2.896  12.406   6.404  0.1312  0.1724  0.0593
 1275ERGO    R216921   2.998  12.579   6.593 -0.1373  0.2407  0.1479
 1275ERGO    R316922   2.839  12.437   6.762  0.0222 -0.0465  0.0626
 1275ERGO    R416923   2.962  12.642   6.932 -0.2671  0.0385  0.1726
 1275ERGO    R516924   2.963  12.427   6.966  0.0081  0.0206  0.0733
 1275ERGO    C116925   2.792  12.544   7.287 -0.1930 -0.3488  0.1069
 1275ERGO    C216926   2.587  12.414   7.593  0.0688 -0.1231  0.2011
 1276ERGO   ROH16927  11.950  17.025   6.280 -0.0996  0.1057 -0.1023
 1276ERGO    R116928  11.861  16.831   6.465 -0.1575  0.0586 -0.1798
 1276ERGO    R216929  11.904  16.853   6.737 -0.0031 -0.1433 -0.1886
 1276ERGO    R316930  11.635  16.820   6.750 -0.0245  0.0556 -0.0718
 1276ERGO    R416931  11.725  16.801   7.028  0.1433 -0.4027 -0.1415
 1276ERGO    R516932  11.603  16.656   6.921 -0.0424 -0.1628 -0.2749
 1276ERGO    C116933  11.368  16.740   7.210  0.2084 -0.3669 -0.0044
 1276ERGO    C216934  11.422  16.691   7.548 -0.0455  0.1325 -0.0477
 1277ERGO   ROH16935   9.067  10.203   7.043 -0.1365 -0.1073  0.1682
 1277ERGO    R116936   9.040  10.269   7.317 -0.1471 -0.0362  0.1500
 1277ERGO    R216937   9.012  10.529   7.405 -0.1902 -0.0167  0.0777
 1277ERGO    R316938   8.789  10.430   7.526 -0.1736 -0.0200  0.1061
 1277ERGO    R416939   8.780  10.718   7.578 -0.1553 -0.0237  0.1329
 1277ERGO    R516940   8.768  10.559   7.727 -0.1358 -0.0366  0.1214
 1277ERGO    C116941   8.436  10.735   7.792 -0.1194 -0.0309  0.1917
 1277ERGO    C216942   8.197  11.038   7.853 -0.3284 -0.0370 -0.0644
 1278ERGO   ROH16943  14.362  19.042   5.998  0.3420  0.0676  0.0582
 1278ERGO    R116944  14.197  19.137   6.207  0.2615  0.1742 -0.0504
 1278ERGO    R216945  14.189  19.017   6.457 -0.0458  0.1249 -0.0749
 1278ERGO    R316946  14.247  19.268   6.543  0.1221  0.0553  0.0161
 1278ERGO    R416947  14.141  19.131   6.779 -0.0106  0.0623 -0.0482
 1278ERGO    R516948  14.071  19.320   6.697  0.1401  0.1363  0.0041
 1278ERGO    C116949  14.167  19.432   7.049  0.1675 -0.0395  0.0527
 1278ERGO    C216950  14.181  19.247   7.315 -0.0748  0.1094  0.0374
 1279ERGO   ROH16951   6.514  10.403   5.888 -0.1922  0.2351 -0.0305
 1279ERGO    R116952   6.627  10.209   6.060 -0.1753  0.1727 -0.1117
 1279ERGO    R216953   6.710  10.269   6.317  0.0324  0.1255 -0.1673
 1279ERGO    R316954   6.545  10.062   6.383 -0.0311  0.2098 -0.0566
 1279ERGO    R416955   6.755  10.059   6.588  0.2509 -0.0472 -0.3340
 1279ERGO    R516956   6.694   9.892   6.462 -0.0401  0.0597 -0.3448
 1279ERGO    C116957   6.628   9.743   6.807  0.3185 -0.0688 -0.3272
 1279ERGO    C216958   6.783   9.784   7.161 -0.1018  0.1849 -0.1808
 1280ERGO   ROH16959   4.097  11.790   6.006 -0.2500 -0.0923  0.1216
 1280ERGO    R116960   4.179  11.690   6.258 -0.2684 -0.2168  0.0784
 1280ERGO    R216961   4.225  11.854   6.475  0.0113 -0.2922  0.0771
 1280ERGO    R316962   4.048  11.688   6.597 -0.1389 -0.0973  0.1311
 1280ERGO    R416963   4.193  11.816   6.817  0.2223 -0.4007  0.0869
 1280ERGO    R516964   4.168  11.602   6.786 -0.1098 -0.3575  0.0020
 1280ERGO    C116965   4.008  11.638   7.131  0.2041 -0.2808  0.1432
 1280ERGO    C216966   3.913  11.631   7.461 -0.0383 -0.2807  0.1403
 1281ERGO   ROH16967   7.613  17.695   6.094 -0.1984 -0.1148  0.0817
 1281ERGO    R116968   7.601  17.492   6.291 -0.2118 -0.1160  0.0800
 1281ERGO    R216969   7.767  17.491   6.513 -0.1127 -0.2056  0.0076
 1281ERGO    R316970   7.531  17.474   6.648 -0.0622 -0.0916  0.1109
 1281ERGO    R416971   7.699  17.264   6.764 -0.1310 -0.2041  0.0039
 1281ERGO    R516972   7.499  17.240   6.682 -0.1819 -0.0778  0.0903
 1281ERGO    C116973   7.439  17.116   7.038 -0.0943 -0.0963  0.0986
 1281ERGO    C216974   7.446  16.919   7.295  0.0885  0.4497 -0.0057
 1282ERGO   ROH16975   7.255  13.939   5.909  0.0033  0.0179 -0.0893
 1282ERGO    R116976   7.399  14.052   6.125 -0.0323  0.0171 -0.0635
 1282ERGO    R216977   7.338  13.999   6.388 -0.0981  0.0411 -0.0681
 1282ERGO    R316978   7.600  13.928   6.402 -0.1104  0.0105 -0.0115
 1282ERGO    R416979   7.516  13.962   6.682 -0.1751 -0.0473 -0.0331
 1282ERGO    R516980   7.686  14.058   6.585 -0.1423 -0.0455  0.0382
 1282ERGO    C116981   7.866  13.874   6.866 -0.2313 -0.1273  0.0404
 1282ERGO    C216982   7.883  13.882   7.261  0.2227 -0.1954 -0.0661
 1283ERGO   ROH16983   3.239   1.762   6.064 -0.0933  0.0411  0.1358
 1283ERGO    R116984   3.425   1.647   6.244  0.0080  0.0278  0.0237
 1283ERGO    R216985   3.698   1.653   6.199 -0.0036  0.1878 -0.0419
 1283ERGO    R316986   3.703   1.765   6.447 -0.0001  0.0484  0.0220
 1283ERGO    R416987   3.984   1.752   6.365 -0.0175  0.2678 -0.0652
 1283ERGO    R516988   3.899   1.674   6.550  0.0846  0.1095 -0.0865
 1283ERGO    C116989   4.156   1.915   6.695 -0.0224  0.1835 -0.0189
 1283ERGO    C216990   4.147   2.169   6.959 -0.0083 -0.0712  0.0644
 1284ERGO   ROH16991  14.327  15.553   6.108 -0.1011  0.0458  0.0167
 1284ERGO    R116992  14.415  15.638   6.363 -0.0573 -0.0169  0.0228
 1284ERGO    R216993  14.435  15.904   6.432 -0.0446 -0.0329  0.0855
 1284ERGO    R316994  14.277  15.828   6.641 -0.0099 -0.0843  0.0926
 1284ERGO    R416995  14.390  16.086   6.723  0.0736 -0.1486  0.1765
 1284ERGO    R516996  14.398  15.899   6.835  0.0564 -0.1987  0.0931
 1284ERGO    C116997  14.217  16.119   7.088  0.1751 -0.2642  0.2361
 1284ERGO    C216998  14.035  16.097   7.299 -0.0996 -0.0841 -0.0816
 1285ERGO   ROH16999   5.943  15.206   6.194  0.2656 -0.2503 -0.0945
 1285ERGO    R117000   5.894  15.188   6.472  0.3212 -0.0416 -0.0702
 1285ERGO    R217001   5.822  14.952   6.596  0.0315  0.1183  0.0684
 1285ERGO    R317002   6.035  15.008   6.755  0.1560 -0.0950 -0.0186
 1285ERGO    R417003   5.875  14.814   6.908 -0.1320  0.2589  0.1601
 1285ERGO    R517004   5.944  15.010   6.977  0.1929  0.2133  0.0021
 1285ERGO    C117005   6.106  14.786   7.240 -0.1103  0.1406  0.1318
 1285ERGO    C217006   5.964  14.689   7.567  0.0557 -0.1698 -0.4139
 1286ERGO   ROH17007   3.267   6.691   6.108 -0.0722  0.0337  0.0028
 1286ERGO    R117008   3.142   6.483   6.253  0.0987 -0.0005  0.1042
 1286ERGO    R217009   3.217   6.415   6.510  0.0161  0.3306  0.2219
 1286ERGO    R317010   2.954   6.453   6.563 -0.0757  0.0389  0.0032
 1286ERGO    R417011   3.054   6.305   6.795 -0.0883  0.1983  0.1124
 1286ERGO    R517012   2.884   6.251   6.671  0.0698 -0.0225 -0.0158
 1286ERGO    C117013   2.712   6.278   7.010 -0.2352 -0.1525 -0.1566
 1286ERGO    C217014   2.691   6.020   7.322  0.0951  0.1269 -0.2166
 1287ERGO   ROH17015   1.357  13.430   6.093 -0.1017 -0.0255  0.0335
 1287ERGO    R117016   1.320  13.507   6.363 -0.0715 -0.0377  0.0416
 1287ERGO    R217017   1.102  13.426   6.512 -0.0319 -0.0838  0.0784
 1287ERGO    R317018   1.293  13.338   6.684  0.0156 -0.0498  0.0422
 1287ERGO    R417019   1.041  13.246   6.801  0.0429  0.0669  0.1889
 1287ERGO    R517020   1.194  13.364   6.901  0.1114  0.0754  0.0707
 1287ERGO    C117021   1.185  13.060   7.131  0.1310  0.1867  0.2192
 1287ERGO    C217022   0.973  12.832   7.338 -0.0565  0.2686  0.2084
 1288ERGO   ROH17023  19.155   0.436   6.245  0.0397  0.1187 -0.0878
 1288ERGO    R117024  19.026   0.557   6.466  0.1664  0.1525 -0.0317
 1288ERGO    R217025  18.825   0.432   6.607  0.0136  0.3079 -0.1096
 1288ERGO    R317026  18.985   0.485   6.820  0.0655  0.0126 -0.0708
 1288ERGO    R417027  18.714   0.478   6.931  0.0659  0.1030 -0.0614
 1288ERGO    R517028  18.859   0.639   6.953  0.1800 -0.0135  0.0713
 1288ERGO    C117029  18.800   0.554   7.320  0.1453 -0.2937  0.0030
 1288ERGO    C217030  18.532   0.531   7.699 -0.0980  0.1588  0.0220
 1289ERGO   ROH17031   9.816   3.804   5.727 -0.1914  0.2031 -0.0062
 1289ERGO    R117032   9.653   3.880   5.945 -0.0623  0.0975  0.1292
 1289ERGO    R217033   9.704   3.800   6.204  0.2324  0.1701  0.0950
 1289ERGO    R317034   9.696   4.067   6.254  0.0596  0.1707  0.0696
 1289ERGO    R417035   9.632   3.941   6.512  0.2435  0.1460  0.1088
 1289ERGO    R517036   9.514   4.093   6.409  0.0950  0.0535  0.1345
 1289ERGO    C117037   9.583   4.274   6.738  0.0879  0.1325  0.0930
 1289ERGO    C217038   9.670   4.570   6.885 -0.0575 -0.1023  0.2815
 1290ERGO   ROH17039  18.428  16.131   5.896  0.1023  0.0639 -0.1441
 1290ERGO    R117040  18.447  16.160   6.177  0.0319 -0.0044 -0.1330
 1290ERGO    R217041  18.664  16.068   6.322  0.0489  0.0714 -0.1202
 1290ERGO    R317042  18.672  16.325   6.411 -0.1023  0.0503 -0.0392
 1290ERGO    R417043  18.793  16.168   6.627  0.1006  0.0557 -0.1359
 1290ERGO    R517044  18.627  16.308   6.646  0.0010 -0.0664 -0.0228
 1290ERGO    C117045  18.876  16.467   6.888 -0.0113  0.0269 -0.0690
 1290ERGO    C217046  19.120  16.455   7.178  0.0574  0.1002  0.4253
 1291ERGO   ROH17047   5.169  10.896   5.484  0.1517 -0.0216  0.0042
 1291ERGO    R117048   5.048  10.750   5.694  0.0986 -0.0931 -0.0769
 1291ERGO    R217049   5.174  10.540   5.820  0.1780  0.0507  0.0698
 1291ERGO    R317050   5.119  10.683   6.044 -0.1552  0.0337  0.0040
 1291ERGO    R417051   5.207  10.420   6.143  0.2120  0.1700  0.1114
 1291ERGO    R517052   5.021  10.522   6.194  0.0142 -0.0942 -0.0065
 1291ERGO    C117053   5.174  10.485   6.541 -0.0811  0.2236  0.0737
 1291ERGO    C217054   5.281  10.357   6.752 -0.1744  0.2459 -0.1607
 1292ERGO   ROH17055   6.056  17.156   5.876  0.1822 -0.0743  0.1762
 1292ERGO    R117056   6.055  17.036   6.132  0.1136  0.0126  0.2174
 1292ERGO    R217057   6.124  17.175   6.361 -0.0438  0.1192  0.2044
 1292ERGO    R317058   5.881  17.089   6.448 -0.0504  0.0539  0.1206
 1292ERGO    R417059   6.005  17.211   6.684 -0.2141  0.1900  0.1343
 1292ERGO    R517060   5.921  17.010   6.670 -0.1260  0.1526  0.1686
 1292ERGO    C117061   5.707  17.151   6.952 -0.3194  0.1698  0.0149
 1292ERGO    C217062   5.621  17.024   7.200 -0.3509  0.0921 -0.3737
 1293ERGO   ROH17063  17.504  16.057   6.489 -0.2606 -0.0728  0.0644
 1293ERGO    R117064  17.649  16.090   6.730 -0.1719 -0.0369  0.0071
 1293ERGO    R217065  17.553  16.238   6.942 -0.0703  0.0423  0.0023
 1293ERGO    R317066  17.600  16.009   7.081 -0.0721  0.0684  0.0450
 1293ERGO    R417067  17.578  16.217   7.286 -0.1962  0.0789  0.0137
 1293ERGO    R517068  17.742  16.076   7.261 -0.1575  0.1151  0.0924
 1293ERGO    C117069  17.636  15.989   7.617 -0.2711  0.1244  0.0606
 1293ERGO    C217070  17.529  15.765   7.856  0.1842  0.0594  0.3810
 1294ERGO   ROH17071   9.062   6.801   5.047  0.1699 -0.1407 -0.1671
 1294ERGO    R117072   9.142   6.818   5.318  0.0675  0.0228 -0.1455
 1294ERGO    R217073   8.961   6.842   5.525 -0.0183  0.0088 -0.2175
 1294ERGO    R317074   9.092   6.624   5.621  0.0753  0.1244 -0.0786
 1294ERGO    R417075   8.892   6.687   5.826 -0.0216  0.1105 -0.1658
 1294ERGO    R517076   9.106   6.662   5.857 -0.0153  0.2430 -0.0910
 1294ERGO    C117077   8.973   6.392   6.092  0.0644  0.2782 -0.0052
 1294ERGO    C217078   8.930   6.136   6.290 -0.1968 -0.1103  0.0953
 1295ERGO   ROH17079  16.031  13.457   6.105  0.1887 -0.0717  0.0690
 1295ERGO    R117080  16.183  13.556   6.323  0.0445 -0.2048  0.2336
 1295ERGO    R217081  16.194  13.824   6.387  0.3846 -0.1815  0.1048
 1295ERGO    R317082  16.116  13.736   6.632 -0.1099  0.0638  0.0464
 1295ERGO    R417083  16.271  13.979   6.687  0.1994 -0.1515  0.1373
 1295ERGO    R517084  16.303  13.782   6.774 -0.2362 -0.1620  0.2911
 1295ERGO    C117085  16.241  13.986   7.091 -0.3727  0.0962  0.1014
 1295ERGO    C217086  16.431  14.175   7.389 -0.2538  0.4211 -0.2084
 1296ERGO   ROH17087   2.010   1.522   6.080 -0.1035  0.1202 -0.0702
 1296ERGO    R117088   2.103   1.610   6.333 -0.0135  0.0044 -0.0621
 1296ERGO    R217089   2.276   1.460   6.488  0.0046 -0.0890 -0.1702
 1296ERGO    R317090   2.425   1.688   6.484  0.0455 -0.1148 -0.1249
 1296ERGO    R417091   2.498   1.555   6.735  0.0472 -0.1935 -0.1679
 1296ERGO    R517092   2.428   1.760   6.712  0.0822 -0.1752 -0.1065
 1296ERGO    C117093   2.768   1.824   6.875  0.1103 -0.2786 -0.1240
 1296ERGO    C217094   3.038   1.679   7.043  0.1397 -0.1870 -0.0522
 1297ERGO   ROH17095   5.549  18.103   5.697 -0.0617 -0.0228 -0.0782
 1297ERGO    R117096   5.480  18.317   5.868 -0.0914 -0.0796 -0.0187
 1297ERGO    R217097   5.224  18.352   5.966 -0.1202 -0.0836 -0.0914
 1297ERGO    R317098   5.350  18.353   6.207 -0.2011 -0.1932 -0.0479
 1297ERGO    R417099   5.123  18.535   6.242  0.0144  0.1067 -0.1667
 1297ERGO    R517100   5.333  18.580   6.282  0.0602 -0.1509 -0.1046
 1297ERGO    C117101   5.184  18.642   6.628  0.0168  0.1144 -0.1697
 1297ERGO    C217102   5.097  18.758   6.924 -0.3758 -0.1479  0.1150
 1298ERGO   ROH17103   5.637   0.878   6.066 -0.1731  0.0329  0.0750
 1298ERGO    R117104   5.607   0.934   6.341 -0.0268  0.2557  0.0483
 1298ERGO    R217105   5.567   0.735   6.530 -0.2431  0.4281  0.1892
 1298ERGO    R317106   5.783   0.850   6.649 -0.0545  0.2212  0.0547
 1298ERGO    R417107   5.708   0.630   6.827 -0.1354  0.2762  0.0862
 1298ERGO    R517108   5.735   0.839   6.883  0.0944  0.2481  0.0872
 1298ERGO    C117109   5.993   0.676   7.112  0.1043 -0.0065 -0.1000
 1298ERGO    C217110   5.923   0.550   7.511  0.1277 -0.2132  0.0125
 1299ERGO   ROH17111  18.952  17.799   6.300  0.1941  0.1008  0.1035
 1299ERGO    R117112  18.889  17.922   6.547  0.1703  0.0814  0.1068
 1299ERGO    R217113  18.892  17.784   6.787  0.0796  0.0462  0.0862
 1299ERGO    R317114  19.059  17.985   6.862  0.1146 -0.0085  0.1562
 1299ERGO    R417115  18.984  17.854   7.112 -0.0802  0.0457  0.1322
 1299ERGO    R517116  18.967  18.066   7.067  0.0261  0.0498  0.0962
 1299ERGO    C117117  19.194  18.082   7.373 -0.1404 -0.0058  0.2248
 1299ERGO    C217118  19.345  18.009   7.711 -0.0783  0.1491  0.1068
 1300ERGO   ROH17119  16.810  10.094   5.614  0.3435 -0.2104 -0.0672
 1300ERGO    R117120  16.853   9.921   5.834 -0.0060 -0.2997 -0.0640
 1300ERGO    R217121  16.910  10.015   6.088  0.1914 -0.4064 -0.0689
 1300ERGO    R317122  16.696   9.861   6.157 -0.1307  0.0253 -0.0602
 1300ERGO    R417123  16.812   9.944   6.412  0.0945 -0.2627 -0.0649
 1300ERGO    R517124  16.769   9.740   6.350 -0.3489 -0.1688 -0.0953
 1300ERGO    C117125  16.555   9.758   6.665 -0.2641  0.2263 -0.0544
 1300ERGO    C217126  16.411   9.829   6.954  0.1105 -0.0370  0.2745
 1301ERGO   ROH17127   4.439   5.340   5.524  0.2021 -0.1791 -0.0206
 1301ERGO    R117128   4.625   5.415   5.724  0.0453 -0.0595  0.0782
 1301ERGO    R217129   4.735   5.669   5.738 -0.0001 -0.0566  0.0282
 1301ERGO    R317130   4.640   5.660   5.993 -0.1676  0.0765 -0.0242
 1301ERGO    R417131   4.890   5.810   6.012 -0.0669 -0.0386  0.0605
 1301ERGO    R517132   4.835   5.634   6.128 -0.2397  0.0112  0.0954
 1301ERGO    C117133   4.892   5.884   6.411 -0.2632  0.0967  0.0301
 1301ERGO    C217134   4.932   5.998   6.648 -0.2007 -0.1662  0.0479
 1302ERGO   ROH17135   8.004   8.035   5.426  0.0473 -0.0277  0.2561
 1302ERGO    R117136   8.011   8.074   5.706  0.0085  0.0344  0.2491
 1302ERGO    R217137   7.785   8.135   5.853 -0.0454 -0.1039  0.2299
 1302ERGO    R317138   7.860   7.918   5.998  0.1135 -0.0206  0.2735
 1302ERGO    R417139   7.693   8.073   6.181  0.0306 -0.0929  0.2529
 1302ERGO    R517140   7.895   8.002   6.219  0.0801  0.0508  0.2496
 1302ERGO    C117141   7.711   7.833   6.507  0.2242 -0.0083  0.3073
 1302ERGO    C217142   7.584   7.836   6.907  0.1439  0.0149  0.3440
 1303ERGO   ROH17143  11.378   1.161   5.626  0.0059  0.2586  0.0136
 1303ERGO    R117144  11.480   1.295   5.855  0.0557  0.2181  0.0154
 1303ERGO    R217145  11.648   1.513   5.837  0.0195  0.2463  0.0169
 1303ERGO    R317146  11.461   1.630   5.995  0.0503  0.1820  0.1017
 1303ERGO    R417147  11.689   1.814   6.002 -0.0044  0.2546  0.0077
 1303ERGO    R517148  11.586   1.728   6.174  0.0971  0.2166  0.0502
 1303ERGO    C117149  11.537   2.099   6.246  0.0104  0.1990  0.0820
 1303ERGO    C217150  11.601   2.396   6.269 -0.1409 -0.0034  0.1049
 1304ERGO   ROH17151   6.577  12.155   6.191  0.0716 -0.3350 -0.0706
 1304ERGO    R117152   6.635  12.055   6.449  0.0962 -0.0931  0.0204
 1304ERGO    R217153   6.735  12.214   6.651 -0.0688  0.1413 -0.0781
 1304ERGO    R317154   6.522  12.118   6.789 -0.0241  0.0805 -0.0503
 1304ERGO    R417155   6.714  12.199   6.996 -0.0932  0.3035 -0.0717
 1304ERGO    R517156   6.619  12.004   6.976  0.0279  0.2343  0.0181
 1304ERGO    C117157   6.501  12.100   7.326 -0.0654  0.3409 -0.0419
 1304ERGO    C217158   6.626  12.158   7.682 -0.0113 -0.1075 -0.1503
 1305ERGO   ROH17159  12.558  12.801   6.060 -0.1093  0.1369 -0.1055
 1305ERGO    R117160  12.670  12.835   6.318  0.0481  0.1323 -0.1710
 1305ERGO    R217161  12.753  13.080   6.413 -0.0749  0.1689 -0.1423
 1305ERGO    R317162  12.587  13.020   6.620  0.1129 -0.0377 -0.0488
 1305ERGO    R417163  12.771  13.221   6.728  0.0559  0.0252 -0.0852
 1305ERGO    R517164  12.729  13.025   6.813  0.2452 -0.0405 -0.1483
 1305ERGO    C117165  12.626  13.247   7.106  0.3085 -0.2525  0.0358
 1305ERGO    C217166  12.786  13.323   7.454  0.1575 -0.0175  0.0266
 1306ERGO   ROH17167   8.740  17.119   6.032 -0.0592 -0.1411  0.0103
 1306ERGO    R117168   8.622  17.208   6.273 -0.1359 -0.0293 -0.0672
 1306ERGO    R217169   8.755  17.204   6.516 -0.2888 -0.1331  0.0202
 1306ERGO    R317170   8.687  17.467   6.521 -0.0675 -0.0738 -0.0398
 1306ERGO    R417171   8.738  17.398   6.801 -0.4301 -0.1306  0.0104
 1306ERGO    R517172   8.558  17.492   6.721 -0.2630  0.0290 -0.1784
 1306ERGO    C117173   8.665  17.758   6.972 -0.3048 -0.0736 -0.0516
 1306ERGO    C217174   8.695  17.994   7.192  0.1231 -0.1066  0.2134
 1307ERGO   ROH17175  16.380  11.506   6.048 -0.1888  0.1144  0.1020
 1307ERGO    R117176  16.506  11.612   6.279 -0.0992  0.0240  0.0950
 1307ERGO    R217177  16.363  11.706   6.496 -0.0149 -0.0365  0.1749
 1307ERGO    R317178  16.519  11.531   6.633  0.0169 -0.0972  0.0640
 1307ERGO    R417179  16.389  11.693   6.840  0.0923 -0.1590  0.1633
 1307ERGO    R517180  16.603  11.658   6.818  0.0843 -0.1667  0.0832
 1307ERGO    C117181  16.551  11.521   7.170  0.1842 -0.2871  0.0524
 1307ERGO    C217182  16.674  11.568   7.551  0.0997 -0.0278 -0.1042
 1308ERGO   ROH17183  13.492   4.602   5.647 -0.1236  0.1998 -0.0140
 1308ERGO    R117184  13.499   4.695   5.914 -0.2464  0.0689  0.0355
 1308ERGO    R217185  13.328   4.599   6.110 -0.0933 -0.2925 -0.0035
 1308ERGO    R317186  13.560   4.552   6.243 -0.0096 -0.0171 -0.0440
 1308ERGO    R417187  13.358   4.568   6.453  0.0088 -0.2214 -0.0048
 1308ERGO    R517188  13.543   4.681   6.443 -0.1171 -0.0116 -0.0547
 1308ERGO    C117189  13.593   4.505   6.777  0.1470  0.0786 -0.0436
 1308ERGO    C217190  13.456   4.396   7.021 -0.1068 -0.0153  0.0634
 1309ERGO   ROH17191   9.053  15.697   6.150  0.1552  0.0463  0.1120
 1309ERGO    R117192   8.889  15.579   6.348  0.0298 -0.0135 -0.0248
 1309ERGO    R217193   8.989  15.485   6.588 -0.1162 -0.1091  0.0040
 1309ERGO    R317194   8.799  15.649   6.694 -0.1644 -0.1305 -0.0508
 1309ERGO    R417195   8.819  15.426   6.883 -0.0974 -0.0555  0.0249
 1309ERGO    R517196   8.638  15.500   6.788 -0.1184 -0.1440  0.0022
 1309ERGO    C117197   8.542  15.545   7.155 -0.1317 -0.0443 -0.0144
 1309ERGO    C217198   8.475  15.506   7.573 -0.0741 -0.0285 -0.0794
 1310ERGO   ROH17199   3.940  15.125   5.885  0.1764 -0.1625 -0.2355
 1310ERGO    R117200   4.038  15.097   6.149  0.1171 -0.0340 -0.1995
 1310ERGO    R217201   3.878  15.020   6.361  0.0753  0.0456 -0.2030
 1310ERGO    R317202   4.068  14.829   6.393  0.0871  0.0784 -0.0710
 1310ERGO    R417203   3.935  14.845   6.653 -0.1601 -0.0105 -0.1885
 1310ERGO    R517204   4.148  14.862   6.616 -0.1268  0.0441  0.0139
 1310ERGO    C117205   4.147  14.564   6.854 -0.2862 -0.0123 -0.0561
 1310ERGO    C217206   4.127  14.405   7.135  0.2403 -0.0310  0.0113
 1311ERGO   ROH17207   5.332  13.153   6.126  0.1030 -0.2596 -0.0304
 1311ERGO    R117208   5.413  13.194   6.394  0.0809 -0.2402 -0.0286
 1311ERGO    R217209   5.677  13.228   6.466  0.0409  0.0697 -0.0519
 1311ERGO    R317210   5.583  13.455   6.582 -0.2256 -0.0810  0.0401
 1311ERGO    R417211   5.763  13.338   6.782  0.1848  0.1913 -0.1306
 1311ERGO    R517212   5.555  13.396   6.813  0.0994 -0.1491  0.0754
 1311ERGO    C117213   5.725  13.615   7.075  0.0183  0.1204 -0.0901
 1311ERGO    C217214   5.856  13.760   7.348  0.1976  0.4118 -0.2555
 1312ERGO   ROH17215  15.489   4.183   6.171  0.2498  0.1656 -0.0912
 1312ERGO    R117216  15.491   4.426   6.316  0.1745  0.0602  0.0893
 1312ERGO    R217217  15.270   4.519   6.453  0.1182 -0.0637  0.0759
 1312ERGO    R317218  15.444   4.529   6.662  0.0391 -0.1953  0.1503
 1312ERGO    R417219  15.229   4.714   6.736 -0.0113 -0.2599  0.1961
 1312ERGO    R517220  15.443   4.758   6.730 -0.0075 -0.2374  0.3075
 1312ERGO    C117221  15.369   4.837   7.096 -0.1610 -0.4978  0.3358
 1312ERGO    C217222  15.484   5.071   7.331  0.0802  0.0335 -0.1099
 1313ERGO   ROH17223   9.098   1.382   5.762 -0.0932 -0.1218 -0.0513
 1313ERGO    R117224   9.009   1.361   6.030 -0.1238 -0.0957 -0.0578
 1313ERGO    R217225   9.113   1.515   6.234  0.0119 -0.2275 -0.0169
 1313ERGO    R317226   8.852   1.580   6.274  0.0667  0.0017 -0.0231
 1313ERGO    R417227   8.972   1.587   6.542  0.0384 -0.2077 -0.0108
 1313ERGO    R517228   8.796   1.474   6.482 -0.0586 -0.0192 -0.0711
 1313ERGO    C117229   8.646   1.689   6.759  0.1053  0.0191 -0.0131
 1313ERGO    C217230   8.273   1.669   6.962  0.2402 -0.0628  0.4290
 1314ERGO   ROH17231   3.865  11.459   5.748  0.1385  0.0783  0.1031
 1314ERGO    R117232   3.765  11.400   6.006  0.0413  0.2553  0.1078
 1314ERGO    R217233   3.854  11.184   6.154 -0.2903  0.1295  0.1290
 1314ERGO    R317234   3.901  11.373   6.343 -0.0012  0.0786  0.1128
 1314ERGO    R417235   3.872  11.123   6.494 -0.4007  0.1274  0.1347
 1314ERGO    R517236   3.762  11.309   6.527 -0.1158  0.3086  0.1126
 1314ERGO    C117237   3.926  11.266   6.869 -0.1936  0.0784  0.1227
 1314ERGO    C217238   4.099  11.129   7.142 -0.0413 -0.2007 -0.2194
 1315ERGO   ROH17239  15.492  15.760   6.054 -0.2177  0.0170 -0.0052
 1315ERGO    R117240  15.500  15.904   6.298 -0.1268 -0.0514  0.0327
 1315ERGO    R217241  15.309  15.875   6.495 -0.0923 -0.0542  0.0654
 1315ERGO    R317242  15.525  15.825   6.652 -0.0714 -0.1545  0.0061
 1315ERGO    R417243  15.309  15.890   6.840 -0.0502 -0.2814  0.0771
 1315ERGO    R517244  15.506  15.983   6.831 -0.0524 -0.2712  0.1137
 1315ERGO    C117245  15.513  15.852   7.189 -0.0062 -0.5080  0.0283
 1315ERGO    C217246  15.556  15.899   7.561 -0.0050  0.2082  0.2703
 1316ERGO   ROH17247   6.077  14.070   7.673 -0.0807 -0.1282  0.3789
 1316ERGO    R117248   5.812  14.100   7.767 -0.1441 -0.0405  0.1776
 1316ERGO    R217249   5.707  14.346   7.837 -0.1022 -0.0107  0.1386
 1316ERGO    R317250   5.512  14.276   7.660  0.0075  0.0976 -0.0274
 1316ERGO    R417251   5.432  14.541   7.759 -0.1115 -0.0112  0.1705
 1316ERGO    R517252   5.310  14.360   7.759 -0.0660 -0.0432 -0.0566
 1316ERGO    C117253   5.090  14.590   7.548 -0.0140  0.0902  0.0335
 1316ERGO    C217254   4.957  14.796   7.198 -0.0050 -0.3244 -0.0936
 1317ERGO   ROH17255  17.112  14.324   6.075 -0.2425  0.1488  0.0193
 1317ERGO    R117256  17.142  14.441   6.331 -0.1812  0.1154  0.0273
 1317ERGO    R217257  16.929  14.549   6.470 -0.1609  0.0243  0.1264
 1317ERGO    R317258  17.013  14.380   6.666 -0.0323  0.0197  0.0686
 1317ERGO    R417259  16.908  14.614   6.809 -0.0268 -0.0177  0.1436
 1317ERGO    R517260  17.105  14.525   6.833  0.0083  0.0253  0.0445
 1317ERGO    C117261  16.974  14.493   7.190  0.1719 -0.0464  0.0994
 1317ERGO    C217262  16.996  14.409   7.535 -0.0143  0.0575 -0.3603
 1318ERGO   ROH17263  11.729   7.981   5.575 -0.1832 -0.2104 -0.0076
 1318ERGO    R117264  11.833   8.108   5.805 -0.1043 -0.2359 -0.0289
 1318ERGO    R217265  11.677   8.174   6.023 -0.0602 -0.1167 -0.0340
 1318ERGO    R317266  11.863   8.030   6.160 -0.1365 -0.2009 -0.0179
 1318ERGO    R417267  11.742   8.208   6.360  0.2592  0.2150 -0.1229
 1318ERGO    R517268  11.955   8.187   6.316  0.2030 -0.1227 -0.2813
 1318ERGO    C117269  11.955   8.092   6.686  0.3734  0.3289 -0.1595
 1318ERGO    C217270  12.245   7.996   6.937  0.0057 -0.3811 -0.1087
 1319ERGO   ROH17271   2.541   7.190   6.282 -0.0713  0.2424  0.0137
 1319ERGO    R117272   2.325   7.215   6.464 -0.1023 -0.1434  0.0379
 1319ERGO    R217273   2.199   6.996   6.576  0.3697 -0.3788  0.1416
 1319ERGO    R317274   2.258   7.122   6.809  0.1503 -0.1614  0.0829
 1319ERGO    R417275   2.048   6.929   6.879  0.2645 -0.2673  0.1139
 1319ERGO    R517276   2.046   7.144   6.920  0.0780 -0.2400 -0.0428
 1319ERGO    C117277   2.015   7.009   7.275 -0.0028  0.0017  0.0428
 1319ERGO    C217278   2.014   6.851   7.623 -0.2446 -0.0144 -0.1850
 1320ERGO   ROH17279  17.488   8.458   6.004 -0.0434  0.0043 -0.1667
 1320ERGO    R117280  17.455   8.349   6.263 -0.0937  0.0121 -0.1708
 1320ERGO    R217281  17.635   8.171   6.374 -0.1444 -0.0234 -0.1534
 1320ERGO    R317282  17.639   8.352   6.577 -0.1275 -0.0263 -0.1497
 1320ERGO    R417283  17.679   8.092   6.708 -0.0647 -0.0269 -0.1637
 1320ERGO    R517284  17.527   8.241   6.758 -0.0767 -0.0475 -0.1288
 1320ERGO    C117285  17.709   8.216   7.093 -0.0024 -0.0316 -0.1661
 1320ERGO    C217286  17.554   8.096   7.443  0.0147 -0.1542 -0.2113
 1321ERGO   ROH17287  15.795   3.581   5.979 -0.1375 -0.0208  0.1189
 1321ERGO    R117288  15.663   3.467   6.203 -0.0164 -0.1101  0.1462
 1321ERGO    R217289  15.796   3.318   6.394  0.1489  0.0865  0.1889
 1321ERGO    R317290  15.684   3.497   6.565 -0.0551  0.0093  0.1390
 1321ERGO    R417291  15.710   3.251   6.722  0.0877  0.0388  0.1631
 1321ERGO    R517292  15.529   3.368   6.693  0.0028 -0.1078  0.0925
 1321ERGO    C117293  15.555   3.380   7.073 -0.1393 -0.0614  0.1013
 1321ERGO    C217294  15.376   3.297   7.505  0.0535  0.2247 -0.0897
 1322ERGO   ROH17295  10.315  12.183   5.684 -0.2319 -0.1843 -0.1338
 1322ERGO    R117296  10.372  12.057   5.931  0.0513 -0.1151 -0.1600
 1322ERGO    R217297  10.451  12.197   6.155 -0.1034  0.0005 -0.1701
 1322ERGO    R317298  10.242  12.068   6.270  0.1336 -0.3508 -0.1207
 1322ERGO    R417299  10.411  12.154   6.495 -0.2529  0.4665 -0.1225
 1322ERGO    R517300  10.340  11.951   6.456  0.2989  0.2051  0.1573
 1322ERGO    C117301  10.191  12.008   6.802 -0.1175  0.4081 -0.0484
 1322ERGO    C217302  10.064  11.983   7.001  0.1492 -0.0017  0.3801
 1323ERGO   ROH17303   1.153   9.333   5.860 -0.0702  0.1349  0.0899
 1323ERGO    R117304   1.372   9.389   6.031 -0.0682  0.1714  0.0750
 1323ERGO    R217305   1.338   9.490   6.287 -0.0701  0.1342  0.0888
 1323ERGO    R317306   1.488   9.274   6.357 -0.0076  0.1646  0.0513
 1323ERGO    R417307   1.545   9.473   6.564 -0.1528  0.1054  0.1494
 1323ERGO    R517308   1.691   9.367   6.442 -0.0711  0.2108  0.1541
 1323ERGO    C117309   1.805   9.260   6.790 -0.1423  0.1170  0.1494
 1323ERGO    C217310   2.044   9.166   7.069  0.3743 -0.1327 -0.3501
 1324ERGO   ROH17311   0.746  10.370   5.976 -0.0740 -0.3103  0.0140
 1324ERGO    R117312   0.765  10.216   6.213  0.1078 -0.2140  0.0634
 1324ERGO    R217313   0.949  10.271   6.412  0.0531  0.0589  0.0407
 1324ERGO    R317314   0.728  10.274   6.570  0.0519 -0.1405  0.0463
 1324ERGO    R417315   0.940  10.162   6.739  0.2484  0.3607  0.1513
 1324ERGO    R517316   0.745  10.073   6.699  0.3831  0.0048  0.2439
 1324ERGO    C117317   0.727  10.101   7.079  0.3609  0.3491  0.2210
 1324ERGO    C217318   0.759  10.085   7.408  0.0513 -0.2665  0.2170
 1325ERGO   ROH17319   3.687  15.324   7.358  0.0054  0.0036  0.1058
 1325ERGO    R117320   3.767  15.293   7.628 -0.0106 -0.2409  0.0854
 1325ERGO    R217321   3.702  15.477   7.824  0.2803 -0.2303  0.1767
 1325ERGO    R317322   3.602  15.258   7.951 -0.0343 -0.1454  0.0841
 1325ERGO    R417323   3.680  15.442   8.167  0.1353 -0.3026  0.1604
 1325ERGO    R517324   3.742  15.233   8.144 -0.1197 -0.3779  0.1195
 1325ERGO    C117325   3.573  15.216   8.486 -0.2446 -0.2650  0.0641
 1325ERGO    C217326   3.522  15.194   8.839  0.2086 -0.0567  0.2047
 1326ERGO   ROH17327   8.646  11.139   5.734 -0.2774  0.1436  0.2175
 1326ERGO    R117328   8.546  11.191   5.993 -0.0785  0.2329  0.2786
 1326ERGO    R217329   8.487  10.990   6.174 -0.1634  0.2821  0.3073
 1326ERGO    R317330   8.654  11.131   6.336  0.0657  0.1235  0.2148
 1326ERGO    R417331   8.532  10.930   6.511 -0.0352  0.2425  0.2833
 1326ERGO    R517332   8.536  11.146   6.544  0.1931  0.2412  0.2801
 1326ERGO    C117333   8.715  11.028   6.860  0.2545  0.0705  0.1826
 1326ERGO    C217334   8.941  10.956   7.162 -0.2865 -0.0464  0.0904
 1327ERGO   ROH17335  16.341  18.332   5.883 -0.0384  0.1142  0.0162
 1327ERGO    R117336  16.277  18.463   6.126 -0.0671 -0.0186  0.0817
 1327ERGO    R217337  16.125  18.343   6.324  0.0571 -0.1951  0.0774
 1327ERGO    R317338  16.338  18.407   6.480  0.0559 -0.1137  0.0452
 1327ERGO    R417339  16.123  18.347   6.669  0.0621 -0.0174  0.0759
 1327ERGO    R517340  16.244  18.528   6.664  0.0589 -0.0216 -0.0165
 1327ERGO    C117341  16.322  18.408   7.017  0.0638  0.1628  0.0447
 1327ERGO    C217342  16.421  18.208   7.315 -0.1520  0.0814  0.0369
 1328ERGO   ROH17343  18.131  14.251   6.166  0.0671  0.1404 -0.1040
 1328ERGO    R117344  18.134  14.196   6.443  0.1178  0.0332 -0.1252
 1328ERGO    R217345  18.368  14.165   6.587  0.1475  0.1715 -0.1442
 1328ERGO    R317346  18.260  14.359   6.744 -0.0111  0.0216 -0.0638
 1328ERGO    R417347  18.476  14.244   6.905  0.2177  0.2628 -0.1900
 1328ERGO    R517348  18.268  14.267   6.965  0.2160 -0.0002 -0.0782
 1328ERGO    C117349  18.439  14.472   7.238  0.1097  0.1753 -0.1412
 1328ERGO    C217350  18.777  14.423   7.429 -0.0396 -0.0614  0.0882
 1329ERGO   ROH17351   7.075   5.480   5.590 -0.3223  0.0186  0.0976
 1329ERGO    R117352   7.158   5.483   5.860 -0.4838 -0.1399  0.1495
 1329ERGO    R217353   7.050   5.314   6.051 -0.1514 -0.7062 -0.1504
 1329ERGO    R317354   7.310   5.248   6.092  0.0173 -0.0760 -0.0967
 1329ERGO    R417355   7.171   5.143   6.327  0.1896 -0.4275 -0.1185
 1329ERGO    R517356   7.343   5.276   6.328 -0.1119  0.0082 -0.0778
 1329ERGO    C117357   7.485   4.982   6.525  0.5465  0.3263 -0.0496
 1329ERGO    C217358   7.623   4.774   6.777 -0.0716 -0.0240 -0.0085
 1330ERGO   ROH17359   3.081   9.227   5.903 -0.0773  0.0002  0.2471
 1330ERGO    R117360   3.334   9.196   6.026 -0.1108  0.1019  0.3386
 1330ERGO    R217361   3.363   9.146   6.296 -0.2131 -0.2731  0.2754
 1330ERGO    R317362   3.508   8.934   6.208  0.0891  0.0167  0.0402
 1330ERGO    R417363   3.650   9.027   6.447 -0.3272 -0.3204  0.4612
 1330ERGO    R517364   3.736   8.997   6.250 -0.0099  0.1493  0.4954
 1330ERGO    C117365   3.954   8.759   6.454 -0.1099 -0.0760  0.3485
 1330ERGO    C217366   4.171   8.466   6.522 -0.1036  0.1361  0.3001
 1331ERGO   ROH17367  11.996   2.775   7.347  0.1180  0.0110  0.0516
 1331ERGO    R117368  11.818   2.559   7.308  0.0634  0.0557  0.0610
 1331ERGO    R217369  11.901   2.313   7.215 -0.0195  0.0727 -0.0430
 1331ERGO    R317370  11.777   2.222   7.440  0.0521  0.0227 -0.0217
 1331ERGO    R417371  11.718   2.020   7.235 -0.0422  0.0839 -0.0681
 1331ERGO    R517372  11.573   2.125   7.360  0.0101  0.0674  0.0177
 1331ERGO    C117373  11.496   1.765   7.458  0.0119  0.0434 -0.0628
 1331ERGO    C217374  11.637   1.359   7.475 -0.2420 -0.2271 -0.3554
 1332ERGO   ROH17375   9.540  17.345   5.985  0.0540  0.1678 -0.1105
 1332ERGO    R117376   9.691  17.224   6.192  0.0084  0.2026 -0.0567
 1332ERGO    R217377   9.754  17.355   6.426 -0.1063  0.2163 -0.0342
 1332ERGO    R317378   9.639  17.138   6.541 -0.0962  0.1893 -0.0749
 1332ERGO    R417379   9.721  17.308   6.767 -0.1757  0.1923 -0.0442
 1332ERGO    R517380   9.771  17.097   6.737 -0.1327  0.2011 -0.0462
 1332ERGO    C117381   9.592  17.076   7.073 -0.2067  0.1529 -0.0882
 1332ERGO    C217382   9.607  17.005   7.306 -0.0830 -0.0416 -0.1131
 1333ERGO   ROH17383  12.440   4.230   5.591  0.0075  0.1347 -0.0688
 1333ERGO    R117384  12.265   4.167   5.805 -0.2414  0.2769 -0.2257
 1333ERGO    R217385  12.355   4.121   6.062 -0.4560 -0.2548 -0.2325
 1333ERGO    R317386  12.176   4.316   6.125 -0.0342  0.1018 -0.0844
 1333ERGO    R417387  12.204   4.158   6.371 -0.4153 -0.1922 -0.2203
 1333ERGO    R517388  12.018   4.207   6.268 -0.3029  0.3217 -0.2057
 1333ERGO    C117389  11.948   4.363   6.610  0.0045  0.1792 -0.0742
 1333ERGO    C217390  11.890   4.478   6.893 -0.1474 -0.1718 -0.0394
 1334ERGO   ROH17391  11.897  17.333   5.946  0.0123 -0.0777  0.0934
 1334ERGO    R117392  11.765  17.479   6.150  0.0026  0.0262  0.0121
 1334ERGO    R217393  11.693  17.367   6.391 -0.0861  0.1280  0.0296
 1334ERGO    R317394  11.835  17.574   6.494 -0.0577  0.1250 -0.0013
 1334ERGO    R417395  11.720  17.439   6.728  0.0038  0.1056  0.0277
 1334ERGO    R517396  11.702  17.651   6.678 -0.0121  0.1125  0.0413
 1334ERGO    C117397  11.869  17.677   7.021  0.0829  0.0894 -0.0024
 1334ERGO    C217398  11.988  17.924   7.297 -0.0668  0.2758  0.3060
 1335ERGO   ROH17399   2.081  14.342   5.751  0.2184 -0.3173  0.0304
 1335ERGO    R117400   2.106  14.199   5.994  0.2451 -0.2045  0.0969
 1335ERGO    R217401   2.202  14.315   6.225  0.1320 -0.0509  0.0805
 1335ERGO    R317402   1.968  14.223   6.330  0.1541 -0.1357  0.0521
 1335ERGO    R417403   2.155  14.230   6.557  0.1371 -0.1897  0.0449
 1335ERGO    R517404   2.036  14.059   6.491  0.1750 -0.1793 -0.0133
 1335ERGO    C117405   1.908  14.094   6.848  0.1609 -0.3503 -0.0026
 1335ERGO    C217406   1.845  14.069   7.225 -0.0911 -0.0887  0.2230
 1336ERGO   ROH17407  17.957   5.931   5.990  0.1638 -0.0691 -0.2529
 1336ERGO    R117408  18.188   5.916   6.153  0.0412  0.0515 -0.0625
 1336ERGO    R217409  18.234   6.088   6.364 -0.2133  0.0868 -0.0321
 1336ERGO    R317410  18.261   5.857   6.505 -0.2176  0.1069  0.0018
 1336ERGO    R417411  18.314   6.069   6.700 -0.2155  0.1311 -0.0290
 1336ERGO    R517412  18.443   5.899   6.655 -0.2190  0.1238 -0.0033
 1336ERGO    C117413  18.386   5.841   7.027 -0.2210  0.1758  0.0046
 1336ERGO    C217414  18.615   5.600   7.257  0.0864  0.1196 -0.0285
 1337ERGO   ROH17415  14.826  19.151   5.837  0.0027 -0.1489  0.0042
 1337ERGO    R117416  14.771  19.008   6.075 -0.0597 -0.0564  0.0461
 1337ERGO    R217417  14.901  19.059   6.313 -0.0880  0.0044  0.0488
 1337ERGO    R317418  14.648  19.086   6.408 -0.0985  0.0818 -0.0001
 1337ERGO    R417419  14.771  18.885   6.582 -0.2527 -0.0961 -0.0938
 1337ERGO    R517420  14.584  18.864   6.472 -0.2365  0.0748 -0.1562
 1337ERGO    C117421  14.458  18.809   6.828 -0.3584 -0.0820 -0.2228
 1337ERGO    C217422  14.381  18.788   7.158 -0.2788 -0.2459 -0.2040
 1338ERGO   ROH17423   6.467  13.859   8.247 -0.0507 -0.0888  0.0137
 1338ERGO    R117424   6.374  13.888   7.982 -0.0277  0.0589  0.0217
 1338ERGO    R217425   6.540  13.963   7.774  0.0165  0.0458  0.0560
 1338ERGO    R317426   6.444  13.736   7.658 -0.1026  0.1407 -0.0347
 1338ERGO    R417427   6.649  13.833   7.472  0.3018 -0.1410  0.2352
 1338ERGO    R517428   6.442  13.785   7.424  0.3003  0.1073 -0.0552
 1338ERGO    C117429   6.623  13.545   7.189  0.3560 -0.1606  0.2543
 1338ERGO    C217430   6.924  13.466   6.971 -0.0707  0.1005  0.0901
 1339ERGO   ROH17431  14.631  10.861   5.874  0.0500  0.0321 -0.1128
 1339ERGO    R117432  14.608  10.890   6.155  0.0357  0.0624 -0.1174
 1339ERGO    R217433  14.819  10.970   6.314  0.0231  0.0903 -0.1180
 1339ERGO    R317434  14.642  11.160   6.396  0.0107  0.0910 -0.1447
 1339ERGO    R417435  14.896  11.235   6.523  0.0103  0.1220 -0.1528
 1339ERGO    R517436  14.705  11.205   6.623  0.0093  0.1235 -0.1486
 1339ERGO    C117437  14.776  11.567   6.722 -0.0088  0.1410 -0.1980
 1339ERGO    C217438  14.929  11.859   6.871  0.2763 -0.0979  0.3396
 1340ERGO   ROH17439   5.279   2.577   5.800  0.3278  0.0684  0.0403
 1340ERGO    R117440   5.176   2.640   6.056  0.0984  0.0872 -0.0534
 1340ERGO    R217441   5.339   2.704   6.270 -0.0900  0.0675  0.0972
 1340ERGO    R317442   5.184   2.926   6.281 -0.0703  0.0898 -0.0491
 1340ERGO    R417443   5.207   2.837   6.560 -0.1738  0.1994 -0.0003
 1340ERGO    R517444   5.022   2.877   6.451 -0.1341  0.1749 -0.0820
 1340ERGO    C117445   4.983   3.123   6.739 -0.2041  0.2970 -0.1946
 1340ERGO    C217446   5.192   3.360   6.983 -0.0642 -0.0039 -0.1266
 1341ERGO   ROH17447   0.640   4.619   6.008  0.1457 -0.1959  0.0624
 1341ERGO    R117448   0.518   4.671   6.259  0.1061 -0.0495  0.0134
 1341ERGO    R217449   0.261   4.590   6.319  0.1010 -0.0197  0.0221
 1341ERGO    R317450   0.383   4.474   6.533  0.0691  0.1110  0.1129
 1341ERGO    R417451   0.114   4.542   6.628 -0.0876 -0.1817 -0.0901
 1341ERGO    R517452   0.303   4.598   6.721 -0.2139  0.0268  0.0559
 1341ERGO    C117453   0.142   4.406   7.009 -0.2274 -0.1533 -0.0702
 1341ERGO    C217454  -0.111   4.533   7.141 -0.0644 -0.1463  0.1241
 1342ERGO   ROH17455   5.963  11.674   5.709 -0.0372 -0.1187 -0.0220
 1342ERGO    R117456   6.073  11.699   5.969 -0.2878 -0.2470  0.1009
 1342ERGO    R217457   6.175  11.938   6.065  0.2258 -0.4369  0.0628
 1342ERGO    R317458   6.001  11.892   6.269 -0.1667  0.1439 -0.1140
 1342ERGO    R417459   6.211  12.059   6.387  0.1825 -0.3882  0.0495
 1342ERGO    R517460   6.141  11.867   6.462 -0.4581 -0.1702  0.0664
 1342ERGO    C117461   6.069  12.086   6.766 -0.2113  0.1853 -0.1241
 1342ERGO    C217462   5.968  12.052   7.027  0.0859  0.0209 -0.2837
 1343ERGO   ROH17463  13.010   3.538   5.641  0.0588 -0.0889  0.1260
 1343ERGO    R117464  12.972   3.497   5.918 -0.1577 -0.0645  0.1024
 1343ERGO    R217465  13.145   3.598   6.108 -0.1106 -0.3373  0.2100
 1343ERGO    R317466  12.918   3.706   6.212 -0.0154 -0.0116  0.0918
 1343ERGO    R417467  13.096   3.672   6.442 -0.2619 -0.5041  0.2259
 1343ERGO    R517468  12.892   3.597   6.424 -0.3877 -0.1330 -0.0076
 1343ERGO    C117469  12.854   3.816   6.734 -0.2607 -0.2955  0.1243
 1343ERGO    C217470  13.010   4.099   7.019  0.2399  0.3379  0.1004
 1344ERGO   ROH17471  13.279  10.908   5.818  0.2664  0.1285 -0.1261
 1344ERGO    R117472  13.212  10.771   6.057  0.1357  0.1007 -0.1774
 1344ERGO    R217473  13.387  10.599   6.184 -0.0220 -0.1135 -0.2366
 1344ERGO    R317474  13.337  10.758   6.399  0.1235 -0.1412 -0.1813
 1344ERGO    R417475  13.516  10.550   6.501 -0.0572 -0.3270 -0.2540
 1344ERGO    R517476  13.322  10.606   6.583 -0.0034 -0.1865 -0.2312
 1344ERGO    C117477  13.544  10.671   6.887  0.0589 -0.4773 -0.2121
 1344ERGO    C217478  13.527  10.678   7.237  0.1979  0.0181  0.1517
 1345W        W17479  19.166  17.788   3.333 -0.5625  0.3053 -0.1130
 1346W        W17480   0.327   2.772  12.513 -0.2256 -0.1348  0.2530
 1347W        W17481  16.587   8.215   0.016  0.4219  0.2177 -0.1589
 1348W        W17482   1.124  10.960  14.740  0.1518  0.2272 -0.1078
 1349W        W17483   7.337   9.630  11.641  0.2435 -0.0666  0.0271
 1350W        W17484  10.767   1.845  13.029 -0.0199 -0.1647  0.0598
 1351W        W17485  13.942  17.051   2.872  0.1557 -0.1037  0.2457
 1352W        W17486   8.165   3.910  14.005 -0.1501  0.1376  0.0721
 1353W        W17487  17.172   6.802  10.993 -0.0688 -0.1806 -0.0875
 1354W        W17488   0.366  10.403  11.683  0.1711  0.3486 -0.3385
 1355W        W17489  14.177   0.341  11.516 -0.0038  0.0541  0.0883
 1356W        W17490  15.320   9.788   0.858  0.1223  0.0375 -0.2829
 1357W        W17491  19.081   3.351  12.549  0.2095  0.0336  0.1443
 1358W        W17492   3.404   8.575   4.606 -0.2727  0.0199 -0.0115
 1359W        W17493   2.359  16.029   1.686 -0.4139  0.3762 -0.2181
 1360W        W17494   6.124   7.358   4.399 -0.2187  0.2670 -0.0751
 1361W        W17495   6.523  17.278   0.939  0.2435  0.0755  0.0502
 1362W        W17496  18.266   3.757   3.047 -0.0766 -0.2251 -0.0281
 1363W        W17497   3.653  14.095   4.290  0.0477 -0.0427 -0.1876
 1364W        W17498  13.540   0.147  12.350 -0.3457  0.1335 -0.2651
 1365W        W17499   9.374   6.654  14.216  0.0646 -0.2477 -0.0977
 1366W        W17500  15.815  12.785  13.533 -0.0193  0.2643 -0.4656
 1367W        W17501  13.472  13.722  14.841 -0.1190  0.3384  0.3335
 1368W        W17502  15.429   2.820  12.432  0.0809 -0.0293 -0.0674
 1369W        W17503   6.892  13.982  10.958  0.0861 -0.2146 -0.1936
 1370W        W17504   0.882   7.774   4.145  0.2739  0.2266  0.2436
 1371W        W17505  15.279  18.948  11.492  0.1858  0.1645 -0.0846
 1372W        W17506   6.494   0.779   4.879  0.0223 -0.0888 -0.1059
 1373W        W17507  13.880   4.748   0.518  0.1132 -0.3114  0.2734
 1374W        W17508   2.924   0.584   4.937 -0.2449  0.1919 -0.2274
 1375W        W17509   2.599   4.082  11.553  0.1031 -0.1956  0.3621
 1376W        W17510   1.862   4.105  10.512  0.1622  0.2281 -0.2421
 1377W        W17511   5.145  15.750   2.713 -0.0318 -0.0231 -0.0747
 1378W        W17512  15.377   3.632   4.087  0.0017 -0.1419 -0.0060
 1379W        W17513   3.060   1.436   0.032  0.2965  0.3557  0.0366
 1380W        W17514   4.419   2.190   4.666 -0.0154 -0.1536  0.0182
 1381W        W17515  12.210   7.629   1.704  0.1842  0.0459 -0.5879
 1382W        W17516  12.309   0.902   1.689 -0.2360 -0.0642  0.0456
 1383W        W17517   9.346   8.683  13.103  0.1051 -0.0517 -0.1709
 1384W        W17518  10.615   3.713   2.386 -0.0965  0.3828 -0.0561
 1385W        W17519  18.953   4.997  10.259 -0.1702 -0.0296 -0.1732
 1386W        W17520   1.415   6.085   3.511 -0.0206  0.1988 -0.3583
 1387W        W17521  11.951  16.289   4.933 -0.1980 -0.1859  0.0412
 1388W        W17522   2.484   3.370   1.481 -0.0682 -0.0731  0.0193
 1389W        W17523  17.100   7.498   1.912  0.0537  0.1185 -0.1087
 1390W        W17524   2.853  10.571   5.512  0.1778 -0.2631  0.3068
 1391W        W17525  16.137   9.907   2.737  0.2224  0.1059  0.1425
 1392W        W17526  10.644  14.161   0.609 -0.1480 -0.2763 -0.0897
 1393W        W17527   5.318   9.100  13.380 -0.3007 -0.1463 -0.1273
 1394W        W17528   8.715   1.905   3.156 -0.3013  0.2888 -0.0275
 1395W        W17529  10.892   1.714  13.469 -0.0909  0.2836  0.0388
 1396W        W17530   7.144   2.332  14.563 -0.2534 -0.1760 -0.2043
 1397W        W17531  15.098   9.450  11.217 -0.2101 -0.0474  0.1806
 1398W        W17532  13.305  13.024   5.390 -0.2362 -0.1878  0.1342
 1399W        W17533  12.397  14.676  14.020 -0.1817  0.0255  0.0516
 1400W        W17534  17.473  15.739   6.085 -0.1575 -0.0942 -0.0344
 1401W        W17535   9.904   2.183   3.851  0.3049  0.3919 -0.3398
 1402W        W17536  17.361  11.131   0.410  0.0365  0.0860  0.1128
 1403W        W17537   7.331   5.829  11.106 -0.0368  0.0762 -0.1211
 1404W        W17538   1.283  18.196   4.840  0.0577  0.0017  0.1445
 1405W        W17539  18.132  17.588  12.005  0.0750  0.1567 -0.2102
 1406W        W17540   8.014   1.292  12.544 -0.0124  0.0778 -0.1855
 1407W        W17541   1.563   1.721  14.397 -0.0759  0.1630 -0.1534
 1408W        W17542   3.755   4.302  14.698  0.0585  0.0722 -0.1529
 1409W        W17543   8.660  14.147  13.739  0.1105 -0.3633 -0.2244
 1410W        W17544  14.230   1.766   2.375 -0.2654 -0.3484  0.0200
 1411W        W17545   8.424  11.503  12.995  0.0345  0.0884  0.1874
 1412W        W17546   0.016  17.005   1.070 -0.2538 -0.2682  0.0847
 1413W        W17547   3.275  15.754   1.403 -0.1192  0.0440 -0.0814
 1414W        W17548  10.555  10.352  14.174  0.2156  0.1952 -0.1448
 1415W        W17549   4.760  15.390   0.015  0.5474  0.2377 -0.0700
 1416W        W17550   1.638  16.311   4.413  0.0371  0.1862  0.0820
 1417W        W17551   4.772  15.716   0.436  0.1696 -0.0905  0.0323
 1418W        W17552  15.637  16.093  11.895 -0.0306  0.1670 -0.1752
 1419W        W17553  15.538  14.762   0.415 -0.3738 -0.0200  0.1986
 1420W        W17554   2.699  18.765   0.336 -0.1229 -0.0431  0.0571
 1421W        W17555   1.138  13.143  11.646 -0.2697  0.1820 -0.3566
 1422W        W17556   4.637   7.970  12.324  0.2814  0.2331 -0.0538
 1423W        W17557  12.655  14.898  11.315 -0.0211  0.3567 -0.1567
 1424W        W17558  12.382   5.591   3.326 -0.4974 -0.1864 -0.3376
 1425W        W17559   6.369  16.669  11.665 -0.1030  0.2181 -0.0314
 1426W        W17560   0.174   0.526  11.433  0.0073  0.1640  0.0112
 1427W        W17561   1.481   1.591   1.654  0.1800  0.1286  0.2582
 1428W        W17562  16.016   4.578   5.101 -0.0058 -0.1276 -0.2104
 1429W        W17563   2.108   5.180  13.572  0.0590  0.1106  0.0376
 1430W        W17564   3.150  11.912  14.617  0.2378 -0.2161 -0.0200
 1431W        W17565  18.551   6.800   0.081  0.2842 -0.4300  0.2606
 1432W        W17566   2.893   9.973  12.203 -0.4181  0.0189  0.2016
 1433W        W17567  12.930  11.363  12.791  0.1235  0.0471  0.1181
 1434W        W17568  15.956   8.504  14.325 -0.1374  0.2083 -0.3303
 1435W        W17569   3.470  17.059  10.315  0.0865  0.1449  0.1726
 1436W        W17570  18.047   7.282  13.894  0.2073  0.1857 -0.0392
 1437W        W17571  11.152   2.290  12.991 -0.1527  0.0565 -0.1244
 1438W        W17572   9.901  17.071  10.184 -0.1400 -0.4185  0.0069
 1439W        W17573   7.830  10.182   4.774 -0.0324  0.2885  0.0636
 1440W        W17574  14.750  13.836  12.940 -0.1315 -0.1873 -0.1819
 1441W        W17575  13.915  15.375   4.279 -0.1814 -0.0975  0.1505
 1442W        W17576   5.693   0.025  11.159  0.1558  0.0296  0.1573
 1443W        W17577  12.693   8.390  11.356 -0.4037 -0.2401 -0.1442
 1444W        W17578  11.930   9.784  10.581 -0.0079  0.3354  0.1213
 1445W        W17579   4.918  18.374   1.293  0.0401 -0.0227 -0.0480
 1446W        W17580   6.556  18.041   5.535  0.1058 -0.1005 -0.1902
 1447W        W17581   3.734   2.633  13.121  0.2998 -0.1207 -0.0989
 1448W        W17582  11.736  17.281  13.666 -0.1357 -0.2251 -0.1283
 1449W        W17583   1.153   4.071  11.477 -0.1599  0.1040  0.0541
 1450W        W17584   5.559   6.171  13.376 -0.1197  0.0717  0.1770
 1451W        W17585   4.807  10.849   1.632  0.0225  0.1902 -0.2532
 1452W        W17586  11.669  13.075   4.758  0.1163  0.0616 -0.0633
 1453W        W17587  18.221   3.377  11.721  0.0006 -0.0141  0.3103
 1454W        W17588  15.445  17.396  14.663  0.0116 -0.3121  0.0507
 1455W        W17589   8.853   5.313   9.413  0.2645 -0.1178  0.1979
 1456W        W17590   4.635  13.521  12.479  0.1804  0.0679  0.1748
 1457W        W17591   8.548   2.873   5.548 -0.0293  0.0262 -0.6644
 1458W        W17592  11.310  12.284   1.752 -0.2029 -0.1246  0.3035
 1459W        W17593   1.083  17.795  14.388 -0.0068 -0.0653  0.0419
 1460W        W17594  12.583   0.040  12.578 -0.2042  0.3011 -0.2051
 1461W        W17595  18.280  13.235   1.756 -0.0764 -0.0891 -0.0090
 1462W        W17596  19.082   5.448   3.918 -0.0206  0.0210  0.1197
 1463W        W17597  10.916   9.108  11.216  0.1015 -0.0906  0.2328
 1464W        W17598  18.558   7.733   0.040 -0.3225 -0.4895  0.0632
 1465W        W17599   9.555  11.244  11.508 -0.1403  0.0896 -0.0643
 1466W        W17600   9.362   0.457   3.924 -0.1351 -0.0154 -0.0121
 1467W        W17601  16.488  12.429   1.609 -0.0440  0.1235  0.1950
 1468W        W17602  18.521   5.838   3.208  0.2275  0.1209 -0.1620
 1469W        W17603   1.688  10.711  13.066  0.1962  0.1829 -0.3172
 1470W        W17604   4.808   9.337  14.656  0.0155  0.1065  0.3924
 1471W        W17605  12.761  13.495   4.738 -0.0030  0.0419  0.0244
 1472W        W17606  15.608   9.646   4.993  0.1229 -0.0366 -0.0669
 1473W        W17607  11.012   7.897  12.579  0.2342 -0.0842 -0.1421
 1474W        W17608  12.155   6.344  11.776  0.0659 -0.2431  0.1395
 1475W        W17609  15.284   5.769   4.939 -0.0167  0.1003  0.1664
 1476W        W17610  16.475   7.178  10.757 -0.2980  0.2108  0.1076
 1477W        W17611  15.822   0.120  14.528 -0.1708 -0.1495  0.3058
 1478W        W17612   6.954  12.640  12.516  0.1705 -0.0899  0.0894
 1479W        W17613   0.208   6.775  14.713  0.1124  0.0895 -0.0634
 1480W        W17614  16.190  10.178  11.106 -0.0358  0.3229  0.0551
 1481W        W17615   1.194  13.102  14.926  0.1937  0.1415 -0.1044
 1482W        W17616   3.465   8.409  11.378  0.1715 -0.0610  0.3579
 1483W        W17617  16.999   5.445   3.763  0.2288 -0.6122 -0.0604
 1484W        W17618  15.330   1.519  11.883  0.0620 -0.0973  0.3442
 1485W        W17619   5.101  11.790  12.919 -0.0981  0.3647  0.1706
 1486W        W17620   7.297  10.714  11.922  0.0546  0.1424 -0.0459
 1487W        W17621   2.543   1.058  13.276 -0.0107  0.0718  0.0169
 1488W        W17622  12.254   2.214  10.871 -0.2698  0.4725  0.0489
 1489W        W17623   1.239   8.849   0.415  0.0870 -0.1874  0.1421
 1490W        W17624  14.110   0.726   1.189 -0.1291  0.3350  0.0010
 1491W        W17625   2.741   3.841   1.547  0.0270  0.0419 -0.0486
 1492W        W17626   0.149   2.974  12.989  0.0804 -0.0454 -0.0177
 1493W        W17627   5.060   6.389  11.286 -0.0659  0.1906 -0.0060
 1494W        W17628  19.141  10.298   4.932  0.0969 -0.1368  0.2759
 1495W        W17629   8.606   6.049   1.660 -0.0249  0.1030 -0.2392
 1496W        W17630   2.556   2.052   4.211  0.1910  0.0260  0.2712
 1497W        W17631   6.912   5.072  10.765  0.1692 -0.1732  0.1453
 1498W        W17632   9.075  17.550   0.554 -0.2527  0.3007 -0.0542
 1499W        W17633   1.814   9.665  12.510 -0.1504  0.0783 -0.1280
 1500W        W17634   9.035  10.907   3.580  0.1700  0.2880  0.1790
 1501W        W17635   2.191  12.891   1.888 -0.0247 -0.0070  0.0022
 1502W        W17636  14.823  10.030  13.450 -0.1271 -0.2523  0.1437
 1503W        W17637  16.233   6.461  13.539 -0.2911  0.1675 -0.1422
 1504W        W17638  16.165  11.139  13.507 -0.1993 -0.4271  0.2718
 1505W        W17639  17.236  10.821   0.020 -0.3041 -0.2650  0.2033
 1506W        W17640   6.056   3.315   1.529 -0.0437  0.2895 -0.0235
 1507W        W17641  12.850  13.217   2.137 -0.0710  0.3349 -0.1073
 1508W        W17642   9.237  13.916   1.048 -0.2177  0.0722 -0.1906
 1509W        W17643  15.780  14.937   4.492  0.2022 -0.0617  0.0142
 1510W        W17644  13.238   6.503  13.397  0.1479 -0.2311  0.1587
 1511W        W17645   3.329  10.244   2.938  0.0296  0.0528 -0.1119
 1512W        W17646  10.376  12.742  14.910  0.1738 -0.0687  0.0462
 1513W        W17647   8.810   8.512  11.319  0.0295  0.2283 -0.0750
 1514W        W17648  13.712   8.996  13.252 -0.0940 -0.1304  0.3160
 1515W        W17649   8.256  12.112  11.207  0.1778 -0.0676  0.0098
 1516W        W17650   1.623  16.572  12.937  0.2203  0.1279  0.1232
 1517W        W17651  15.784   2.650  11.835 -0.1012 -0.1180  0.1036
 1518W        W17652   4.355   2.682   0.748  0.1067 -0.0806  0.0258
 1519W        W17653   2.981  11.390  12.486 -0.0576 -0.2681  0.1577
 1520W        W17654  10.016  15.654   5.182  0.1167 -0.2398 -0.0203
 1521W        W17655   9.636  15.834  14.348  0.0511  0.0831  0.0019
 1522W        W17656  13.970   2.164  13.477  0.2001 -0.2489  0.2008
 1523W        W17657   3.950   1.143  13.329 -0.2380 -0.1314  0.0525
 1524W        W17658   8.744   1.512   3.999  0.0361  0.0391 -0.3953
 1525W        W17659  18.883   9.082   1.566 -0.1096  0.2389  0.1191
 1526W        W17660  11.270   6.718  11.274  0.0825  0.1880 -0.0327
 1527W        W17661  17.338  17.899  14.308 -0.3072 -0.0503  0.0107
 1528W        W17662  17.356  15.113   5.401  0.3347 -0.1492  0.3795
 1529W        W17663   4.632   6.768  11.160  0.0699 -0.0625  0.0106
 1530W        W17664   2.492  11.008  11.652 -0.1138 -0.5337  0.0609
 1531W        W17665   3.383   8.580   2.092  0.0129  0.2384 -0.0776
 1532W        W17666  11.348   0.825  13.505 -0.3111  0.2417  0.2521
 1533W        W17667   5.695  16.240   2.590  0.1267 -0.0506 -0.3906
 1534W        W17668  18.000   7.628   0.424 -0.2347  0.2954 -0.0258
 1535W        W17669   5.960   9.139  14.889 -0.1196  0.0812  0.1135
 1536W        W17670  18.563  15.599   2.104  0.0535  0.0543  0.3873
 1537W        W17671   7.444   6.463   0.531 -0.1032 -0.2230 -0.0416
 1538W        W17672  13.977  12.263  14.741 -0.1095 -0.0639 -0.1732
 1539W        W17673  16.403   4.821  14.098  0.1744 -0.1038  0.0410
 1540W        W17674  14.090  13.932   4.305  0.0143  0.3475 -0.2386
 1541W        W17675  11.340   4.833   2.285 -0.0506  0.0838  0.2752
 1542W        W17676  18.634  11.455   0.771  0.1259  0.2285 -0.0871
 1543W        W17677   0.821   9.719   9.553 -0.1989  0.0146 -0.0082
 1544W        W17678   7.379  15.711   2.964  0.0598  0.0795 -0.1144
 1545W        W17679   7.505  11.826   4.661 -0.0714  0.0879  0.2385
 1546W        W17680   2.781  10.933  12.587  0.0426  0.0640  0.1068
 1547W        W17681   1.547   7.155   2.421  0.1916  0.1225  0.0824
 1548W        W17682   0.665   8.637   5.424  0.0529  0.1012  0.0480
 1549W        W17683   6.340   7.295   3.646  0.1828  0.6376 -0.2692
 1550W        W17684   0.438  14.189   1.352 -0.1621 -0.0068  0.1858
 1551W        W17685  10.422  14.428  12.497 -0.3609  0.2239 -0.0658
 1552W        W17686  17.219   6.298   1.302 -0.3213 -0.3148 -0.1826
 1553W        W17687  18.728  10.197  10.531 -0.2573 -0.0957  0.3093
 1554W        W17688   8.884   8.208   3.023 -0.1922  0.1688 -0.1015
 1555W        W17689   8.579   3.813  11.521  0.0462 -0.0657 -0.1233
 1556W        W17690   2.077  19.163  11.820  0.0930 -0.3231 -0.0702
 1557W        W17691  14.660   7.209  11.815 -0.1153  0.0944 -0.0664
 1558W        W17692   4.561   9.766  11.997  0.0713  0.0236  0.2131
 1559W        W17693  18.096  10.548   2.552 -0.0943 -0.0902 -0.4452
 1560W        W17694   5.088   6.104  13.130 -0.2632  0.1499 -0.1531
 1561W        W17695   2.657  10.741   0.531  0.2298 -0.0064  0.1233
 1562W        W17696   1.926  11.693  11.481 -0.1349 -0.0186  0.0301
 1563W        W17697  17.800  18.300   4.110  0.2510 -0.3320  0.1915
 1564W        W17698   0.697   4.285  11.398 -0.0585  0.0588 -0.2523
 1565W        W17699   7.544  12.892   9.606 -0.1399 -0.1401 -0.2331
 1566W        W17700   8.999  18.667  12.712  0.2013 -0.1722  0.2364
 1567W        W17701  12.440   7.081   0.491  0.0207  0.2001 -0.0053
 1568W        W17702  10.159   1.424   3.267  0.0535 -0.0356  0.1314
 1569W        W17703   9.775   3.666  11.315  0.0096 -0.1452  0.0224
 1570W        W17704  17.216  17.294   1.847  0.1261 -0.2412  0.0822
 1571W        W17705   5.505   2.501   4.574  0.1275 -0.0791 -0.2113
 1572W        W17706   4.758   2.486   3.860 -0.2415  0.2413  0.1567
 1573W        W17707  13.786  13.601  13.527  0.1991 -0.0582  0.0372
 1574W        W17708  13.244   8.934   9.960  0.1722 -0.1377 -0.0177
 1575W        W17709   7.751   4.971  13.931  0.3070  0.0973  0.2183
 1576W        W17710  17.046  18.817  10.855 -0.2055 -0.2456 -0.4728
 1577W        W17711  18.682   2.716   5.179  0.0053  0.1260  0.3665
 1578W        W17712   5.177   0.087   1.702  0.0580  0.1728  0.0469
 1579W        W17713   3.904  10.930   5.709  0.3457 -0.0178  0.2073
 1580W        W17714  13.348   9.868  13.439  0.1151  0.0895 -0.2862
 1581W        W17715  10.450  17.414   3.086 -0.0343  0.1345  0.1442
 1582W        W17716   2.123   1.288  13.786  0.0208 -0.2405  0.0897
 1583W        W17717   5.430  11.192   0.298  0.0547  0.2393 -0.1439
 1584W        W17718  16.656  16.569   3.734  0.3066  0.0077 -0.1126
 1585W        W17719  10.395  12.133   1.990  0.2510 -0.1485 -0.0107
 1586W        W17720   9.646  16.151   0.687 -0.3909  0.2469  0.0817
 1587W        W17721  10.955   0.107   3.646  0.2823 -0.0319 -0.1335
 1588W        W17722   4.051  17.036  10.526  0.2163  0.0999  0.2612
 1589W        W17723  13.972  13.079  14.015 -0.2735  0.1714 -0.1875
 1590W        W17724  10.247  16.872  10.609 -0.0356 -0.0698  0.1136
 1591W        W17725  14.675   6.591   1.787  0.0176 -0.4093 -0.3404
 1592W        W17726  16.784  17.149  13.419 -0.0931 -0.1558 -0.0820
 1593W        W17727   4.841  11.394  10.913  0.0609  0.1008  0.1175
 1594W        W17728   7.632  13.159   3.503 -0.2800  0.4576  0.2193
 1595W        W17729  17.180  15.970   5.445 -0.1557  0.4497 -0.1315
 1596W        W17730   8.886  12.907   2.974 -0.2714  0.0750 -0.0248
 1597W        W17731  19.239   9.140  11.843  0.2431  0.1194  0.0838
 1598W        W17732   9.368  16.356  13.520  0.2404 -0.3432 -0.1307
 1599W        W17733   0.118  14.731   2.749 -0.2042 -0.0736  0.3191
 1600W        W17734  19.146   4.079   0.767  0.1376  0.0408  0.0586
 1601W        W17735  14.694  11.484  14.785 -0.3489  0.0735  0.3171
 1602W        W17736   6.197  16.436  14.700  0.0120  0.0608  0.0149
 1603W        W17737  11.443   5.652   2.582 -0.2483  0.2026 -0.3046
 1604W        W17738  18.148  14.373   2.848 -0.0969  0.0340 -0.0279
 1605W        W17739   9.720  11.245  13.933  0.0125 -0.0590 -0.1023
 1606W        W17740  14.115  17.668  12.333  0.0525 -0.0729 -0.0372
 1607W        W17741  14.725   6.806  14.226  0.1023  0.1111  0.1427
 1608W        W17742   6.071  13.755   3.341 -0.3287 -0.0134  0.0837
 1609W        W17743   0.706  13.976   0.132 -0.0308  0.1036  0.4802
 1610W        W17744   5.887   8.049   4.700 -0.0742 -0.0429  0.2050
 1611W        W17745   3.055   7.540   3.622 -0.1791  0.3265  0.4059
 1612W        W17746   6.359  17.898   0.496  0.1802 -0.0791 -0.0428
 1613W        W17747  13.672   5.481   0.943  0.1587  0.2004 -0.1146
 1614W        W17748   6.967   5.571  12.903 -0.1986  0.0352 -0.2199
 1615W        W17749   6.342  15.160   5.689  0.1243  0.1664  0.1196
 1616W        W17750  14.643   2.447   9.785  0.0573  0.2466 -0.1462
 1617W        W17751   7.691   4.846   3.279 -0.0090  0.2544  0.0065
 1618W        W17752  16.450  10.690   0.583  0.2512  0.0525  0.1014
 1619W        W17753  10.263   2.362  11.242 -0.1164  0.0703 -0.3393
 1620W        W17754  13.080  18.080   5.791 -0.1380  0.1732  0.0648
 1621W        W17755  19.219  18.864  13.394  0.2501 -0.3117  0.0872
 1622W        W17756  18.118   0.921   1.732  0.2736 -0.1939 -0.0833
 1623W        W17757   9.526   8.034  12.336 -0.0646 -0.1614  0.3932
 1624W        W17758   2.307  12.190  14.044 -0.2728 -0.4653 -0.0203
 1625W        W17759  13.275   2.598   0.338  0.1833  0.1197 -0.0557
 1626W        W17760   3.528   3.900  14.379 -0.1685  0.2863  0.0528
 1627W        W17761   0.261   2.645  11.996  0.1668  0.1921 -0.0138
 1628W        W17762   5.352   9.297   1.947 -0.1280 -0.1265  0.1985
 1629W        W17763  11.419  12.917   3.587 -0.2215 -0.3721  0.0166
 1630W        W17764   7.183  11.270  12.323 -0.1405  0.2184  0.0884
 1631W        W17765  16.430  12.611  12.774  0.4066 -0.1003  0.1381
 1632W        W17766  15.167   3.032  11.593  0.1709 -0.1841 -0.1953
 1633W        W17767   4.594  12.963   1.548  0.0022 -0.1415  0.1534
 1634W        W17768  15.404  16.534   1.778  0.1833  0.1564  0.0645
 1635W        W17769  14.379   5.811   4.681  0.0170  0.0030 -0.0853
 1636W        W17770  18.836   6.911  10.908 -0.0519 -0.0881  0.0039
 1637W        W17771   9.501   4.077   5.310 -0.0236  0.1538 -0.0323
 1638W        W17772  12.894  19.167  11.035  0.0555  0.1082  0.2046
 1639W        W17773   0.957   5.054   4.183  0.1761 -0.1297  0.2113
 1640W        W17774   4.610  14.285  13.908 -0.1559  0.2682  0.2925
 1641W        W17775   9.539   1.677  11.736 -0.0614  0.1202  0.0773
 1642W        W17776  15.549   5.619   1.093 -0.0989 -0.1429  0.1686
 1643W        W17777  17.101  13.966   0.124 -0.0170  0.1637  0.0151
 1644W        W17778  18.737   8.631   4.386  0.1357 -0.0203  0.3175
 1645W        W17779  13.457  13.183  12.716 -0.0451  0.3127 -0.0321
 1646W        W17780  14.862   5.713   3.982 -0.0422 -0.1238 -0.0493
 1647W        W17781   0.013  11.788   1.473 -0.2965 -0.2318  0.0599
 1648W        W17782   8.497   3.645   2.867 -0.1385  0.2295  0.1357
 1649W        W17783  19.000   3.121   4.060 -0.0109 -0.1062 -0.5004
 1650W        W17784   1.298   6.064  13.031  0.2078  0.0340  0.2250
 1651W        W17785  17.782   5.663  12.803 -0.0383 -0.1899  0.1227
 1652W        W17786  15.597  17.854  11.790 -0.0730  0.4559 -0.0364
 1653W        W17787   6.150  14.794   3.782  0.0734 -0.1347  0.1463
 1654W        W17788  11.986   1.043  12.883  0.1513  0.0190  0.1882
 1655W        W17789   9.488  12.895   3.683  0.1173  0.1772  0.1538
 1656W        W17790  11.744  18.097   3.632  0.0962  0.2519 -0.0966
 1657W        W17791  15.892  17.036  14.852 -0.1067  0.1189  0.1870
 1658W        W17792   1.397   6.631   1.150 -0.2018  0.0397  0.0240
 1659W        W17793  14.304  16.257   4.034  0.0870 -0.0221 -0.1751
 1660W        W17794   6.677   4.333   3.961 -0.0032 -0.0397 -0.1564
 1661W        W17795  10.758  16.943  10.068 -0.5686 -0.0240 -0.0360
 1662W        W17796  11.547  17.602  14.020  0.1564  0.0318 -0.0996
 1663W        W17797  14.868  17.476  14.632  0.1258  0.0761 -0.0532
 1664W        W17798  18.840  15.629   5.421  0.0639 -0.1528  0.2418
 1665W        W17799  13.629  18.513   2.311  0.2216  0.0498  0.0035
 1666W        W17800  10.226  17.794  14.174  0.2480 -0.0326  0.3018
 1667W        W17801  18.651   9.388   5.611 -0.3693  0.3952  0.1768
 1668W        W17802  15.581   8.469   2.444  0.0707  0.0374 -0.1615
 1669W        W17803   3.581   0.893   3.169 -0.3425 -0.0331  0.3799
 1670W        W17804   1.555  12.726  12.635  0.0479  0.0086  0.2322
 1671W        W17805   5.829  15.381  10.437  0.0430 -0.0803 -0.4111
 1672W        W17806   4.176   3.527  14.967 -0.1963 -0.1862 -0.0527
 1673W        W17807  15.791  13.528  14.026  0.1062  0.0020 -0.2749
 1674W        W17808   4.571   2.683   3.327 -0.3738 -0.1432  0.0895
 1675W        W17809  18.965  13.784  12.992 -0.3763  0.2165 -0.0833
 1676W        W17810  16.878  16.068  10.968  0.1543  0.0397 -0.0091
 1677W        W17811   1.523   4.887   1.942  0.2746  0.1406  0.2764
 1678W        W17812   2.014   5.073  14.077  0.4162 -0.1120  0.0273
 1679W        W17813   7.608   5.881   4.348  0.1861 -0.0551 -0.2991
 1680W        W17814   6.343   1.746   5.161  0.0362  0.0655  0.4784
 1681W        W17815  14.368  16.038  14.472  0.1437  0.0374  0.0398
 1682W        W17816   2.917  12.839  13.971 -0.2257  0.2743 -0.1026
 1683W        W17817   1.069   0.138   4.707 -0.1603 -0.0540  0.0755
 1684W        W17818  16.591   4.531   0.533 -0.1682  0.2601  0.0669
 1685W        W17819   4.826  16.441   4.470  0.0821 -0.2042  0.1433
 1686W        W17820   6.480   9.059   2.740  0.3605  0.0962  0.0296
 1687W        W17821   9.452  14.259   1.392  0.1132 -0.3149 -0.1605
 1688W        W17822  15.552   9.449  10.539 -0.1972  0.0164 -0.0434
 1689W        W17823   6.898   7.641   3.050 -0.0888 -0.0496  0.0739
 1690W        W17824   1.872  13.008  14.141  0.0486 -0.0149  0.0447
 1691W        W17825  14.847  11.020   4.792 -0.0043  0.0167  0.0137
 1692W        W17826  16.243   7.413   3.977 -0.1167  0.0914  0.3288
 1693W        W17827   9.716   6.642  13.827 -0.1853 -0.1573  0.0166
 1694W        W17828   0.143   7.612   0.393 -0.3050 -0.0917 -0.0091
 1695W        W17829   7.091   3.706  10.551  0.2355  0.3632  0.2868
 1696W        W17830  15.142   7.261  11.932  0.2062 -0.2671  0.1199
 1697W        W17831  15.661  15.763  11.460  0.0843  0.0456 -0.1026
 1698W        W17832  11.428  16.567   3.185 -0.1028  0.1070  0.3305
 1699W        W17833   7.014   5.295  12.148  0.4581  0.2631  0.1645
 1700W        W17834   2.431   3.397   1.978 -0.0457  0.0088 -0.1916
 1701W        W17835  11.333  16.473  14.041 -0.2996 -0.1959 -0.0553
 1702W        W17836   2.412  17.720   1.351 -0.1493 -0.4113  0.2070
 1703W        W17837   9.663  10.737  13.982 -0.0593  0.2499 -0.1097
 1704W        W17838   4.656   4.269  10.651  0.0013 -0.0952 -0.0866
 1705W        W17839  10.929  10.300  13.304  0.0334 -0.0272 -0.0304
 1706W        W17840   9.970  19.208   2.080 -0.1444 -0.1488  0.2408
 1707W        W17841   5.480   6.487  14.224 -0.0691  0.2793  0.0383
 1708W        W17842   1.501   6.682   2.769  0.0479 -0.0893  0.1673
 1709W        W17843   6.894   1.586  11.540 -0.2670  0.1079  0.1361
 1710W        W17844   5.432  18.307   1.503 -0.0972  0.1410  0.1959
 1711W        W17845  15.234   6.255  14.351 -0.1375 -0.2045 -0.2131
 1712W        W17846   2.987  16.145   0.271  0.0279  0.0926  0.0273
 1713W        W17847   5.755   2.068   2.977  0.2600 -0.1401 -0.2671
 1714W        W17848   6.236  19.056  12.328 -0.1853  0.1164  0.2132
 1715W        W17849   7.364   0.436   0.661 -0.0032  0.0291 -0.0755
 1716W        W17850  16.342   0.731   5.238 -0.0871 -0.0082  0.0013
 1717W        W17851   6.097  16.634  10.080 -0.1705  0.3180 -0.2556
 1718W        W17852   7.476   1.744   1.799 -0.1616 -0.0505  0.0574
 1719W        W17853  15.343   5.956   4.021  0.1112  0.2354  0.3253
 1720W        W17854   9.516   7.038   1.134  0.1048  0.0916  0.0417
 1721W        W17855   3.692   2.773   3.068 -0.2199 -0.0286  0.0179
 1722W        W17856   3.018   3.804  11.132  0.3489  0.0077 -0.1280
 1723W        W17857   1.854   5.682  11.284 -0.0393 -0.1334 -0.0268
 1724W        W17858   3.804   1.713   3.958  0.3068  0.0174 -0.1475
 1725W        W17859  17.926  10.890   3.454  0.1744  0.1061  0.4322
 1726W        W17860  11.277  11.266  12.265 -0.2249  0.0335 -0.0500
 1727W        W17861  19.049   1.736   3.620  0.1633  0.0695  0.0022
 1728W        W17862  18.620   3.825   3.478 -0.1408 -0.0029  0.2238
 1729W        W17863  15.948  11.529   3.070  0.0829 -0.3694 -0.1369
 1730W        W17864   2.718  17.725  14.497  0.3889  0.2252 -0.1463
 1731W        W17865   4.426  11.672   0.625 -0.1064 -0.1604 -0.0753
 1732W        W17866   1.061  10.299  13.606 -0.1281 -0.0748 -0.0180
 1733W        W17867  18.983  11.979   3.800 -0.0416 -0.0401 -0.0056
 1734W        W17868  17.671   8.248   1.716  0.1070 -0.3814  0.0819
 1735W        W17869  15.458   1.204  14.173  0.2903  0.1753  0.0951
 1736W        W17870  11.468  16.057  14.983 -0.0381 -0.1763 -0.1248
 1737W        W17871   4.532  10.458   2.971 -0.0553 -0.0000 -0.3102
 1738W        W17872   4.601  16.257   3.287  0.4396  0.0153  0.2489
 1739W        W17873   9.082  14.678  10.449  0.0412 -0.0740  0.1046
 1740W        W17874  12.374  11.357   0.877 -0.1402  0.0086  0.1913
 1741W        W17875  19.173  18.932   2.176 -0.3852 -0.1016  0.2175
 1742W        W17876   2.737   2.522   4.395  0.0682 -0.2634  0.0827
 1743W        W17877  16.290  12.192   5.064 -0.0034  0.0443  0.0789
 1744W        W17878  11.960   7.383  12.643 -0.0355  0.0265  0.0033
 1745W        W17879  10.949   8.882  11.915  0.0658 -0.2314  0.1168
 1746W        W17880  12.763   6.216  11.439 -0.0818 -0.0943 -0.1100
 1747W        W17881  13.918  10.525   0.525 -0.0851  0.2225  0.1555
 1748W        W17882   5.494   1.971   0.797  0.1930 -0.2855 -0.1052
 1749W        W17883   6.336   6.439  14.523  0.1388 -0.2166 -0.3949
 1750W        W17884   8.803  10.238  12.012 -0.0764  0.3670 -0.0676
 1751W        W17885  10.481  17.219  11.048  0.1108 -0.1793 -0.1060
 1752W        W17886   3.217   0.821  12.743 -0.3456 -0.1425 -0.2229
 1753W        W17887   6.874   4.560   3.302  0.0946  0.0484  0.0331
 1754W        W17888  11.272   8.081  10.353  0.1352  0.0823  0.2204
 1755W        W17889   1.551   1.183   1.956 -0.0137 -0.0130  0.1337
 1756W        W17890  15.794  12.216  14.196 -0.0973 -0.0756  0.1237
 1757W        W17891   1.880  12.980   3.766  0.3260 -0.1508 -0.0753
 1758W        W17892   1.430  13.211   4.322 -0.1605 -0.0238  0.0091
 1759W        W17893  13.855   8.450   3.559 -0.0652  0.1316  0.0979
 1760W        W17894   2.959  12.756   4.427  0.1749  0.0147 -0.0791
 1761W        W17895   5.819   9.000  11.032 -0.0723 -0.1189 -0.1679
 1762W        W17896   6.348  16.408  12.832 -0.0510 -0.1040 -0.0973
 1763W        W17897  10.186  10.672  11.262 -0.2909  0.1266 -0.1323
 1764W        W17898  10.376   6.326  13.424 -0.1059  0.3614 -0.1990
 1765W        W17899  13.024   9.606  12.038  0.4082  0.1863 -0.1461
 1766W        W17900  18.106   1.046   0.160  0.2463  0.2030  0.1356
 1767W        W17901  11.506  19.117   3.099  0.0052 -0.1626  0.1160
 1768W        W17902  12.422  16.754   2.111 -0.0892 -0.3578  0.0902
 1769W        W17903   8.425  17.918   4.243 -0.0396  0.2139 -0.1288
 1770W        W17904   8.643  13.708  14.550  0.1537 -0.1327  0.0569
 1771W        W17905  12.156  10.659  12.320 -0.0061  0.2468  0.1661
 1772W        W17906  12.526   0.476   3.605 -0.0830  0.1807  0.1003
 1773W        W17907   3.711   9.718   4.759  0.0891  0.0397  0.2701
 1774W        W17908   0.759  16.284   5.997  0.3012  0.0606 -0.1522
 1775W        W17909  16.599  17.226  12.036 -0.0112  0.1429 -0.2814
 1776W        W17910  11.337  17.872  11.412  0.1650 -0.0943  0.2234
 1777W        W17911  11.948   9.060  14.546  0.0877 -0.1441  0.1131
 1778W        W17912  10.360   6.112   9.958  0.0716 -0.1900 -0.0814
 1779W        W17913   9.321   8.002   0.372 -0.1046  0.0011 -0.1302
 1780W        W17914   7.046  16.811   3.722  0.2221 -0.0889 -0.2318
 1781W        W17915  16.411   5.222  11.888  0.2840  0.1763 -0.0927
 1782W        W17916  12.908   1.794   2.596  0.0464  0.1426 -0.0569
 1783W        W17917  17.970   9.667   2.386  0.2019 -0.1983 -0.1643
 1784W        W17918  16.794  11.810   2.729  0.0158  0.0453  0.0533
 1785W        W17919  12.118   6.752  10.399 -0.2759  0.0595  0.2479
 1786W        W17920   9.209  11.066  13.103 -0.0456 -0.0388 -0.0703
 1787W        W17921   2.135  14.254  13.648 -0.0041  0.0036  0.1445
 1788W        W17922   7.256  11.145   2.378  0.0413  0.1625  0.0033
 1789W        W17923  16.242  16.307  13.279  0.0864 -0.1950 -0.0208
 1790W        W17924   1.714  14.035   3.242 -0.3668 -0.1578 -0.0189
 1791W        W17925  16.476   8.970   2.303  0.0221  0.2204  0.1813
 1792W        W17926   1.914   2.063   3.759 -0.0122  0.0492  0.0442
 1793W        W17927  10.283  18.484  13.122 -0.0013 -0.1723  0.0120
 1794W        W17928  18.413  15.340   5.164  0.0551 -0.1931  0.2412
 1795W        W17929  14.595   7.299  12.479  0.0376 -0.1049 -0.0177
 1796W        W17930  11.683  15.946   1.439 -0.3084 -0.2035  0.1871
 1797W        W17931   2.540  15.115   2.602  0.0344  0.1428 -0.0827
 1798W        W17932   5.500   1.971  13.667 -0.1136  0.0537 -0.1304
 1799W        W17933  13.924  13.828   0.323 -0.4318 -0.2406  0.3946
 1800W        W17934   5.573   2.044   9.599  0.1802  0.1712  0.0881
 1801W        W17935   8.657   6.881  12.618  0.0628  0.1460  0.0650
 1802W        W17936   8.628  15.390  10.635 -0.1352 -0.4555 -0.1341
 1803W        W17937   5.076  11.880  11.421 -0.0594  0.0331  0.2413
 1804W        W17938  15.116  18.342   5.312 -0.2147 -0.1100  0.4985
 1805W        W17939   6.857   6.634   3.653 -0.0497  0.0689  0.2127
 1806W        W17940  19.224   2.488   2.262 -0.3516  0.2640  0.1312
 1807W        W17941  13.885   5.495  10.368 -0.0710 -0.3108  0.2442
 1808W        W17942  13.709  18.098   4.478 -0.2118  0.0231  0.3622
 1809W        W17943   2.260  17.491   0.777  0.1151 -0.0215 -0.1413
 1810W        W17944   8.020   6.694   3.390  0.1207  0.0309  0.2666
 1811W        W17945  16.328   6.899  11.623  0.0797 -0.1500 -0.0423
 1812W        W17946   8.343   4.639  12.019 -0.1736  0.3238  0.3066
 1813W        W17947   6.553   9.118  13.623 -0.0304 -0.1358  0.2214
 1814W        W17948  13.921  12.280  12.976 -0.0898 -0.0213 -0.2510
 1815W        W17949  14.087  16.986  10.938 -0.1767 -0.3146 -0.0787
 1816W        W17950  19.110  10.238   2.469 -0.3017  0.3193 -0.1190
 1817W        W17951   2.646   3.633   4.064  0.0852 -0.2507 -0.1984
 1818W        W17952  12.878  18.636   1.466  0.2896  0.1424 -0.3011
 1819W        W17953  12.838  12.016   0.020 -0.3372  0.1143 -0.4390
 1820W        W17954   1.767   9.215  12.223 -0.1439 -0.0689  0.2687
 1821W        W17955   0.883  17.220  13.521  0.0122  0.0345 -0.1775
 1822W        W17956   4.286   6.709   3.602 -0.1897  0.2042 -0.0990
 1823W        W17957  15.928   9.340   1.199  0.0282 -0.0138  0.0303
 1824W        W17958  10.800  12.097  12.410  0.2708 -0.0875  0.1584
 1825W        W17959  13.956   7.120   9.637  0.1711 -0.0212  0.0283
 1826W        W17960   6.328   1.643   2.514  0.2682 -0.3112  0.1964
 1827W        W17961  15.189  16.412  10.949  0.0813  0.1686 -0.0227
 1828W        W17962  12.489   5.832  11.244  0.3097  0.3717 -0.0592
 1829W        W17963  13.647  13.421  11.653  0.1916 -0.0347  0.1394
 1830W        W17964   7.535  11.030   3.690  0.2544  0.2862 -0.1501
 1831W        W17965  15.994   3.820  14.373  0.1268  0.1376 -0.1848
 1832W        W17966  17.457  18.640   2.993  0.1852  0.2124 -0.2204
 1833W        W17967   3.270   9.839  10.210 -0.0017  0.2236  0.1898
 1834W        W17968   6.645   7.688  11.938  0.1216 -0.1718  0.1404
 1835W        W17969  15.552  17.301  11.670 -0.2950  0.1757  0.2329
 1836W        W17970  14.719  15.802   1.719 -0.2141  0.1164 -0.0893
 1837W        W17971   9.919   0.826  14.104 -0.0822  0.3552 -0.0314
 1838W        W17972  10.375   5.882   0.230 -0.2849 -0.2439  0.4997
 1839W        W17973   5.432   3.130   1.390 -0.1753 -0.0656 -0.0837
 1840W        W17974   2.373   1.863   5.975  0.1718  0.1969  0.0578
 1841W        W17975  14.008  11.671   5.058  0.0347 -0.0715 -0.1311
 1842W        W17976   5.697  14.344   1.716 -0.1806 -0.0281 -0.0085
 1843W        W17977   9.382  18.326  10.697 -0.1447 -0.1469 -0.0553
 1844W        W17978   2.313  10.826  12.514 -0.1071  0.1318 -0.2235
 1845W        W17979   4.396   9.667   5.361  0.4286  0.2795 -0.1196
 1846W        W17980  14.086  13.810   3.039  0.1497 -0.0384  0.2346
 1847W        W17981   4.727  13.088   4.126  0.3842 -0.1617  0.0058
 1848W        W17982  12.975   3.800   0.823  0.0897 -0.2249 -0.0534
 1849W        W17983  11.408   9.134  10.020 -0.0104 -0.2816 -0.0063
 1850W        W17984   6.358  10.242   2.842  0.1841  0.1039 -0.1207
 1851W        W17985   9.667  18.750   2.868 -0.1238 -0.0856  0.0483
 1852W        W17986   6.644   3.241  12.665 -0.1209 -0.1742 -0.3614
 1853W        W17987  10.051   1.877   4.705 -0.1048 -0.0657  0.0111
 1854W        W17988   7.784  17.171   5.425  0.0639  0.0080  0.3562
 1855W        W17989  11.250  11.431   1.383 -0.0713 -0.0035 -0.2035
 1856W        W17990   9.823   9.831   4.612 -0.3399 -0.1368  0.1253
 1857W        W17991   0.883   2.954  15.022 -0.3535  0.1193 -0.0151
 1858W        W17992  14.518  13.835   2.710 -0.1099  0.3017 -0.1536
 1859W        W17993  13.386  11.660  11.769  0.1041 -0.2693  0.3766
 1860W        W17994   8.406  18.021  12.551  0.0010  0.2188 -0.3332
 1861W        W17995  13.980   0.748   3.560  0.2896 -0.0639 -0.4061
 1862W        W17996  16.786   2.592   1.108 -0.1444  0.1783 -0.0594
 1863W        W17997   9.590  17.575   3.156  0.0921  0.1083  0.0735
 1864W        W17998  14.353  17.226   1.419 -0.0850  0.3000 -0.0652
 1865W        W17999   0.195   9.227   3.520  0.0936 -0.0474  0.0355
 1866W        W18000  15.437  10.577   2.235 -0.0375 -0.2176  0.2391
 1867W        W18001  16.636  14.810   4.475 -0.0845 -0.5321  0.0512
 1868W        W18002   6.933   5.163   2.891 -0.1360  0.1075  0.4266
 1869W        W18003   6.908  16.256   5.760 -0.2412  0.1430  0.0641
 1870W        W18004  15.035   2.063   1.217 -0.0079  0.0650 -0.0113
 1871W        W18005  14.868   1.731  11.006  0.3212  0.0718 -0.1920
 1872W        W18006  13.102   5.413  13.523  0.0164  0.0111  0.0193
 1873W        W18007  17.152   2.379  12.441 -0.1215 -0.1467 -0.1393
 1874W        W18008  10.913  13.542   3.787  0.2082 -0.3289  0.1769
 1875W        W18009   4.808  17.561  12.196  0.1253  0.1309 -0.4283
 1876W        W18010  11.284   8.601   9.985  0.0994  0.0843  0.0432
 1877W        W18011   0.873   4.458   2.941  0.0302 -0.0116  0.2710
 1878W        W18012  18.169   7.508   2.268  0.2254 -0.0416  0.1872
 1879W        W18013   8.825   5.618  14.175  0.1819 -0.3551  0.2876
 1880W        W18014  11.768  12.577   4.543  0.1057  0.0641 -0.1730
 1881W        W18015   2.041  14.726   3.720  0.1484 -0.1952 -0.0377
 1882W        W18016  11.013   1.414   3.878 -0.0342 -0.0666  0.1595
 1883W        W18017  17.066   7.072  14.236  0.0933 -0.0714  0.1164
 1884W        W18018   6.446  18.417   0.337  0.1080  0.1475  0.4114
 1885W        W18019  17.182   5.794  11.503 -0.0427  0.1808 -0.0356
 1886W        W18020  17.222  17.239   0.950  0.1119  0.3385  0.1216
 1887W        W18021   8.225  10.801   2.597 -0.1343  0.0410 -0.1422
 1888W        W18022   0.670  10.978  14.407 -0.0797 -0.0739  0.2300
 1889W        W18023  14.937   7.145   4.376 -0.0763  0.0727  0.0398
 1890W        W18024   5.847  17.313  10.897 -0.0953  0.1936 -0.0629
 1891W        W18025   9.670   3.793  12.641  0.0728 -0.1497  0.0482
 1892W        W18026  12.347   2.906   1.814 -0.0312 -0.3981  0.1984
 1893W        W18027  16.943  12.299  12.869 -0.0500 -0.0858 -0.2829
 1894W        W18028  12.477   3.909  10.124  0.0959 -0.0385  0.1930
 1895W        W18029  18.880   1.836  14.009 -0.2486  0.1282 -0.2129
 1896W        W18030  12.694   5.989  12.810  0.4426  0.1649  0.1327
 1897W        W18031  19.213   9.830   2.772  0.0834  0.2787  0.0627
 1898W        W18032  15.287  16.628   3.816  0.2212  0.1096 -0.0149
 1899W        W18033  13.790   9.952   0.762 -0.2422  0.1168 -0.0578
 1900W        W18034   1.375   5.394  10.908 -0.1264 -0.0056 -0.0693
 1901W        W18035   7.726  15.649   3.808  0.1512  0.1862  0.0329
 1902W        W18036  10.015  12.953   2.441 -0.2217  0.2745  0.0105
 1903W        W18037   4.167  11.302  12.161  0.2459 -0.0624 -0.0369
 1904W        W18038   7.506  18.949  10.537  0.0271  0.1419 -0.0600
 1905W        W18039  12.663  16.534   1.183  0.0097  0.2961  0.0629
 1906W        W18040  17.504  18.253   1.027  0.0789  0.0621 -0.0923
 1907W        W18041  18.043  11.594   1.592  0.1124  0.0868 -0.1902
 1908W        W18042   1.436   9.745  12.851 -0.1483 -0.0798  0.1053
 1909W        W18043   6.269   4.439   2.555 -0.0789  0.0567  0.2143
 1910W        W18044   4.692   5.728  14.726 -0.0367  0.0528  0.0479
 1911W        W18045  13.695   2.472   3.072  0.0445 -0.2552 -0.0270
 1912W        W18046   0.611   8.036  10.789 -0.0106 -0.0073 -0.1708
 1913W        W18047   7.471  12.762  11.424 -0.1271 -0.0979  0.0078
 1914W        W18048   5.262  11.046  13.936  0.2380  0.3764  0.1360
 1915W        W18049   7.685  12.279   2.993 -0.1239  0.1847 -0.1081
 1916W        W18050   9.114  15.490  14.139  0.0454 -0.2240 -0.2652
 1917W        W18051  19.200   3.642   0.479  0.0112 -0.2477  0.1010
 1918W        W18052   8.333  11.163  13.380  0.0067 -0.4251  0.3449
 1919W        W18053  14.195  14.736   3.769 -0.1837  0.1264 -0.1010
 1920W        W18054   6.857   2.088  12.276 -0.0102 -0.1920  0.1363
 1921W        W18055   8.140  13.322  14.735  0.0318  0.0064  0.0889
 1922W        W18056   2.121   6.537  13.983 -0.0258 -0.5142  0.0702
 1923W        W18057  18.498  14.181   1.956  0.1996 -0.4102 -0.2673
 1924W        W18058   5.352   2.819   2.527 -0.0109 -0.0505  0.2350
 1925W        W18059   5.382  17.511   3.144  0.1275 -0.1333  0.0319
 1926W        W18060   6.284   6.509  11.716  0.2086  0.1733 -0.0694
 1927W        W18061   6.292  17.558   5.734  0.0444 -0.2653 -0.1261
 1928W        W18062   0.355   6.052   3.681 -0.0158  0.0031 -0.1436
 1929W        W18063   3.208   3.199   1.828  0.2445 -0.0043  0.2777
 1930W        W18064   2.809  18.254   2.480  0.3603  0.1925 -0.2520
 1931W        W18065  17.072   7.073  12.726  0.1052 -0.0964 -0.1211
 1932W        W18066  15.980   2.965   4.522 -0.0501 -0.4050  0.1267
 1933W        W18067  19.114  10.747   2.451 -0.0454 -0.1091  0.1618
 1934W        W18068  12.382   5.791   1.814 -0.1968  0.1854 -0.0405
 1935W        W18069  14.433  11.223   3.258 -0.1116 -0.3572 -0.1164
 1936W        W18070   7.941   9.090   0.867 -0.3090 -0.0308 -0.1702
 1937W        W18071  16.169   6.861  13.856 -0.0634 -0.1339 -0.2075
 1938W        W18072   6.183  19.238  13.310 -0.3377 -0.0849 -0.1490
 1939W        W18073  18.162  13.693   0.407 -0.0448  0.1565 -0.1616
 1940W        W18074  10.961  15.744  11.440  0.0518  0.2457  0.0640
 1941W        W18075  16.922   8.791   2.364 -0.0979  0.0174 -0.0489
 1942W        W18076   4.136  15.939  11.240  0.1696 -0.2894 -0.1146
 1943W        W18077   1.679  14.241  11.943  0.2266 -0.1020 -0.0917
 1944W        W18078  16.961   5.460   2.341  0.0110  0.0396  0.0469
 1945W        W18079  16.094  10.782  14.660 -0.1124 -0.2292  0.0134
 1946W        W18080   6.748   2.192   3.935 -0.0500  0.2624 -0.1293
 1947W        W18081  18.424  12.857  13.215  0.0512  0.0007 -0.2717
 1948W        W18082  14.189   0.222   1.472  0.2937 -0.1238  0.0228
 1949W        W18083   9.114   0.102   1.649 -0.0581  0.1636 -0.1605
 1950W        W18084   5.362   6.450  11.723 -0.1870 -0.0385 -0.3111
 1951W        W18085   0.441   7.162   2.320  0.0297 -0.2953 -0.2049
 1952W        W18086   6.802  18.082   0.357  0.1728  0.3630 -0.1116
 1953W        W18087   7.478  13.616  12.324  0.0348 -0.2292 -0.2517
 1954W        W18088   2.669   7.431   4.372 -0.1552 -0.0903  0.0429
 1955W        W18089   6.214   6.943  12.426 -0.0076  0.0749  0.3814
 1956W        W18090  12.163  15.717  12.350  0.1319 -0.2413  0.1182
 1957W        W18091   7.015   2.897  11.155  0.1316  0.1987 -0.0025
 1958W        W18092  15.262  15.526  11.899 -0.0203 -0.0171  0.1654
 1959W        W18093   2.891  13.145  14.953  0.2959 -0.0940 -0.0456
 1960W        W18094  14.339  13.535  13.843 -0.1533  0.1396 -0.1906
 1961W        W18095   3.039   7.355  14.411  0.1312  0.1723  0.1915
 1962W        W18096   1.346  17.073  10.823 -0.0970 -0.1368 -0.2160
 1963W        W18097  17.298   2.298  11.938 -0.1562 -0.0735 -0.0314
 1964W        W18098   2.433   9.068   4.781 -0.0152 -0.0744 -0.2054
 1965W        W18099  17.997   5.608  14.416 -0.0731 -0.1011  0.1131
 1966W        W18100   1.873   2.199  13.604 -0.4248  0.0701  0.4242
 1967W        W18101  15.916  14.516   3.244  0.4540 -0.0487  0.1540
 1968W        W18102   9.508   3.902   0.478  0.3082  0.0415 -0.0702
 1969W        W18103  18.775   5.756  11.767 -0.1922  0.0054 -0.3114
 1970W        W18104   7.395   0.972   3.892 -0.3788  0.1478  0.2153
 1971W        W18105  15.827   4.530   0.716 -0.0188  0.3614 -0.1926
 1972W        W18106   5.022   5.350  11.903  0.0946 -0.0058  0.0951
 1973W        W18107  10.653   4.058   3.672  0.0657 -0.0825  0.1554
 1974W        W18108  11.237  12.080   2.621  0.0502  0.1101 -0.0496
 1975W        W18109  10.943  16.624  13.027 -0.0798 -0.0012  0.2375
 1976W        W18110  11.891   7.009  14.025  0.0311 -0.2670  0.0200
 1977W        W18111   2.368  16.535  13.703 -0.2367  0.4360  0.2972
 1978W        W18112   3.713  14.345   2.233  0.0833  0.1528  0.1624
 1979W        W18113  18.910   8.668   3.937 -0.2966  0.0850 -0.1884
 1980W        W18114   8.305   4.077   3.249  0.2305  0.0355 -0.0542
 1981W        W18115   2.547   9.613  12.358 -0.0134  0.4824 -0.3082
 1982W        W18116   0.771  10.515   3.176  0.1125  0.1739  0.1752
 1983W        W18117  19.056   2.150  14.805 -0.2701  0.2023 -0.2421
 1984W        W18118  12.400   0.760   0.770 -0.1024 -0.0645 -0.2513
 1985W        W18119   9.263   0.043  11.354  0.0136  0.0540 -0.0353
 1986W        W18120   7.764   6.818  12.542  0.0327  0.3964 -0.2275
 1987W        W18121   8.636   4.817  12.996  0.1224 -0.2473 -0.1631
 1988W        W18122   9.453   8.716   4.025  0.2482  0.1939  0.2832
 1989W        W18123  11.993   6.381   3.728  0.1660  0.0342 -0.1157
 1990W        W18124   6.407   6.502   0.691 -0.0759  0.3395  0.0573
 1991W        W18125  16.995  11.566   0.327 -0.0633 -0.0217  0.1962
 1992W        W18126   2.907   7.108   5.301 -0.1471  0.2865  0.3481
 1993W        W18127   4.851   9.572   4.284 -0.3253 -0.1007 -0.0838
 1994W        W18128  10.648   0.311   1.446 -0.0656 -0.1903 -0.1573
 1995W        W18129  13.880   6.929   4.049 -0.3151 -0.0481  0.0256
 1996W        W18130   7.291   1.848  12.252 -0.2466  0.1482  0.0220
 1997W        W18131   6.386  13.351   3.997  0.0757 -0.1666  0.0020
 1998W        W18132   7.884  12.727   2.813  0.0182  0.2448  0.1784
 1999W        W18133  14.238   0.255  12.841  0.1824 -0.0279  0.1394
 2000W        W18134   6.380  16.309  13.359 -0.1433  0.2089 -0.1069
 2001W        W18135   5.514   9.594   1.568 -0.0674 -0.1487 -0.1169
 2002W        W18136   4.982   2.651   0.195  0.1601 -0.0192  0.1386
 2003W        W18137   8.948  13.930  13.442  0.0149  0.0234  0.2815
 2004W        W18138  14.804   8.053   0.793 -0.2395  0.0444  0.0459
 2005W        W18139  13.861  11.293   3.074 -0.0957 -0.0545  0.0503
 2006W        W18140  15.207  13.173  12.781 -0.0204  0.1040 -0.0201
 2007W        W18141   2.917   2.551  11.400 -0.4428  0.0328  0.0113
 2008W        W18142  16.093   4.094  11.718 -0.2969  0.0007 -0.0819
 2009W        W18143   7.170  17.895  10.107  0.1910  0.2863 -0.0415
 2010W        W18144  12.069  15.584  13.372 -0.3857 -0.4183  0.0778
 2011W        W18145   4.629   2.401  12.200 -0.1073 -0.0286 -0.0337
 2012W        W18146  14.604   6.891  14.739 -0.0545  0.1014 -0.3156
 2013W        W18147   6.442   2.385  12.957  0.2730  0.1217  0.1639
 2014W        W18148   7.493  17.855  10.670 -0.2051 -0.1550 -0.0435
 2015W        W18149   9.842  15.059  11.945  0.4006 -0.2276 -0.3123
 2016W        W18150  12.840   0.136   9.575 -0.1776 -0.0691 -0.1005
 2017W        W18151   4.598   3.566   4.450  0.1418 -0.0584 -0.1283
 2018W        W18152  13.530   1.071  13.631 -0.2105  0.1493  0.2711
 2019W        W18153   9.754   4.546   1.517  0.0505 -0.1726  0.0235
 2020W        W18154   3.250  17.244   1.575  0.1906  0.0191 -0.0000
 2021W        W18155   3.148   5.558  10.680 -0.3063  0.0271 -0.6587
 2022W        W18156  10.112   7.168   1.867  0.1064 -0.2344 -0.2271
 2023W        W18157   8.258  17.147   0.234 -0.0777 -0.0215 -0.1488
 2024W        W18158  13.663  16.331   4.605  0.0020  0.2538 -0.0877
 2025W        W18159   4.523   1.402  14.625 -0.0469 -0.1399 -0.0359
 2026W        W18160  18.350   3.413   2.105 -0.1080 -0.0981  0.0112
 2027W        W18161  16.008   9.814  13.118  0.0484  0.2594 -0.3939
 2028W        W18162   0.195  11.844  12.857  0.0828 -0.2206  0.0806
 2029W        W18163   6.079   2.644  12.022  0.0917 -0.3324 -0.4733
 2030W        W18164  12.687   3.732  11.249 -0.0971  0.1394  0.0183
 2031W        W18165   2.189  17.821  14.558 -0.1507  0.0050 -0.1479
 2032W        W18166   4.574   2.846   1.887 -0.0864 -0.0257  0.0249
 2033W        W18167  11.813  12.752   2.240 -0.2567 -0.0917  0.2743
 2034W        W18168  16.486   0.263   2.457  0.1161  0.0035  0.1396
 2035W        W18169  18.752   8.564  12.579  0.1283 -0.1980 -0.2436
 2036W        W18170   2.240   7.788   2.905  0.4013  0.3112 -0.3913
 2037W        W18171  13.604  15.814   0.225  0.1337  0.4403  0.0988
 2038W        W18172  15.553   3.646   0.605  0.1385  0.2582 -0.0479
 2039W        W18173   4.927  12.458  11.530 -0.2927  0.1510  0.0751
 2040W        W18174   3.148  15.175   2.294 -0.0767 -0.0156  0.1211
 2041W        W18175   9.279   3.932  11.330  0.1780 -0.1043 -0.2961
 2042W        W18176  11.031  11.411   4.470 -0.0498  0.0920  0.0142
 2043W        W18177   4.379  10.422  13.835  0.1858 -0.2393 -0.0296
 2044W        W18178   6.364   1.844  10.623  0.1733  0.1546 -0.0468
 2045W        W18179   0.720  18.052  13.199 -0.0983  0.0243 -0.1338
 2046W        W18180   8.812  18.321   0.881  0.0229 -0.0858 -0.1224
 2047W        W18181  14.280   0.337  10.224 -0.2823 -0.1489 -0.2922
 2048W        W18182  12.489  17.213   2.916 -0.1396 -0.2706  0.0777
 2049W        W18183  18.561  13.881  12.727 -0.1517  0.1037 -0.1775
 2050W        W18184  13.861   0.675  11.773 -0.0743  0.0321 -0.3559
 2051W        W18185   2.732  18.672  14.823 -0.2277  0.2749  0.0481
 2052W        W18186   6.371   1.685  11.680  0.4751 -0.0999  0.2231
 2053W        W18187  11.435  18.030   0.319  0.1551 -0.2161  0.1603
 2054W        W18188  17.784  16.029   1.470 -0.1870 -0.4148  0.0350
 2055W        W18189  19.197  15.661   3.575 -0.4167  0.0590 -0.3148
 2056W        W18190  13.390   5.368  12.733 -0.2103  0.1469  0.4374
 2057W        W18191  18.141   4.270   1.985 -0.1514 -0.0317  0.3746
 2058W        W18192  17.546  16.061   0.824 -0.1618  0.1440  0.0414
 2059W        W18193   3.161   0.336  10.897  0.0786  0.0360  0.3630
 2060W        W18194   2.218   7.951   2.411 -0.1070  0.1191 -0.2334
 2061W        W18195   5.415   9.939   4.140  0.2038 -0.0004  0.1574
 2062W        W18196  18.297   0.243   4.295  0.1309 -0.2475  0.1306
 2063W        W18197   5.129   4.803   1.197  0.1938 -0.3697  0.1823
 2064W        W18198  13.543   3.881   1.663  0.0201 -0.0763 -0.0982
 2065W        W18199  13.957   6.772  12.583  0.0750  0.1878  0.0212
 2066W        W18200  16.068  12.007   5.460 -0.0228 -0.1389  0.0355
 2067W        W18201   0.423   7.158  10.996  0.2562  0.0017 -0.2329
 2068W        W18202  15.593   4.665   3.854 -0.0181 -0.0384 -0.1395
 2069W        W18203   6.863  15.919  13.796  0.1957  0.1346 -0.2644
 2070W        W18204  16.955   6.691  13.309  0.0014 -0.1899 -0.0699
 2071W        W18205   3.661   8.090  14.522  0.1729 -0.3491 -0.0011
 2072W        W18206  10.875  18.110  14.422  0.1957  0.1362  0.1017
 2073W        W18207  16.361  15.556   3.896  0.4485  0.2062  0.1668
 2074W        W18208   1.775   3.900  11.939  0.0982  0.0199  0.2350
 2075W        W18209  14.124   0.493  14.165 -0.0830  0.0079 -0.0954
 2076W        W18210  11.708  11.936   2.403 -0.0121 -0.1341 -0.5243
 2077W        W18211  13.384  17.937  13.591 -0.3269  0.1382 -0.2126
 2078W        W18212  14.646   6.527  13.766 -0.0811 -0.0714  0.0384
 2079W        W18213  11.780   8.536   3.631  0.0034  0.1838  0.0487
 2080W        W18214   0.192   7.818   9.732 -0.0663  0.3670  0.1738
 2081W        W18215  13.129   7.314  11.496  0.0775 -0.2258  0.3991
 2082W        W18216  10.976   0.248   1.081 -0.1405  0.0057 -0.0329
 2083W        W18217  12.110  17.395   1.373 -0.0733 -0.1754 -0.1077
 2084W        W18218  18.289  10.241   0.472 -0.2052 -0.0717  0.0652
 2085W        W18219   9.513  11.147   4.870 -0.0136  0.1325  0.1571
 2086W        W18220   3.079  10.232   3.757  0.0123 -0.2895 -0.4744
 2087W        W18221  16.197  19.099  11.255  0.1185 -0.2141  0.1075
 2088W        W18222  11.284   4.371   1.968 -0.1541  0.1143 -0.1652
 2089W        W18223  10.598   5.531   4.681  0.3826  0.3481 -0.0077
 2090W        W18224  12.594  17.891  12.240  0.0913  0.2063  0.3605
 2091W        W18225   0.493   4.335   2.253 -0.2900  0.0837  0.0194
 2092W        W18226  15.027  10.984   4.328 -0.0387  0.0892 -0.2273
 2093W        W18227   9.267   7.319   9.776 -0.0469 -0.1406 -0.1159
 2094W        W18228  13.557  17.468   5.177  0.2660  0.1652  0.0485
 2095W        W18229   9.792  15.882   4.591 -0.1419  0.2499 -0.2833
 2096W        W18230  17.492   1.598  12.696  0.0166 -0.2185  0.0992
 2097W        W18231   4.115   1.396  10.908  0.1578 -0.1545  0.0425
 2098W        W18232  18.906  14.970  11.169 -0.1303 -0.3767 -0.0432
 2099W        W18233   5.175  16.438   0.476  0.1845 -0.0861  0.1055
 2100W        W18234   9.563  13.097   2.254  0.1303  0.1868 -0.1370
 2101W        W18235  16.932   8.505   3.390  0.2525  0.0711  0.0894
 2102W        W18236  15.843  13.040   0.944 -0.2317  0.1071  0.3413
 2103W        W18237   6.887   7.840  12.298  0.1153 -0.1758 -0.1508
 2104W        W18238   8.349   1.238  10.625 -0.1893  0.1348 -0.0365
 2105W        W18239   9.342  10.771  14.829  0.0097  0.1014  0.2139
 2106W        W18240  13.359  18.548   3.254  0.1933  0.1067 -0.0227
 2107W        W18241   1.500  19.062   0.855 -0.3400  0.0675  0.1312
 2108W        W18242  13.505   5.587   0.392  0.0593 -0.1325  0.2997
 2109W        W18243   9.667  16.847   2.637 -0.0409  0.3967  0.1778
 2110W        W18244  13.443   7.354  14.725  0.1533  0.2831 -0.0185
 2111W        W18245   2.557  19.008  13.931  0.3013  0.0614  0.2436
 2112W        W18246   2.316   4.076  10.628  0.1517  0.1276  0.1409
 2113W        W18247  10.039   7.875   2.554  0.0260  0.0483 -0.1002
 2114W        W18248  10.886  10.454  10.437  0.1433  0.2044  0.1597
 2115W        W18249  10.015  12.203  12.859 -0.2260 -0.0991  0.3102
 2116W        W18250   8.340   8.593   0.772  0.1291  0.1258  0.4068
 2117W        W18251  10.202   9.969   4.328  0.3203 -0.0211 -0.1183
 2118W        W18252   2.270  17.995  10.948  0.3370  0.1905 -0.0115
 2119W        W18253  15.125   7.025  11.437 -0.0916 -0.1433  0.0697
 2120W        W18254  17.787   4.569   3.242  0.2448  0.3089  0.2036
 2121W        W18255  11.401   1.666  14.540  0.2577  0.4209 -0.0537
 2122W        W18256   0.246   7.842   1.584 -0.0610 -0.2543 -0.3245
 2123W        W18257  15.195   8.039   4.206  0.0334  0.4605  0.0221
 2124W        W18258   1.057   8.078  13.187  0.0382 -0.1107  0.2204
 2125W        W18259  16.439  10.363  14.814  0.0844 -0.0184  0.1166
 2126W        W18260   8.726  14.249   3.184 -0.0365 -0.1230  0.2854
 2127W        W18261  10.479   0.771  13.571  0.1988  0.0753 -0.0887
 2128W        W18262   5.800   9.952  11.147  0.0103  0.0552 -0.1009
 2129W        W18263   5.852   6.121  12.596  0.3108  0.0296  0.1449
 2130W        W18264  15.350   4.028  13.711 -0.0547  0.2756  0.0550
 2131W        W18265  17.703   6.702  11.974 -0.3646 -0.2782  0.0191
 2132W        W18266  10.259   0.340  11.568  0.1803 -0.0277 -0.2445
 2133W        W18267  17.922   7.705   1.879 -0.0203  0.6248  0.2819
 2134W        W18268   1.101   8.216   4.857  0.1550 -0.0848 -0.2721
 2135W        W18269   7.479   8.071  12.481 -0.3041  0.0032 -0.3199
 2136W        W18270  16.687   6.682   3.039 -0.0491  0.1352 -0.1048
 2137W        W18271   1.591  16.696   5.911 -0.0235  0.0199 -0.6079
 2138W        W18272   7.417  10.384   1.329 -0.2210 -0.1095  0.0545
 2139W        W18273  14.388   2.866   0.797  0.0535 -0.1873  0.1195
 2140W        W18274   3.473   0.601   4.816  0.1139 -0.2587  0.1067
 2141W        W18275   6.809  12.323   4.216  0.1918 -0.0872  0.1920
 2142W        W18276   2.953   9.118   4.071  0.1382 -0.3761  0.0853
 2143W        W18277  14.245  14.151   5.584  0.3660  0.1148  0.0328
 2144W        W18278  13.423   5.668   3.791 -0.1753  0.3056  0.0511
 2145W        W18279   2.584   7.540  14.033 -0.1911  0.0058  0.0244
 2146W        W18280  11.015  18.608  13.552 -0.0658 -0.0992 -0.0846
 2147W        W18281  15.794   2.080  13.531 -0.2724 -0.3095 -0.0418
 2148W        W18282  18.625  15.031  12.345  0.0579  0.3380 -0.1537
 2149W        W18283  16.879  11.529  10.893 -0.2499  0.0458  0.0871
 2150W        W18284   7.659   4.424  10.466 -0.2106 -0.2550 -0.3548
 2151W        W18285  11.653   0.982  14.528  0.0607  0.3616 -0.4509
 2152W        W18286  11.174   5.897   1.158 -0.3938  0.0811 -0.2581
 2153W        W18287  18.216  11.267  11.366 -0.0033 -0.0854 -0.2899
 2154W        W18288   8.333   3.670  12.397  0.0365  0.3797 -0.0776
 2155W        W18289  10.046   7.051  14.101 -0.1381 -0.4054  0.0508
 2156W        W18290   1.074  11.167   0.716  0.1590  0.0449  0.0438
 2157W        W18291   6.003   6.639  14.214 -0.0655  0.1103  0.4699
 2158W        W18292   2.814   9.534   4.608 -0.0215 -0.0402 -0.0888
 2159W        W18293  17.950   1.521  14.980  0.0788 -0.2023  0.1668
 2160W        W18294  10.341  17.652   0.804 -0.0676 -0.2074 -0.3518
 2161W        W18295   2.721  17.421   0.169 -0.0426 -0.0898  0.2080
 2162W        W18296  18.155   0.514  11.213 -0.2209 -0.1815  0.3375
 2163W        W18297  15.642   7.841  12.803  0.0177 -0.1217  0.2302
 2164W        W18298   1.467  18.055   0.520  0.2567  0.0031  0.0753
 2165W        W18299  15.538  10.697   1.325 -0.0710  0.0535 -0.2777
 2166W        W18300   4.283   3.703   2.338  0.0687  0.2530  0.0090
 2167W        W18301  16.260  14.229  14.918  0.1549  0.4273 -0.3888
 2168W        W18302   0.474   0.047  11.434  0.4191  0.1381 -0.2098
 2169W        W18303  10.129   8.586  13.592 -0.1211  0.5112  0.0186
 2170W        W18304  17.155   2.498  12.967 -0.2193 -0.0212 -0.0308
 2171W        W18305  19.017  18.364  13.477  0.1974  0.1371 -0.3603
 2172W        W18306  17.931   5.454  13.649  0.2580 -0.0556  0.0525
 2173W        W18307  14.724  10.483  10.524  0.2472  0.1769 -0.0644
 2174W        W18308   7.518  11.448   4.018  0.1542  0.3498  0.2520
 2175W        W18309   8.969   6.808  10.882 -0.0684  0.5396 -0.2271
 2176W        W18310   8.448  18.692  14.103  0.1032 -0.1317  0.2530
 2177W        W18311   4.051   1.517  13.814  0.0649 -0.0633 -0.0512
 2178W        W18312   1.665   9.114   9.624 -0.1945 -0.0845 -0.1221
 2179W        W18313  12.474   7.146   2.323 -0.1287 -0.4281 -0.1262
 2180W        W18314   3.248   1.029   1.390  0.3090  0.0921 -0.2636
 2181W        W18315   7.346  13.232   4.051 -0.2112  0.1784 -0.0632
 2182W        W18316  15.901   1.745   1.717 -0.2209  0.1902 -0.1459
 2183W        W18317   9.873   7.120  12.019  0.2509  0.2673 -0.0277
 2184W        W18318   0.032  15.805   4.191  0.0759 -0.0318 -0.1467
 2185W        W18319  10.219   8.070   2.083 -0.1973 -0.0059  0.1189
 2186W        W18320   3.051   6.411   9.481 -0.2031 -0.0828 -0.5147
 2187W        W18321  12.259   2.633   1.300  0.0911 -0.0708 -0.0382
 2188W        W18322  10.570   5.465   2.614 -0.1088 -0.0211 -0.3990
 2189W        W18323  15.444   0.921  13.420 -0.1152  0.2217  0.3169
 2190W        W18324  14.455   3.792  10.494 -0.0487 -0.0566  0.0189
 2191W        W18325  19.054   1.258  10.387 -0.0954  0.3294 -0.2319
 2192W        W18326  11.825  10.763  11.762  0.2592 -0.0660 -0.0937
 2193W        W18327   8.352  10.233  11.014 -0.5207 -0.0863 -0.1912
 2194W        W18328   0.258   5.899   2.807  0.1814  0.0196  0.3146
 2195W        W18329  15.393  15.152   3.667  0.1120  0.2339  0.0183
 2196W        W18330  15.221   6.092   9.315  0.2425  0.2827  0.0872
 2197W        W18331   9.481   5.037  12.830  0.1371  0.3216 -0.2157
 2198W        W18332   3.959  13.475   5.428  0.0024 -0.1181  0.1823
 2199W        W18333   3.310  15.747  11.683  0.1437 -0.0063 -0.0971
 2200W        W18334  11.417   7.041   4.023  0.1504 -0.2808  0.0743
 2201W        W18335  12.957   7.887  11.562 -0.0163 -0.1550 -0.5387
 2202W        W18336   0.557   1.051   5.088  0.0464  0.0681  0.0776
 2203W        W18337  15.749   8.502  13.275 -0.0747  0.2758  0.0116
 2204W        W18338   1.318   8.488   0.078  0.0234 -0.0624  0.0932
 2205W        W18339   0.120  14.800  10.705 -0.2980 -0.3845  0.2490
 2206W        W18340   9.091  16.729   3.311  0.1574  0.4246 -0.0210
 2207W        W18341   8.128   1.914  11.022  0.0572 -0.1301 -0.0911
 2208W        W18342  15.836  14.457  11.622 -0.1252 -0.2045  0.0487
 2209W        W18343  10.454   2.321  14.791 -0.1810  0.0669 -0.2218
 2210W        W18344   2.312  16.940  11.507 -0.2317 -0.0615 -0.3930
 2211W        W18345   3.229   0.193   4.443  0.1636 -0.3385 -0.0679
 2212W        W18346  12.223  15.726   1.519  0.1199 -0.5297  0.1280
 2213W        W18347  16.610  13.823  13.651 -0.0822  0.0882  0.1200
 2214W        W18348  10.620   2.521  13.762 -0.0715 -0.1264 -0.3360
 2215W        W18349   0.360  15.867   1.765  0.1297 -0.1992  0.1748
 2216W        W18350  14.189  12.692  11.318  0.0835  0.3710 -0.0909
 2217W        W18351  14.253   9.530   2.915  0.0367  0.2012 -0.0853
 2218W        W18352   3.170   6.974  11.123 -0.0398 -0.1513 -0.2228
 2219W        W18353   9.254  16.008   4.750 -0.0643 -0.1036  0.1176
 2220W        W18354   5.148  16.938   2.455  0.0773  0.0436  0.1987
 2221W        W18355  12.206   7.154   3.515 -0.2925  0.1249 -0.1091
 2222W        W18356   4.025  10.607   4.090 -0.1651 -0.0976 -0.2157
 2223W        W18357  17.519  16.613  11.965 -0.0677  0.1965 -0.1580
 2224W        W18358   8.052   5.713   3.034  0.0105 -0.2570  0.1327
 2225W        W18359   1.268   1.867   2.561  0.2583  0.1675 -0.2579
 2226W        W18360   6.935  14.220   2.033  0.4039 -0.0619 -0.1442
 2227W        W18361   6.090  13.081   4.362  0.0255 -0.0768  0.1817
 2228W        W18362   4.132   9.688  14.163 -0.2349  0.0008 -0.0106
 2229W        W18363  17.502   0.842   3.822 -0.1460 -0.0362 -0.1088
 2230W        W18364   7.747   3.317   3.982  0.0066 -0.3115  0.0935
 2231W        W18365  11.500  10.778  13.994  0.0082 -0.1890  0.1906
 2232W        W18366   4.301   6.219   2.404 -0.0764 -0.1306 -0.1510
 2233W        W18367   5.536  12.945   2.926 -0.0002  0.3775 -0.0761
 2234W        W18368   5.931   6.938   3.512 -0.1889 -0.1771  0.3306
 2235W        W18369   5.279  12.184  11.101  0.1341  0.3239 -0.0634
 2236W        W18370   3.844   8.709   4.527 -0.2716 -0.0357  0.2575
 2237W        W18371  10.720  12.658   9.766 -0.0593 -0.0525 -0.2026
 2238W        W18372   8.640   6.907   3.777 -0.1333 -0.0763  0.2514
 2239W        W18373   9.063   2.679  12.901  0.1053  0.0323  0.1726
 2240W        W18374  11.110   3.656  14.484  0.0490 -0.0225 -0.0732
 2241W        W18375  12.668  13.859   2.571 -0.1024 -0.2156 -0.0043
 2242W        W18376  17.562  10.054  12.756  0.3079  0.3863 -0.2830
 2243W        W18377  10.048   9.573   3.012  0.1248 -0.0551 -0.2717
 2244W        W18378  13.540   1.558   5.297  0.1778  0.1639  0.1887
 2245W        W18379   0.480   9.645   1.890  0.1661  0.0175 -0.0899
 2246W        W18380  12.320  16.219  11.461  0.0084  0.0947 -0.0821
 2247W        W18381  18.233  16.933   1.523  0.1677  0.1520 -0.0156
 2248W        W18382   3.562  14.156  12.066  0.0461  0.0587  0.0646
 2249W        W18383  14.043  16.434  14.745 -0.0718 -0.0657  0.1505
 2250W        W18384   2.251  18.708  14.545 -0.2106  0.0379 -0.0346
 2251W        W18385  16.454   3.795   3.274 -0.2745 -0.1081  0.1574
 2252W        W18386  14.555  14.637   0.720  0.3766 -0.0965  0.2006
 2253W        W18387   9.046  13.444  13.345 -0.3173  0.2184 -0.0653
 2254W        W18388  14.706   6.784  11.179 -0.2072  0.0371  0.4045
 2255W        W18389   8.617  14.357  12.201 -0.0844  0.0351 -0.1928
 2256W        W18390  14.117   3.476  14.535 -0.1617  0.1963  0.3792
 2257W        W18391   6.296   8.766   3.638 -0.1225  0.2140 -0.0502
 2258W        W18392  17.667   0.779  12.872 -0.2110 -0.1206 -0.1994
 2259W        W18393   4.165  10.168   2.283  0.0253  0.0505  0.1817
 2260W        W18394  17.292   8.507   9.452 -0.1311 -0.1797 -0.0489
 2261W        W18395   7.765  10.896  13.986 -0.0168 -0.0801  0.3819
 2262W        W18396   6.729  11.469  13.143  0.1748  0.1336 -0.1757
 2263W        W18397  16.512  13.370   2.607  0.0515 -0.1217 -0.3503
 2264W        W18398   4.699  15.917  15.016  0.2149 -0.1005 -0.0289
 2265W        W18399   4.754  17.390   0.384 -0.1404  0.1150 -0.1346
 2266W        W18400   6.774  14.989  12.249 -0.0236 -0.0925  0.0426
 2267W        W18401  16.267   4.759  11.959 -0.1133  0.2141  0.0232
 2268W        W18402   4.354   2.700   4.707  0.2091 -0.0487  0.3321
 2269W        W18403  18.445   9.146   1.232  0.1202 -0.1131 -0.2136
 2270W        W18404   0.135  16.520   4.313 -0.0702  0.0771 -0.0910
 2271W        W18405  15.429  13.351   0.367  0.0775 -0.2235  0.1288
 2272W        W18406   3.529   3.147  13.264 -0.0300 -0.1679  0.0864
 2273W        W18407   0.204   0.248   0.212  0.0013 -0.3257 -0.0589
 2274W        W18408  11.373   4.363   5.351 -0.0450  0.2264 -0.3227
 2275W        W18409   4.280  14.191   9.845 -0.5885  0.0684  0.1156
 2276W        W18410   2.519  14.384  15.028  0.2743 -0.0895  0.1347
 2277W        W18411  10.688   8.388   1.146 -0.3689  0.1560 -0.0667
 2278W        W18412   3.095   7.455   2.452  0.3262  0.0026  0.0815
 2279W        W18413  13.172  18.431   0.608  0.0824 -0.0621  0.1277
 2280W        W18414  13.207   9.500  11.600  0.1411  0.1383  0.1018
 2281W        W18415  17.998   9.570   4.569  0.2049 -0.1149 -0.1288
 2282W        W18416   2.231  17.447  12.792  0.2769 -0.3377  0.1368
 2283W        W18417  11.382   4.553   3.775 -0.0226 -0.1608  0.1189
 2284W        W18418   6.270   1.151  13.004 -0.3514 -0.1155 -0.0089
 2285W        W18419  10.354  17.204  10.033  0.0026 -0.1209  0.3319
 2286W        W18420   6.152   6.486   1.442 -0.2738  0.2184  0.0297
 2287W        W18421   6.077  15.449   0.992 -0.1785 -0.5071 -0.1725
 2288W        W18422  13.615  15.976   5.514  0.0305 -0.0627  0.0453
 2289W        W18423   6.816   7.315   1.833  0.1726 -0.0535  0.2768
 2290W        W18424   8.668   2.377   2.337  0.1546  0.0792 -0.0330
 2291W        W18425  17.863  18.924   3.320 -0.3095 -0.1220 -0.1842
 2292W        W18426  19.061  11.453  12.595 -0.2586  0.3984 -0.0339
 2293W        W18427  11.400   3.398  13.448  0.0200 -0.0672 -0.4929
 2294W        W18428  18.085  17.410   2.805 -0.0643  0.1128 -0.1198
 2295W        W18429  19.120   9.980  12.464 -0.1219 -0.4124  0.1293
 2296W        W18430   6.614   3.291  11.364  0.1241 -0.2720  0.0542
 2297W        W18431   0.595  18.601   3.687  0.1813 -0.5026 -0.2599
 2298W        W18432   4.271   6.384  11.873  0.2308  0.0872  0.2308
 2299W        W18433  14.106  16.126   5.434 -0.0648 -0.0976  0.1681
 2300W        W18434  11.476   4.312   4.864  0.1963  0.1157  0.0975
 2301W        W18435   3.311  12.944   1.582 -0.0079  0.0003 -0.2884
 2302W        W18436   4.628  17.077   3.062 -0.2735 -0.3413  0.0651
 2303W        W18437   0.463   2.399   4.689 -0.2111 -0.0367  0.2363
 2304W        W18438  12.121  16.216   1.731  0.0981 -0.0101 -0.0828
 2305W        W18439  13.078  10.361  13.440  0.0336 -0.2246  0.3016
 2306W        W18440   0.668   9.905  10.060  0.2716  0.2757 -0.0575
 2307W        W18441   3.950   7.879  12.853 -0.0535  0.0174  0.3725
 2308W        W18442   4.572   6.880   5.297  0.1795  0.0712 -0.1895
 2309W        W18443   2.388  16.161   2.705 -0.0803  0.1702  0.1853
 2310W        W18444  15.687  14.391   4.829 -0.0612  0.0044  0.0926
 2311W        W18445  16.460  19.052   3.485  0.1445 -0.0490 -0.1772
 2312W        W18446   2.972  10.659  13.562  0.2775  0.0203 -0.3569
 2313W        W18447   9.689   2.197  13.102  0.1491 -0.1904 -0.2010
 2314W        W18448  11.267  18.977   3.857  0.0801 -0.5061  0.1216
 2315W        W18449   0.178   4.382   5.171  0.0644  0.3558 -0.1530
 2316W        W18450   8.408   9.496  13.042  0.0427  0.2819  0.0620
 2317W        W18451   3.713   1.939  12.470  0.1773  0.5513 -0.0589
 2318W        W18452  16.356   6.111   1.003  0.1743  0.2045 -0.3362
 2319W        W18453  14.812   4.223   2.810  0.0969 -0.2705  0.0576
 2320W        W18454  12.180   9.771  12.475  0.0689  0.1865  0.1980
 2321W        W18455   6.294   5.000  11.544  0.2863 -0.2417 -0.1224
 2322W        W18456  14.698  16.986   1.151 -0.1322  0.1427  0.3441
 2323W        W18457   8.966  17.927   4.265 -0.0456  0.0706  0.1922
 2324W        W18458  10.039  16.497  14.950  0.2518 -0.1313  0.2679
 2325W        W18459   5.772  12.260   1.086  0.4798 -0.0393 -0.0849
 2326W        W18460   8.650  15.722   1.338 -0.2422 -0.0590 -0.1055
 2327W        W18461  10.885  18.529   2.690 -0.1224  0.0488 -0.1276
 2328W        W18462   8.074  14.841   0.009  0.0749  0.0624 -0.0380
 2329W        W18463  10.930  10.051  14.457 -0.1079  0.1075 -0.3154
 2330W        W18464   6.425   0.200   3.408 -0.0248 -0.2203 -0.3352
 2331W        W18465   0.722   4.716   2.486 -0.2687  0.1540  0.0274
 2332W        W18466  16.276   3.281   3.155  0.0723  0.1834  0.1390
 2333W        W18467   3.145   7.018  13.492  0.1948  0.3400 -0.0152
 2334W        W18468  15.511   3.184   2.770 -0.0615  0.1299 -0.0296
 2335W        W18469   9.457   8.417  12.713 -0.2988  0.2074 -0.0438
 2336W        W18470   9.128   2.627   4.635 -0.0396  0.0257  0.3668
 2337W        W18471   0.106   2.171   1.909 -0.0146  0.0172 -0.1452
 2338W        W18472   6.304   8.611   0.737  0.1513  0.0193  0.0789
 2339W        W18473  11.226  15.203   2.216 -0.0982  0.0532  0.0420
 2340W        W18474   6.457  10.026   5.071 -0.0492  0.0515 -0.2347
 2341W        W18475  11.298   9.576  12.929 -0.2204 -0.3114  0.1585
 2342W        W18476  16.535  12.962  13.525  0.2530  0.1739  0.1834
 2343W        W18477  17.544  16.219  14.216 -0.1771  0.1136  0.1184
 2344W        W18478  10.747  13.228  11.776  0.1450  0.0263 -0.0776
 2345W        W18479  12.323   8.396   2.268  0.1631  0.2595  0.1797
 2346W        W18480  16.011  18.636   5.060  0.0152  0.1940  0.1261
 2347W        W18481  14.374  17.051   3.630  0.0656 -0.0937  0.2220
 2348W        W18482   8.841  14.468   5.765 -0.0084 -0.0313  0.0979
 2349W        W18483   6.669   8.030   3.456  0.1232 -0.0692  0.1127
 2350W        W18484   4.001  16.066   3.547  0.1969  0.0963  0.2934
 2351W        W18485   0.040   3.081   3.056  0.1782  0.1633  0.3016
 2352W        W18486   9.784  13.417  11.800 -0.3474 -0.2831  0.2500
 2353W        W18487   7.513  18.774   0.268  0.1357 -0.0034 -0.5706
 2354W        W18488   0.661  18.311   2.732  0.0490  0.1112  0.0400
 2355W        W18489   5.186  10.777  10.289  0.1079 -0.1710  0.2077
 2356W        W18490   6.205   1.742  14.270  0.2756 -0.3943 -0.3336
 2357W        W18491  14.733  10.558   4.521 -0.4157 -0.0460 -0.0322
 2358W        W18492   0.556   9.940  14.372  0.1636 -0.0176 -0.1192
 2359W        W18493  11.483   9.442  13.779  0.1153 -0.2040 -0.1169
 2360W        W18494  19.005   3.510  14.264  0.0331  0.0452  0.0687
 2361W        W18495   2.351  12.343   2.773  0.0711  0.0214  0.0140
 2362W        W18496  14.525  12.777  14.943 -0.3742 -0.0889 -0.1005
 2363W        W18497   5.411   9.142  12.767 -0.0773  0.1890  0.3454
 2364W        W18498  13.943   6.518  11.186  0.0051 -0.0387  0.3263
 2365W        W18499   3.295   9.452   0.158  0.3404 -0.1423  0.0448
 2366W        W18500   0.306  19.133   4.574 -0.0803  0.0081 -0.0016
 2367W        W18501  13.321   7.684   0.820  0.2233  0.2221  0.0187
 2368W        W18502  15.136  18.413  14.335 -0.1565  0.0996 -0.1619
 2369W        W18503   3.749   8.708  11.621 -0.3152  0.1090  0.1271
 2370W        W18504  13.920  17.449  13.283  0.2555 -0.1863 -0.1483
 2371W        W18505   8.507   7.356  14.766 -0.0472  0.1128  0.2971
 2372W        W18506  15.421   5.273  13.433 -0.0863  0.1242 -0.1467
 2373W        W18507   3.921   2.965  14.214 -0.0899  0.0475  0.3584
 2374W        W18508  13.758   7.551   2.689 -0.1640  0.1855 -0.3068
 2375W        W18509   4.831  13.107   0.948  0.3187 -0.1436  0.0266
 2376W        W18510   0.252  15.139   0.624 -0.1643  0.3136 -0.2731
 2377W        W18511   4.860   0.036  12.494 -0.0904 -0.3279  0.1433
 2378W        W18512   9.104   2.168   2.449 -0.2053 -0.3227  0.1872
 2379W        W18513  15.290   6.746  10.190  0.0138  0.0676  0.2155
 2380W        W18514  16.878   8.726   0.041  0.2700  0.1001  0.0589
 2381W        W18515   2.349  18.151   0.470 -0.3818 -0.0774  0.1951
 2382W        W18516   1.418  18.093  11.150  0.0640  0.0718  0.3600
 2383W        W18517   8.023   5.226   0.966  0.0565  0.3988  0.0180
 2384W        W18518  14.570  12.800   0.736 -0.0914 -0.0975  0.2516
 2385W        W18519  15.124   6.535  13.960 -0.2732 -0.0188  0.0434
 2386W        W18520   9.354   7.636  11.881 -0.1256 -0.2099  0.2080
 2387W        W18521   5.913  16.826  14.437  0.3136  0.1371 -0.1422
 2388W        W18522   1.892   4.796  14.569  0.2438  0.1219  0.1338
 2389W        W18523   5.454  18.003  12.751  0.3273 -0.2336 -0.0430
 2390W        W18524  11.017   2.283   1.817 -0.0489  0.2221 -0.1752
 2391W        W18525  10.260  18.197   3.198  0.1240  0.5199 -0.1762
 2392W        W18526   2.660   6.193   4.095  0.1786  0.0084 -0.3405
 2393W        W18527  14.782   7.040   1.979  0.0354  0.1935 -0.0590
 2394W        W18528  12.142   2.006  13.343 -0.1888  0.1160 -0.3991
 2395W        W18529   6.551  18.895  13.175  0.1930  0.0867 -0.0886
 2396W        W18530  15.669  18.447  12.761 -0.0490 -0.0321 -0.0431
 2397W        W18531   1.112   0.077   3.519 -0.1898 -0.4505  0.0028
 2398W        W18532   2.440   1.836  14.534 -0.1501  0.0437 -0.4999
 2399W        W18533   9.982   5.027  11.607 -0.1615  0.4412 -0.0554
 2400W        W18534  12.004   2.285   0.662  0.3002 -0.1262 -0.1169
 2401W        W18535  18.695   2.050  14.473  0.1103 -0.1994  0.2322
 2402W        W18536  15.472  10.975   0.621  0.1461 -0.0128  0.3840
 2403W        W18537  13.195   0.396  12.055  0.0292  0.0698  0.1821
 2404W        W18538   9.656  18.982   4.530  0.1144 -0.0099 -0.3140
 2405W        W18539  19.014  15.516  14.223 -0.3026 -0.0254  0.0120
 2406W        W18540   3.572  12.466   1.873 -0.1007 -0.0157  0.0699
 2407W        W18541  11.645  15.801   3.902 -0.1507 -0.0771  0.0797
 2408W        W18542  12.559  17.077  12.842 -0.1218  0.0173  0.1137
 2409W        W18543   1.365   7.359  12.951 -0.0429 -0.1030  0.0056
 2410W        W18544   5.448  17.978  14.903  0.0098 -0.0304 -0.1544
 2411W        W18545   0.619  19.077   1.609 -0.1346 -0.0498 -0.0389
 2412W        W18546  15.619  19.090   5.172 -0.0435 -0.0271  0.1351
 2413W        W18547   9.109   5.860   3.812 -0.1861 -0.0701 -0.0883
 2414W        W18548   7.552  12.542   5.241 -0.0668  0.0761  0.0635
 2415W        W18549   6.189  10.876   4.306 -0.0278  0.0791  0.2870
 2416W        W18550  15.935   1.609   4.700 -0.1469  0.1887  0.2013
 2417W        W18551  16.370   0.335   4.681 -0.1180 -0.0689  0.0189
 2418W        W18552   6.330  12.901   0.263 -0.2940 -0.1659  0.1729
 2419W        W18553  12.575   5.341  10.999 -0.2333 -0.0553 -0.0620
 2420W        W18554   4.181   7.707   0.158  0.1145  0.2236 -0.1022
 2421W        W18555   7.057   0.807   1.733 -0.1120  0.1053 -0.1738
 2422W        W18556  18.733  14.831   1.345 -0.1892 -0.0652 -0.0762
 2423W        W18557  18.954   8.594   4.868  0.0564  0.0482 -0.0036
 2424W        W18558  16.570  14.574  11.107 -0.1901 -0.1529  0.3363
 2425W        W18559   9.930  14.671  11.609  0.2973  0.1455  0.1839
 2426W        W18560   1.428   3.473   5.598  0.0105  0.0671 -0.2106
 2427W        W18561  17.823  12.481  13.300  0.4643 -0.1537  0.2659
 2428W        W18562  14.647  12.571  13.569  0.2937 -0.1082 -0.5307
 2429W        W18563   7.580   0.728  14.806  0.0938 -0.1291  0.0790
 2430W        W18564   1.469   2.183   2.235 -0.0105 -0.1717 -0.0329
 2431W        W18565  18.685   1.002   4.613 -0.2421 -0.2443 -0.0250
 2432W        W18566  16.134   1.612  12.498 -0.3332 -0.2996  0.1405
 2433W        W18567   5.263   6.878   0.601  0.0434 -0.2073 -0.4008
 2434W        W18568  14.967   7.569  10.718 -0.0822  0.0269 -0.2238
 2435W        W18569   8.979  12.858  12.279 -0.1001 -0.1130  0.2409
 2436W        W18570  17.538  18.635  12.211 -0.1346  0.6705 -0.0527
 2437W        W18571   2.236   5.391   4.628 -0.0112 -0.2823  0.2155
 2438W        W18572  11.822   3.622   9.483 -0.1105 -0.0123 -0.0555
 2439W        W18573  13.936   4.391   4.718  0.0448  0.6186 -0.0886
 2440W        W18574   5.082  13.197   1.409  0.1379 -0.1714  0.2343
 2441W        W18575  10.885  12.195   3.964  0.1674  0.0852  0.0778
 2442W        W18576   6.122  12.152  14.219 -0.2600 -0.0640  0.0151
 2443W        W18577   0.389   5.094  11.041 -0.2665  0.1326  0.2259
 2444W        W18578  13.085  14.306  12.536  0.1362  0.1108  0.2170
 2445W        W18579   0.648  12.734   1.348  0.0524  0.4106  0.3242
 2446W        W18580  18.531  18.361   4.912  0.3249  0.1280 -0.1286
 2447W        W18581  11.030   9.006  10.303  0.1601 -0.2825  0.2623
 2448W        W18582   3.951   3.468   1.285  0.1590 -0.0680 -0.3622
 2449W        W18583  17.513   0.171  10.346 -0.4701  0.1106  0.3400
 2450W        W18584  18.428  15.750  14.862  0.2749 -0.0078  0.0903
 2451W        W18585  17.769  10.803   1.188 -0.0951 -0.2168  0.0321
 2452W        W18586  17.788   1.579  10.757 -0.1210  0.0911 -0.2510
 2453W        W18587  15.830  10.672  14.238  0.4070 -0.0227  0.0422
 2454W        W18588   0.312  18.842   1.263  0.0777 -0.0952  0.0464
 2455W        W18589  14.634  17.508   1.712 -0.3025 -0.2936  0.2522
 2456W        W18590  14.881   9.138  12.527 -0.0967 -0.6203 -0.2760
 2457W        W18591   4.351   2.606  14.141  0.0502  0.1125  0.0683
 2458W        W18592  17.183  16.877   1.280 -0.0295  0.0015 -0.0078
 2459W        W18593  10.754   7.069  12.378 -0.0890 -0.0187 -0.3826
 2460W        W18594  13.840   5.424  14.173 -0.1174  0.0534  0.1269
 2461W        W18595  18.559   1.202  13.381 -0.1496 -0.0868 -0.0728
 2462W        W18596  10.782  16.468   9.922  0.1233  0.1478  0.1003
 2463W        W18597  15.320   3.522  14.386  0.0027  0.0170 -0.0967
 2464W        W18598  11.985   9.526  14.714 -0.3824  0.0427 -0.0511
 2465W        W18599   8.431  11.392   1.445 -0.0601 -0.1101 -0.1536
 2466W        W18600   2.894   0.893   2.576  0.1540 -0.3129 -0.0919
 2467W        W18601   7.409   3.557   4.272 -0.0296 -0.1028  0.1290
 2468W        W18602  11.268  11.271  11.345 -0.2310 -0.0271  0.0794
 2469W        W18603   1.590   5.902  13.506 -0.2393  0.1589  0.0103
 2470W        W18604  13.694   5.445  12.385 -0.0287  0.0685  0.1398
 2471W        W18605  19.200  12.553   3.162  0.1005  0.3389 -0.1512
 2472W        W18606   4.189  14.850  11.956  0.1739  0.2423 -0.4869
 2473W        W18607   3.441   9.883   3.900  0.2231 -0.1417 -0.1520
 2474W        W18608  10.562   9.258  12.224  0.1179 -0.1506  0.0596
 2475W        W18609  13.356   3.770  11.880  0.0219  0.0630 -0.3101
 2476W        W18610  16.118  16.888   5.967 -0.0719  0.1813 -0.0787
 2477W        W18611   3.491   7.808   5.086  0.1000 -0.1668  0.0262
 2478W        W18612  14.153   7.730   0.329 -0.1283  0.2221  0.0779
 2479W        W18613  16.550  16.752   4.660  0.0844 -0.2894 -0.0045
 2480W        W18614   7.850   3.497  12.613  0.0047 -0.2145 -0.1538
 2481W        W18615   9.379   0.313  14.777  0.2343 -0.1860 -0.0072
 2482W        W18616   4.191  17.049   2.760 -0.0553 -0.1687 -0.0564
 2483W        W18617  13.086  18.048   3.634  0.0311  0.2300 -0.0858
 2484W        W18618   5.177  16.992   2.997 -0.1387  0.2602 -0.0320
 2485W        W18619  12.432  16.751  14.032  0.1777 -0.4816 -0.3629
 2486W        W18620   0.962   2.225  13.108  0.0855  0.0521  0.0306
 2487W        W18621   6.328  12.124   4.027  0.1387 -0.1870 -0.4222
 2488W        W18622  15.589   2.027   4.541 -0.1177  0.0188  0.2971
 2489W        W18623  17.508   2.544   2.767  0.3360 -0.0716  0.0513
 2490W        W18624  12.264  10.432  10.979 -0.0297  0.1685 -0.0587
 2491W        W18625   3.906  13.283   3.175 -0.1080  0.1510  0.0415
 2492W        W18626  16.918   6.952   5.504 -0.3714  0.0337  0.0565
 2493W        W18627  15.451   0.499  14.723 -0.0861 -0.1527 -0.1248
 2494W        W18628   8.277   9.859  11.676  0.0785 -0.2894  0.1661
 2495W        W18629  14.580   8.361   9.423  0.1432  0.0578  0.0184
 2496W        W18630   8.594  16.125  12.947 -0.1508 -0.0162  0.2510
 2497W        W18631  16.174   2.310   4.314 -0.1634  0.6435 -0.0633
 2498W        W18632  13.153   7.673   1.410 -0.4688  0.1702 -0.0336
 2499W        W18633   3.891  17.221   4.305 -0.1587  0.2125 -0.1182
 2500W        W18634  18.499  14.392   5.281 -0.3658  0.2176 -0.0913
 2501W        W18635  15.818  16.610  10.578  0.1733 -0.2052 -0.1484
 2502W        W18636   2.762   6.699  11.274 -0.1341 -0.1543  0.0696
 2503W        W18637   8.827  11.641  10.614 -0.2639  0.1658  0.0818
 2504W        W18638  10.127   8.831   1.593  0.1076 -0.1504 -0.3020
 2505W        W18639   4.404   3.510  10.051  0.0163  0.3217 -0.2896
 2506W        W18640   8.406   5.405  10.599 -0.0622 -0.3167 -0.0417
 2507W        W18641   4.311   6.007  10.766  0.3551 -0.2329 -0.1164
 2508W        W18642  18.274  17.588   5.162 -0.0153 -0.2735 -0.1858
 2509W        W18643   5.639   6.601  14.714  0.2244  0.0391 -0.0418
 2510W        W18644   2.407  17.800  14.087  0.4711 -0.1301  0.0446
 2511W        W18645  13.364   7.875  12.815 -0.2164  0.0001  0.0403
 2512W        W18646  15.731   9.814  12.451 -0.1749 -0.3714 -0.0620
 2513W        W18647  17.424   1.130  13.483  0.0507 -0.1059  0.0805
 2514W        W18648   3.823  12.395   3.159 -0.4435 -0.0261 -0.0019
 2515W        W18649   1.860   0.495   1.668  0.2022 -0.0282 -0.1846
 2516W        W18650  15.012   6.271   1.664  0.0121  0.0719 -0.1194
 2517W        W18651  12.261  16.623   1.493 -0.4097 -0.1092 -0.0856
 2518W        W18652   1.204  15.525  12.550 -0.0562  0.0156  0.1642
 2519W        W18653   3.783   4.990   3.583 -0.1903  0.1810 -0.3994
 2520W        W18654  12.657   8.423  12.285  0.0086 -0.1030  0.0785
 2521W        W18655  11.784  14.006   5.133  0.0698 -0.0715 -0.0796
 2522W        W18656   2.551   7.984  11.399  0.0729  0.0265  0.0954
 2523W        W18657  14.810  10.271   3.054 -0.0014 -0.2039  0.0372
 2524W        W18658  11.142  14.115  10.658 -0.1470  0.0635 -0.0666
 2525W        W18659  13.554  18.480  11.603 -0.0467  0.3666 -0.0813
 2526W        W18660   9.212  10.375  11.609 -0.1041  0.0256  0.2224
 2527W        W18661   6.673  17.613   2.347  0.0051 -0.0950  0.0043
 2528W        W18662  13.744  12.027   4.817  0.2149 -0.2625  0.0206
 2529W        W18663  12.886  15.053   0.573 -0.3512  0.3922 -0.0812
 2530W        W18664   3.492   9.305  13.389 -0.0228  0.1009 -0.1608
 2531W        W18665   8.101   4.749  12.804  0.0584  0.0215  0.1667
 2532W        W18666   3.916  15.569  13.523 -0.0363 -0.1742  0.0021
 2533W        W18667  13.801   1.264  14.622 -0.2788  0.3392  0.0683
 2534W        W18668  12.511  18.049   0.807 -0.2387 -0.2344 -0.0559
 2535W        W18669  15.110   7.481  11.198 -0.1480  0.0742 -0.1763
 2536W        W18670  17.533   1.037  12.074  0.1353 -0.1607 -0.0371
 2537W        W18671  12.190  15.273   4.944 -0.2141 -0.4309  0.1712
 2538W        W18672  12.658   7.711   1.416  0.2223  0.1945 -0.1892
 2539W        W18673  10.748  10.151  14.963 -0.0144  0.1021 -0.2557
 2540W        W18674  11.198  17.891   1.413 -0.0265 -0.0016  0.0381
 2541W        W18675  13.326  17.819  15.030  0.2775  0.0005 -0.1762
 2542W        W18676  19.103   6.888   3.810 -0.2172  0.1275  0.0779
 2543W        W18677   0.724   6.622   9.803  0.0757 -0.1100  0.0229
 2544W        W18678  12.209  12.183   2.238 -0.3201 -0.1845 -0.3200
 2545W        W18679  17.171   4.448   1.195  0.2443 -0.0809 -0.2035
 2546W        W18680   9.455  17.333   0.280 -0.1603  0.1081 -0.0952
 2547W        W18681  17.863   4.111   0.755  0.1885  0.1142  0.2843
 2548W        W18682  18.802  10.734  11.317 -0.2417  0.3188 -0.0079
 2549W        W18683  10.785  16.265  10.562 -0.3100 -0.0123  0.0645
 2550W        W18684   0.970  15.747   3.230  0.0204 -0.2011  0.1180
 2551W        W18685   5.367  16.632  12.984  0.0619 -0.3316  0.3064
 2552W        W18686   0.892   2.880  10.963 -0.0642 -0.1132  0.0230
 2553W        W18687  12.058  14.431  10.894  0.1771  0.0815 -0.2616
 2554W        W18688  14.427   4.387   2.241  0.2174 -0.1184 -0.2240
 2555W        W18689  14.884   3.607   5.714  0.0476 -0.0446  0.2633
 2556W        W18690   6.503   7.394   2.689 -0.1083 -0.1381 -0.1393
 2557W        W18691   5.255   2.230   2.844  0.2468  0.2802  0.0119
 2558W        W18692  11.844  13.586   2.597  0.2485  0.2718 -0.0705
 2559W        W18693  18.168  11.389   0.579  0.2783 -0.0163  0.1453
 2560W        W18694  14.210  18.654   3.339 -0.0706  0.0440 -0.1858
 2561W        W18695   9.811  14.518   0.101  0.0855  0.0645 -0.1166
 2562W        W18696   6.117   2.697  13.952 -0.0821 -0.1726  0.1242
 2563W        W18697   9.325  10.296   4.078 -0.0349  0.0375 -0.0294
 2564W        W18698  18.443  13.300  13.626 -0.1492  0.0843  0.0336
 2565W        W18699   9.015   1.300   2.967 -0.0793 -0.1028 -0.0347
 2566W        W18700   7.223   6.942  14.995  0.0800 -0.0258  0.4174
 2567W        W18701   8.200  10.443   3.858  0.4126 -0.0130 -0.2997
 2568W        W18702  11.123  17.578   3.757 -0.1348 -0.4825  0.0472
 2569W        W18703   7.675   1.864   1.346  0.4988 -0.1395 -0.2113
 2570W        W18704   4.546  18.738   4.438  0.4846 -0.1859 -0.2784
 2571W        W18705   1.707  10.575   4.122  0.4205 -0.1117  0.0469
 2572W        W18706   0.915  16.936  12.955  0.2029  0.1069  0.0255
 2573W        W18707  12.175   8.930  14.093  0.0516  0.1630  0.2697
 2574W        W18708  13.610   3.551   3.893 -0.0422 -0.1699  0.0381
 2575W        W18709   3.533   4.151   3.682  0.1593  0.2408  0.2300
 2576W        W18710  13.730  18.554   0.949  0.1886 -0.1620  0.1650
 2577W        W18711  13.597  12.851   2.121  0.0612 -0.1255 -0.1194
 2578W        W18712  16.835  11.332  14.840  0.1832  0.4500  0.2579
 2579W        W18713  18.644   1.951  12.840 -0.0445 -0.1588  0.3059
 2580W        W18714  14.287   3.933  10.942 -0.0291  0.1409  0.0337
 2581W        W18715  10.177   4.211   1.514  0.1101 -0.0790  0.1282
 2582W        W18716  13.741   8.620  14.846 -0.0750  0.0034  0.0012
 2583W        W18717   3.882  12.229  13.809  0.1135  0.0047  0.1132
 2584W        W18718   3.209   7.707   0.612 -0.1589 -0.5117 -0.0641
 2585W        W18719   0.505  12.287  14.875 -0.0615 -0.0379 -0.2932
 2586W        W18720  17.880  19.078  12.998 -0.4819  0.1567  0.0443
 2587W        W18721   6.922   5.680  12.426  0.0158 -0.0034  0.0469
 2588W        W18722  13.021   5.803   0.072 -0.1547 -0.3065 -0.0454
 2589W        W18723  11.651   4.053   3.832 -0.3715 -0.3306 -0.1070
 2590W        W18724   0.533   8.464  13.826  0.2364 -0.1114  0.2029
 2591W        W18725  17.467  12.474   1.491  0.3424 -0.2760  0.1027
 2592W        W18726  17.239   7.971   3.114 -0.1671  0.0024  0.1580
 2593W        W18727  17.522   7.331   4.999 -0.1732  0.1235  0.1832
 2594W        W18728  15.434   4.846   1.468 -0.2360 -0.0847 -0.0834
 2595W        W18729  14.943  11.278  13.334  0.0048 -0.2798  0.0311
 2596W        W18730  10.918   8.784   0.757 -0.2070 -0.2639 -0.0124
 2597W        W18731   4.494  11.747   2.632 -0.1938  0.0483  0.1293
 2598W        W18732   2.133   5.645  14.434 -0.0814 -0.1838  0.0081
 2599W        W18733  17.731   8.492  10.665 -0.1639  0.1114  0.1757
 2600W        W18734  11.077   0.625  11.384  0.2955  0.0170  0.0490
 2601W        W18735   5.358   9.724   1.054  0.0550  0.1416 -0.0494
 2602W        W18736   7.059  13.986   4.621 -0.2207 -0.1415 -0.1350
 2603W        W18737   3.268   0.148  14.711 -0.1230 -0.3145 -0.2164
 2604W        W18738  17.161   7.602   0.295  0.0994 -0.0933 -0.1213
 2605W        W18739   1.537  15.244   1.901  0.0431  0.0435 -0.0883
 2606W        W18740   5.144   4.265  12.805 -0.0373 -0.0206  0.0460
 2607W        W18741  11.620   8.235   4.068 -0.0030  0.1109 -0.2505
 2608W        W18742  16.258   6.789  10.440 -0.2262 -0.0508  0.0587
 2609W        W18743  18.735  18.633   0.963  0.0602 -0.1617 -0.2652
 2610W        W18744  13.008   5.059  13.101  0.0559 -0.0925 -0.0116
 2611W        W18745   2.017   8.591  13.269  0.2272 -0.0600  0.2597
 2612W        W18746   3.890  19.028   3.769 -0.0925  0.2596  0.0521
 2613W        W18747  12.708  13.625  14.688 -0.1946 -0.1500  0.0145
 2614W        W18748  17.558   1.370   0.852  0.1163 -0.0861 -0.2410
 2615W        W18749   9.582   1.317   0.877  0.0867  0.2076  0.1256
 2616W        W18750  13.605  10.317   1.053 -0.1312 -0.2002  0.1889
 2617W        W18751  18.776  18.463  13.892 -0.2032 -0.2218  0.4471
 2618W        W18752   6.315  17.406   1.517 -0.0958  0.0292 -0.4824
 2619W        W18753   6.144   8.065  13.792  0.1782 -0.0979  0.0539
 2620W        W18754   3.563  15.193   1.007 -0.1627  0.0495  0.1568
 2621W        W18755  18.610  18.534  11.614 -0.3375  0.1674 -0.1987
 2622W        W18756  14.943  10.135   4.735  0.1302 -0.0448 -0.3987
 2623W        W18757   0.210  16.087   0.471  0.0080  0.1990 -0.3953
 2624W        W18758  13.375  16.229  11.206  0.2341  0.2015  0.2227
 2625W        W18759   0.702   6.986   4.860 -0.1749  0.2504 -0.1396
 2626W        W18760  12.967  16.800   2.190 -0.5151 -0.2409  0.1151
 2627W        W18761   9.750   7.920   2.988 -0.0672  0.1381 -0.5259
 2628W        W18762  14.611  15.307  13.862  0.2059  0.1255 -0.2022
 2629W        W18763  11.690   3.142   2.731 -0.0397 -0.0356 -0.1411
 2630W        W18764  14.437  13.537  10.044 -0.0462 -0.0629 -0.2076
 2631W        W18765  17.222   3.794  10.633 -0.0338  0.1493 -0.2117
 2632W        W18766  12.010   5.072   4.309  0.1484  0.0517 -0.0210
 2633W        W18767  12.411   5.572   1.336  0.0054 -0.1889 -0.0321
 2634W        W18768  12.450   6.471   1.070  0.0651  0.3329 -0.2492
 2635W        W18769  11.554   6.097  10.639 -0.1404 -0.1280  0.2321
 2636W        W18770  15.294  15.723   5.536 -0.0047  0.0509  0.2490
 2637W        W18771  14.879   5.685   4.638 -0.3444 -0.0661  0.4079
 2638W        W18772   3.242  17.986   2.599  0.1111 -0.0248  0.5920
 2639W        W18773  13.943   3.409  13.393 -0.2706  0.0634  0.1246
 2640W        W18774   4.564  14.443  11.090  0.0001 -0.2306 -0.1446
 2641W        W18775  16.192  12.065   1.394 -0.0431  0.1977 -0.1960
 2642W        W18776  17.069   5.231   0.236  0.0518 -0.2076  0.0236
 2643W        W18777   9.809   0.206  14.004  0.1192 -0.0171  0.0432
 2644W        W18778  13.954   4.804  10.948 -0.0892 -0.0368  0.2805
 2645W        W18779   7.702  10.517  10.486 -0.0971  0.2112  0.0414
 2646W        W18780  14.648   7.377  10.336 -0.0577 -0.0288 -0.0884
 2647W        W18781  12.176   1.827  12.355  0.2064  0.1001 -0.1676
 2648W        W18782   2.353   9.108  12.120  0.3382  0.3196 -0.1064
 2649W        W18783   4.354  12.215   3.126 -0.1573 -0.1909  0.2289
 2650W        W18784   8.599  11.626   3.038  0.2669 -0.0581  0.0907
 2651W        W18785   0.665  15.841   4.289 -0.2371 -0.2790  0.0678
 2652W        W18786   8.708  13.719   2.220 -0.5297  0.2748 -0.1710
 2653W        W18787   9.788  14.690   1.758 -0.0016 -0.0679  0.0583
 2654W        W18788  11.920  15.683  10.422 -0.1402  0.0009 -0.0490
 2655W        W18789   3.520   6.892   5.313 -0.0488 -0.3138 -0.0850
 2656W        W18790   5.796   0.825  10.118 -0.3576  0.0660  0.0512
 2657W        W18791   1.254  12.594  13.107 -0.2848 -0.2910  0.2330
 2658W        W18792  17.529  17.092  11.938 -0.0740  0.0281 -0.0829
 2659W        W18793   6.527   7.195  10.879 -0.0621  0.2221 -0.4196
 2660W        W18794  15.394   2.556   2.924  0.1188  0.5054  0.0623
 2661W        W18795  12.423   6.470  12.542 -0.2820  0.1873 -0.1557
 2662W        W18796  11.489  13.327  12.484 -0.1003 -0.2830 -0.3852
 2663W        W18797   5.474   5.880  12.956 -0.1484 -0.0343  0.1417
 2664W        W18798  12.087   3.949  13.248  0.0171 -0.0738 -0.3760
 2665W        W18799  10.740  18.122  12.335  0.1233  0.0756 -0.1818
 2666W        W18800  10.887   2.646   3.104  0.2191  0.3491  0.5286
 2667W        W18801  16.210  15.112  11.565 -0.2056  0.1519 -0.1659
 2668W        W18802  15.066  18.515  12.374 -0.0939  0.0837  0.1951
 2669W        W18803  11.415   5.207  11.357  0.3049  0.1299  0.0706
 2670W        W18804  17.880   7.098   4.380  0.2007 -0.0488 -0.0903
 2671W        W18805  15.895  12.543  10.365  0.0082 -0.3120  0.0669
 2672W        W18806  14.784  18.608   2.582 -0.2705  0.0831 -0.2740
 2673W        W18807   7.699  18.190   2.161 -0.2891  0.1773  0.0291
 2674W        W18808  13.035  19.228   4.208  0.2766 -0.0182 -0.1480
 2675W        W18809  14.605  17.749  14.951 -0.1572 -0.1491 -0.2442
 2676W        W18810  10.787  11.759  13.309  0.1687 -0.1646  0.3398
 2677W        W18811   4.235  17.651  14.821  0.0753  0.1363  0.5019
 2678W        W18812   6.396  15.606   1.749 -0.2025 -0.1960  0.1413
 2679W        W18813  13.788   3.829  13.077  0.0485 -0.1213  0.1052
 2680W        W18814   3.198  18.369   2.204 -0.3200  0.0495  0.0032
 2681W        W18815  12.924  17.571  10.985  0.0601  0.1762  0.1166
 2682W        W18816   9.892   4.910  13.849  0.0226  0.0157 -0.0050
 2683W        W18817  11.155  15.923   1.909  0.1184 -0.0219 -0.0838
 2684W        W18818   6.987  15.909  10.033 -0.1972  0.1044  0.1095
 2685W        W18819   6.857  13.755   5.076 -0.1190  0.2350  0.0668
 2686W        W18820   6.704   3.386  13.870  0.0037  0.0857 -0.0587
 2687W        W18821   1.242  16.212  11.074 -0.0804  0.2098  0.1794
 2688W        W18822  16.995  17.867  14.755  0.0252  0.1367  0.0436
 2689W        W18823  16.626  10.967  13.308  0.1188  0.0176  0.0984
 2690W        W18824   0.514   1.613  14.227 -0.0489 -0.0180 -0.0102
 2691W        W18825  13.808   4.982   0.993  0.0135  0.1404  0.0209
 2692W        W18826   0.087   6.488   3.543 -0.3475 -0.0412  0.1891
 2693W        W18827   3.254  10.047  14.011  0.0980 -0.0788  0.1345
 2694W        W18828   3.424  17.110   4.564  0.1337  0.1571  0.0345
 2695W        W18829   6.842   2.962   1.415 -0.0326 -0.4017  0.1303
 2696W        W18830  16.002  12.424  11.768  0.2689 -0.0087  0.1018
 2697W        W18831   0.051   7.417  11.753  0.2212 -0.0058 -0.4447
 2698W        W18832  16.492   7.053  12.040 -0.0541  0.1079 -0.2892
 2699W        W18833   2.222   5.952  11.139 -0.0386 -0.3003  0.0065
 2700W        W18834   4.366   5.326  14.167 -0.1712 -0.3704 -0.2230
 2701W        W18835   9.955   1.622  14.417  0.1515 -0.2030 -0.0265
 2702W        W18836  11.101  13.407   5.350 -0.0004 -0.2100  0.3886
 2703W        W18837  14.504   2.024  14.202  0.0413  0.0671 -0.2294
 2704W        W18838   1.447  11.158   3.925  0.1120 -0.0308 -0.3823
 2705W        W18839   9.247  12.260   3.519  0.3037  0.0760 -0.0957
 2706W        W18840   3.967   2.877   3.537  0.0940 -0.0859 -0.0358
 2707W        W18841  14.670   9.626   1.507  0.0782 -0.1008  0.0372
 2708W        W18842   7.107   0.080  10.965  0.0083 -0.1410  0.0269
 2709W        W18843  17.106   9.332  12.071 -0.2611  0.2996 -0.0315
 2710W        W18844   1.031  15.621   3.709 -0.1277 -0.1200  0.2279
 2711W        W18845  19.008   6.058   3.330 -0.0084 -0.0509 -0.0397
 2712W        W18846  17.332  16.640  14.664 -0.0034 -0.2171 -0.1722
 2713W        W18847   2.273   6.415   1.347  0.2040  0.0268 -0.1849
 2714W        W18848  14.564   4.756  11.790 -0.2172 -0.0221  0.1579
 2715W        W18849  17.017   6.673   1.514  0.0079 -0.2330  0.0987
 2716W        W18850  11.967  18.655  11.644 -0.0021  0.1123  0.2104
 2717W        W18851  11.731   5.817  14.544  0.1773  0.0389  0.0946
 2718W        W18852  11.004  14.525   1.617 -0.1662  0.0644  0.0386
 2719W        W18853  13.911   7.035  12.968  0.0166 -0.2250 -0.3265
 2720W        W18854   3.688  11.118   3.570 -0.0411 -0.1026 -0.1653
 2721W        W18855  15.776   5.756   1.802 -0.0564  0.1453 -0.2454
 2722W        W18856  14.543  13.668   1.222  0.0747  0.1117 -0.1330
 2723W        W18857  18.329   7.631   3.128  0.0221 -0.2175 -0.2456
 2724W        W18858  10.507   7.120  10.139  0.1864  0.1917  0.3952
 2725W        W18859   6.558   8.092   2.319 -0.2024 -0.0526  0.2173
 2726W        W18860   8.940  11.409  11.112  0.0943  0.2196 -0.0611
 2727W        W18861  17.961  16.562   5.127 -0.3004 -0.1393  0.0292
 2728W        W18862  13.894  12.279  12.480 -0.3291  0.2235  0.0775
 2729W        W18863  13.789   2.290   2.458 -0.0416 -0.2151 -0.0089
 2730W        W18864  18.894  16.725   4.387 -0.1375 -0.1431 -0.1695
 2731W        W18865   2.164  12.519   3.708  0.1118  0.0339  0.0525
 2732W        W18866   3.110   8.307  14.431  0.0075  0.3009 -0.0521
 2733W        W18867   6.888   9.993   0.244  0.2223 -0.3631  0.1339
 2734W        W18868  16.699   7.013  14.840 -0.2253 -0.5382  0.0641
 2735W        W18869   5.789  15.979  12.105  0.0674  0.2833 -0.0071
 2736W        W18870   6.987   8.625   0.011  0.0716 -0.1000  0.2141
 2737W        W18871   9.683  15.589   3.833 -0.0638  0.1346  0.0967
 2738W        W18872   4.416  10.877  12.044 -0.0544 -0.0383 -0.2645
 2739W        W18873   1.754   1.462   0.457 -0.2999 -0.0760 -0.1207
 2740W        W18874  10.233  16.733  14.548 -0.2263  0.2288  0.1895
 2741W        W18875   2.743   3.511  13.281 -0.0619 -0.1322 -0.1498
 2742W        W18876   8.691   0.034   3.209 -0.1463  0.1614  0.2532
 2743W        W18877   5.662  10.130   0.817 -0.0565 -0.1597 -0.0589
 2744W        W18878  10.739  15.102  10.952  0.3899  0.2540  0.0141
 2745W        W18879  11.804   5.530  14.983  0.0666 -0.1678  0.2531
 2746W        W18880   6.130  15.074   5.213  0.0113 -0.3133 -0.0230
 2747W        W18881   2.409   1.133  14.438  0.0431  0.0880  0.4722
 2748W        W18882   6.648   7.098  11.781 -0.2406  0.1375 -0.1751
 2749W        W18883   6.441  14.107   2.908 -0.1222 -0.1275 -0.1926
 2750W        W18884   9.379   8.765   0.851  0.0314  0.2245 -0.1425
 2751W        W18885  12.343   7.703  12.315  0.0747  0.2004  0.0033
 2752W        W18886   4.978   6.785  12.995  0.4177 -0.1373  0.1099
 2753W        W18887  17.995  14.777   3.762 -0.2572  0.2268 -0.2132
 2754W        W18888   7.745   8.771  13.250 -0.1307 -0.3041  0.0497
 2755W        W18889  17.845  15.325  13.581  0.1262 -0.1657 -0.3525
 2756W        W18890  15.234  15.897  11.028 -0.1888  0.1192  0.1705
 2757W        W18891   7.403  16.673  11.530  0.1906 -0.0439 -0.0388
 2758W        W18892  15.519  11.567   3.807 -0.0251 -0.1064 -0.0223
 2759W        W18893   4.076  16.546   2.372  0.0752  0.1059 -0.0077
 2760W        W18894   0.223   9.468   9.835 -0.2103  0.0382 -0.1129
 2761W        W18895  18.686   7.030   3.576  0.0032 -0.0305 -0.1072
 2762W        W18896   7.998   8.520  14.832 -0.2474  0.5165  0.1245
 2763W        W18897   1.336   7.577   0.320  0.1287 -0.1280 -0.4322
 2764W        W18898  15.322   0.553   3.729 -0.1349 -0.1173 -0.1234
 2765W        W18899   2.227  11.977  12.271  0.1708 -0.0709 -0.1115
 2766W        W18900   8.390  14.569   3.117 -0.2569 -0.1961  0.0537
 2767W        W18901   0.259  18.137   0.118  0.2155 -0.2577  0.2172
 2768W        W18902   2.050   1.309  11.653 -0.0019  0.0436 -0.0414
 2769W        W18903   1.807   7.168  13.457 -0.0175 -0.0371 -0.2254
 2770W        W18904  19.034  18.867  13.918 -0.0607  0.0641 -0.3058
 2771W        W18905   9.683   6.961   5.251  0.2201  0.2769  0.1605
 2772W        W18906   2.012   8.601  10.339 -0.1381  0.0997  0.1250
 2773W        W18907  16.981   9.497  11.147 -0.3223  0.0259  0.1768
 2774W        W18908  13.172   5.192  10.620  0.0231 -0.1060 -0.0332
 2775W        W18909  14.600  10.457   0.980  0.1925 -0.2294  0.1606
 2776W        W18910  16.465   0.889  13.455  0.4780  0.0057  0.0635
 2777W        W18911   1.763  13.656   3.935  0.3551 -0.0660 -0.0680
 2778W        W18912   9.995   6.955   2.440  0.5045  0.0826 -0.1083
 2779W        W18913   7.378   3.381   1.400  0.0470 -0.1769  0.2147
 2780W        W18914   7.227  12.690   2.195  0.0153 -0.1287 -0.0278
 2781W        W18915   6.175  17.581   5.249 -0.0181  0.0192 -0.4124
 2782W        W18916  11.546  16.440  11.210 -0.0544 -0.0818 -0.0917
 2783W        W18917   5.703   8.888   9.348  0.0388  0.2090  0.3154
 2784W        W18918  11.826   5.375  13.536  0.0879  0.0079 -0.3037
 2785W        W18919  19.163  11.890   4.643 -0.3966  0.0471 -0.0410
 2786W        W18920   9.993   2.249   3.155 -0.1750 -0.1619 -0.1609
 2787W        W18921   0.399   7.615   3.818 -0.1483  0.0212  0.2122
 2788W        W18922  14.308   0.606   4.820  0.2465  0.0851  0.0687
 2789W        W18923   1.904  17.700  11.160  0.2677 -0.1336 -0.2457
 2790W        W18924  18.601  11.138  11.025 -0.2539 -0.0288 -0.1354
 2791W        W18925  12.790   4.319   2.011 -0.3120  0.2461  0.0922
 2792W        W18926   8.351   1.827  10.588  0.3889  0.0323 -0.0363
 2793W        W18927  13.737  17.475   1.950  0.3547 -0.1540 -0.1589
 2794W        W18928   8.619  18.505   3.784  0.2981 -0.0754 -0.0902
 2795W        W18929   2.633   6.099   1.151 -0.1003 -0.0985 -0.2267
 2796W        W18930   6.599   4.406   9.650  0.0172  0.1104 -0.3322
 2797W        W18931   1.936  16.429   3.057  0.1526 -0.1728  0.1935
 2798W        W18932  17.350   4.473   4.139  0.1467  0.1443 -0.4048
 2799W        W18933   5.781   5.238  14.658  0.1336 -0.1566  0.1249
 2800W        W18934  11.405   7.538  11.886  0.3295 -0.0878  0.2788
 2801W        W18935   2.115  18.284   3.125 -0.1661 -0.1309 -0.0959
 2802W        W18936   0.685  18.386  12.693 -0.2574  0.1732  0.4019
 2803W        W18937   8.337   6.951   1.540 -0.1197  0.0790 -0.1546
 2804W        W18938  13.486   0.957   2.348  0.0158  0.0836 -0.1505
 2805W        W18939   2.821   5.315  14.759 -0.0823  0.0023 -0.1839
 2806W        W18940   6.158   4.955  12.079  0.0215  0.0131  0.3039
 2807W        W18941  12.065  16.116   0.585 -0.0574  0.0681  0.2249
 2808W        W18942   2.729  12.604  13.118  0.0651 -0.0794  0.0083
 2809W        W18943   9.326  19.130   2.875 -0.0249  0.0730 -0.0987
 2810W        W18944  15.436  11.594  12.127  0.0361  0.0913  0.1135
 2811W        W18945  13.137   4.367  14.728 -0.2000  0.0707  0.0112
 2812W        W18946  11.318   3.287  11.263 -0.2456 -0.0800 -0.3718
 2813W        W18947   7.119  10.792  14.465  0.0085 -0.0480 -0.1229
 2814W        W18948   3.006   7.551  12.603 -0.1207  0.0349  0.4350
 2815W        W18949  18.167  17.091   2.007 -0.3446  0.2951 -0.1004
 2816W        W18950  10.033  15.257   0.581 -0.2177 -0.1894  0.1860
 2817W        W18951  15.837   7.354  12.975 -0.1973  0.2006 -0.0974
 2818W        W18952   5.503  12.608  11.945  0.0113  0.0165 -0.2173
 2819W        W18953  12.230   2.923  11.554  0.0676  0.0070  0.2733
 2820W        W18954   1.399   3.137  11.299  0.0995  0.0791  0.0032
 2821W        W18955  11.288  17.516   0.611 -0.4372 -0.2571 -0.4740
 2822W        W18956   6.861   1.676  14.084 -0.0883 -0.2073  0.1297
 2823W        W18957  18.120  17.940  11.115 -0.0945 -0.0527  0.0464
 2824W        W18958  15.621   1.667  14.359 -0.1356 -0.1637  0.0127
 2825W        W18959  16.074  15.990  11.560 -0.0368  0.1352 -0.1534
 2826W        W18960  12.288  10.895   5.309  0.0505  0.3386 -0.0129
 2827W        W18961  10.841   3.267   5.009  0.2451 -0.1679 -0.1012
 2828W        W18962   7.536   2.219   4.713  0.1157  0.2732 -0.2157
 2829W        W18963  17.498   0.793   2.175  0.3729 -0.0496 -0.1412
 2830W        W18964   8.309   4.958  10.317 -0.2919  0.0154 -0.1371
 2831W        W18965   2.561   9.970   1.126 -0.1202 -0.0666  0.1815
 2832W        W18966  17.811  17.418   0.884  0.2128  0.2375 -0.0517
 2833W        W18967   1.047  16.917   0.711 -0.0407 -0.3351 -0.1042
 2834W        W18968  11.689  18.966   2.079  0.3320  0.1896 -0.2690
 2835W        W18969   6.869   3.338   2.322  0.0116 -0.0329 -0.4273
 2836W        W18970  14.418   2.292   2.449  0.2420 -0.0602  0.1298
 2837W        W18971  13.819  10.211  11.498 -0.6180  0.0052  0.1907
 2838W        W18972   2.430   4.890  12.230  0.3552  0.1222  0.1596
 2839W        W18973   9.864  10.928  11.784  0.0951  0.0327  0.1163
 2840W        W18974  11.464   9.431  14.619 -0.1195  0.0337  0.0539
 2841W        W18975  11.410  14.577   3.916  0.2444  0.0131  0.1208
 2842W        W18976   8.748  10.405  13.561  0.0769  0.1760  0.3529
 2843W        W18977  15.641  11.118   2.239  0.3253 -0.3350  0.1234
 2844W        W18978   0.753  17.236  11.704 -0.1118  0.0996  0.2628
 2845W        W18979   9.590   8.521  11.693 -0.2727  0.0160 -0.4697
 2846W        W18980   5.394  13.569   0.652  0.2912 -0.0488 -0.2907
 2847W        W18981  16.073  17.517  14.133 -0.0865  0.0677  0.0323
 2848W        W18982  13.532  15.081  13.091 -0.0538 -0.1186  0.1318
 2849W        W18983   0.499  16.193  14.422  0.1382 -0.0597 -0.3569
 2850W        W18984  15.135  15.118   0.294 -0.4644  0.0502 -0.1578
 2851W        W18985  13.860   6.223  14.873  0.4470 -0.2712 -0.1981
 2852W        W18986   1.173  15.701   4.430 -0.4750  0.1304  0.2311
 2853W        W18987   8.335   8.926  13.105  0.0523 -0.3560 -0.1931
 2854W        W18988   2.986  14.715  12.739 -0.0166 -0.0299  0.0212
 2855W        W18989   5.635   1.297   4.759  0.0283  0.0144  0.0053
 2856W        W18990   8.098  13.021   9.538 -0.0801 -0.0192 -0.0417
 2857W        W18991  16.941   3.071   1.940 -0.0676 -0.0181 -0.3332
 2858W        W18992   1.493   7.838  14.787 -0.0686  0.0833  0.1472
 2859W        W18993  19.193   8.260   3.932  0.1063 -0.2656  0.1192
 2860W        W18994  12.670   4.577   0.351  0.3849 -0.4491  0.1799
 2861W        W18995   1.857   4.525   1.392 -0.1829  0.0429  0.1328
 2862W        W18996   2.083  10.691   5.145 -0.0756 -0.0785  0.3835
 2863W        W18997  17.457   4.929   0.452  0.2605 -0.0123  0.0412
 2864W        W18998  13.392  12.203  12.466  0.1911 -0.0208 -0.1528
 2865W        W18999   6.350  15.901   1.328  0.0888 -0.0044  0.1387
 2866W        W19000  14.249  16.728   1.868  0.0439  0.3153 -0.1122
 2867W        W19001   4.934  17.550  13.031  0.0878  0.0643 -0.0724
 2868W        W19002  13.678  18.139  11.250 -0.0319  0.2842 -0.0313
 2869W        W19003   9.793  15.614   3.222  0.0082 -0.0634 -0.0425
 2870W        W19004   3.913  12.276   0.319 -0.4357  0.0842 -0.0489
 2871W        W19005   4.621  18.446   0.541  0.5913 -0.0195  0.1566
 2872W        W19006  16.001   4.379   4.006 -0.2158  0.2797 -0.0635
 2873W        W19007   2.147  15.659  14.995 -0.0916  0.1851 -0.1523
 2874W        W19008  12.745   5.898  14.083 -0.1392  0.0971 -0.0769
 2875W        W19009  16.530   2.295   4.776  0.1008 -0.1643  0.1788
 2876W        W19010  16.692   6.896   0.649 -0.0219 -0.1158 -0.0747
 2877W        W19011   9.956  17.039   3.062 -0.1626 -0.0011  0.1230
 2878W        W19012   1.759  17.256  11.948  0.2974  0.2167 -0.4320
 2879W        W19013  18.232   2.135   5.875 -0.0027  0.0852 -0.3363
 2880W        W19014   2.251   6.038  14.886 -0.0039 -0.1711 -0.1049
 2881W        W19015   9.353  10.787   0.823  0.2997  0.0986  0.2853
 2882W        W19016  12.443   9.522   2.891 -0.0010 -0.0715  0.0885
 2883W        W19017  14.758   0.913  11.665 -0.0653 -0.2820 -0.0069
 2884W        W19018   9.019   1.053  11.409  0.3030  0.4612 -0.0643
 2885W        W19019  13.680   2.311   1.530  0.3343 -0.0710 -0.1924
 2886W        W19020   1.635   3.862  14.154 -0.0341  0.0018 -0.3076
 2887W        W19021   1.574  19.038   0.239  0.2048 -0.1179 -0.0099
 2888W        W19022   5.653  14.116   2.217 -0.1393  0.0788  0.0252
 2889W        W19023  12.810   9.258  12.972 -0.3254  0.0977 -0.0380
 2890W        W19024  17.857  17.854   3.052  0.0765 -0.1013  0.0943
 2891W        W19025   3.840   2.310   1.541 -0.0265  0.0133 -0.2614
 2892W        W19026   2.236   8.396   1.180  0.0213 -0.2563  0.1354
 2893W        W19027   0.009   1.924  12.851 -0.1562 -0.0233  0.4739
 2894W        W19028   9.197  10.816   2.684  0.2618  0.1123 -0.2556
 2895W        W19029   7.537   2.649   3.216  0.2208  0.1187 -0.4215
 2896W        W19030  17.650  12.906  10.454 -0.1695  0.0973  0.1975
 2897W        W19031   4.847   1.089   3.212 -0.0136  0.0014 -0.1987
 2898W        W19032  16.179   5.849  14.421 -0.0340 -0.2687  0.1237
 2899W        W19033   5.200  19.024   4.482  0.1334 -0.1825 -0.0684
 2900W        W19034   2.382  12.097   3.796  0.1257  0.4837  0.1147
 2901W        W19035   9.185  13.906  11.526  0.2608  0.1316  0.1140
 2902W        W19036  18.824  13.446  14.885  0.2761 -0.2017  0.0621
 2903W        W19037  17.686   8.197  14.829 -0.0015 -0.0450  0.0437
 2904W        W19038   5.531   1.022  12.412 -0.0615 -0.3178  0.0036
 2905W        W19039   0.094   0.823  12.165 -0.0972  0.2019 -0.1164
 2906W        W19040  17.577   7.002   0.865 -0.2442 -0.1606  0.0606
 2907W        W19041  13.507  11.187   2.425 -0.1621  0.0012  0.1618
 2908W        W19042  18.429  14.334  14.355  0.2791  0.1201 -0.1271
 2909W        W19043  18.776   6.369   0.101 -0.1115 -0.2027  0.0247
 2910W        W19044   6.824  15.906   1.466 -0.0662  0.1367 -0.0406
 2911W        W19045  18.071  16.669  14.948  0.0531 -0.0914  0.0923
 2912W        W19046  13.870   3.356   0.458  0.1674  0.1489 -0.1260
 2913W        W19047   6.689   8.413  13.965 -0.1557  0.1460  0.0563
 2914W        W19048  10.165   1.138   2.348 -0.1109  0.2073  0.3109
 2915W        W19049  11.572   6.055  14.984  0.0352  0.3123 -0.1859
 2916W        W19050   4.455   4.682  13.587 -0.0534 -0.2310  0.0444
 2917W        W19051  15.032  11.217   2.856  0.1761 -0.0328 -0.0471
 2918W        W19052  11.772   7.534  13.902  0.2811  0.0598 -0.2840
 2919W        W19053   2.261   2.990   1.637 -0.1297 -0.4441  0.0387
 2920W        W19054  11.364   6.248   2.514  0.0904  0.0577  0.1998
 2921W        W19055   6.140  15.781   4.948  0.0978 -0.1597 -0.0545
 2922W        W19056  19.185  17.725  14.286 -0.0752 -0.0143  0.1282
 2923W        W19057   7.166  12.063   0.532 -0.1558  0.1018  0.0075
 2924W        W19058  13.925  17.001   1.535  0.0300 -0.0462 -0.3153
 2925W        W19059  13.039   1.301   2.507 -0.2652  0.0943  0.2136
 2926W        W19060   3.335   5.671   0.474 -0.2202 -0.1930 -0.0609
 2927W        W19061  13.244   0.493  11.100  0.0612  0.1751 -0.3693
 2928W        W19062   6.092  13.395  13.447  0.0417 -0.1614 -0.1076
 2929W        W19063   6.255   4.350   4.187 -0.2535 -0.0243  0.0089
 2930W        W19064  17.768   9.209   1.970  0.1226 -0.2197  0.1788
 2931W        W19065  10.891  18.755  11.434 -0.0436 -0.1379  0.0693
 2932W        W19066   4.463   7.619  11.096 -0.1039  0.1974  0.0456
 2933W        W19067   2.231   8.433  10.726 -0.7011 -0.0047  0.1418
 2934W        W19068  18.238   6.665   2.846 -0.1787  0.3498  0.1182
 2935W        W19069   0.160  10.251   1.597 -0.1034  0.4092 -0.3235
 2936W        W19070  18.797   0.927   3.568  0.0027  0.0136  0.0212
 2937W        W19071  11.994  10.745   0.710  0.0952  0.1192 -0.2618
 2938W        W19072   5.416   6.818  13.873  0.0121  0.0122 -0.2342
 2939W        W19073  12.723  12.453   9.656 -0.2007  0.1841 -0.2379
 2940W        W19074   9.235   3.096   4.681 -0.1484 -0.0543  0.3484
 2941W        W19075  17.975  10.852   9.854  0.0774 -0.1025 -0.0459
 2942W        W19076   4.152   3.537   4.696  0.1094 -0.2948 -0.1460
 2943W        W19077   2.460   2.753   4.772  0.1059  0.2860  0.1574
 2944W        W19078  13.785  10.752   3.731 -0.1036 -0.1198  0.1112
 2945W        W19079   3.290  13.373  12.134  0.3150 -0.0770 -0.0181
 2946W        W19080  12.403   2.458  11.419 -0.1735  0.1156 -0.2548
 2947W        W19081   5.043  10.237   1.154 -0.2286  0.0756  0.1564
 2948W        W19082   6.876   1.024   3.494  0.1162  0.1084 -0.0170
 2949W        W19083  18.189   7.734  14.126 -0.0307 -0.0443 -0.4632
 2950W        W19084  12.012   4.851   2.564  0.1442 -0.0977  0.0962
 2951W        W19085   7.882  13.955   5.094  0.1393 -0.0821  0.0013
 2952W        W19086  18.806  16.406  11.581 -0.1089 -0.0994 -0.1229
 2953W        W19087   2.013   5.595  13.338  0.2323 -0.0011  0.2239
 2954W        W19088  12.246   4.428   2.764  0.1749  0.1182 -0.1989
 2955W        W19089  13.597  15.970   2.550  0.0841 -0.3102  0.0150
 2956W        W19090  10.900  10.057  13.814  0.4445  0.0204 -0.2727
 2957W        W19091  17.344  13.196   4.606 -0.3346 -0.1653  0.1789
 2958W        W19092   4.842   5.678   1.057 -0.4154  0.1835 -0.0256
 2959W        W19093  13.306  15.256   0.841  0.3542 -0.2044 -0.0191
 2960W        W19094   1.134   1.386   2.260 -0.2112 -0.1722 -0.4147
 2961W        W19095  18.941   1.003  11.784  0.2333  0.1650 -0.0752
 2962W        W19096  15.525  15.550   5.161 -0.3004 -0.0589  0.0617
 2963W        W19097   7.905  11.461  10.714 -0.0859  0.1922 -0.0745
 2964W        W19098   6.785  16.605   3.346  0.1540  0.2720  0.0961
 2965W        W19099   6.223  10.640   2.384  0.0730 -0.1375 -0.0186
 2966W        W19100   7.722  14.870   4.379  0.2189 -0.1774 -0.0697
 2967W        W19101   9.812   5.366  12.546 -0.2353 -0.0804 -0.1340
 2968W        W19102  13.326  16.165   3.112 -0.1340 -0.0424  0.1854
 2969W        W19103   5.514  15.855  11.209  0.0090  0.0107  0.0899
 2970W        W19104  10.003  17.761   5.197  0.0265 -0.0551 -0.0699
 2971W        W19105   1.825   8.725  12.346 -0.1157 -0.2973 -0.0561
 2972W        W19106  13.982  15.953  11.891  0.0123 -0.0994  0.0037
 2973W        W19107  13.821   6.555   3.750  0.1089 -0.2036 -0.2054
 2974W        W19108  10.938   9.993  10.632  0.1877  0.0722  0.1960
 2975W        W19109  11.916   0.918   0.614 -0.1032 -0.2677  0.0693
 2976W        W19110  12.940  13.892   0.017 -0.1268 -0.0133  0.1295
 2977W        W19111   5.260   2.023  13.145 -0.0456 -0.2696 -0.1721
 2978W        W19112  13.487  17.938  14.290 -0.0933 -0.1126  0.6044
 2979W        W19113  19.141  15.854   4.723  0.0219 -0.2828  0.2467
 2980W        W19114   3.289   0.572   4.079  0.3451 -0.0086  0.3345
 2981W        W19115  16.665  16.031   1.259  0.0508 -0.2010 -0.1386
 2982W        W19116   3.387   6.542   2.458  0.1252 -0.1412  0.0778
 2983W        W19117  15.348  10.854   2.657 -0.0752 -0.2136 -0.3734
 2984W        W19118  18.503   4.440   4.209 -0.0350 -0.0763  0.1304
 2985W        W19119   3.143   3.409   0.727  0.1825 -0.1252 -0.2305
 2986W        W19120   2.738   5.262   4.610  0.1384  0.0412  0.2788
 2987W        W19121   4.735  15.737   3.065 -0.4011 -0.1986 -0.1863
 2988W        W19122   8.774  16.129  10.976 -0.0036 -0.1538  0.1143
 2989W        W19123   1.334  13.225   2.464  0.1724 -0.1134 -0.3767
 2990W        W19124   1.618  16.758   2.829  0.1079 -0.3697 -0.0107
 2991W        W19125   4.637  17.908  14.853  0.1852  0.0652  0.2103
 2992W        W19126  12.113   6.239   0.641 -0.0734 -0.1828 -0.0316
 2993W        W19127   1.529  17.916   1.975  0.0276 -0.1779  0.2570
 2994W        W19128   3.080   2.822   3.121 -0.2792 -0.0263 -0.2335
 2995W        W19129   3.997  16.806   1.317 -0.0063  0.0070  0.5595
 2996W        W19130   4.276   0.761   2.485  0.6130  0.1949 -0.3104
 2997W        W19131   5.809  15.741   2.339 -0.0789  0.2448 -0.2508
 2998W        W19132  11.864  17.811   0.371 -0.1400  0.1702 -0.1901
 2999W        W19133  16.755   1.795   4.844  0.1290  0.0467  0.0239
 3000W        W19134  19.085  12.103   2.506  0.1834 -0.4249  0.0938
 3001W        W19135   1.451  13.111  14.496 -0.2982  0.1255  0.4431
 3002W        W19136  11.033   2.592   1.129  0.1478  0.3095 -0.0384
 3003W        W19137  13.443  11.248  14.190 -0.3172  0.2208 -0.5050
 3004W        W19138   4.805  14.874   5.516  0.3348 -0.2735 -0.0821
 3005W        W19139  18.355  10.076  14.997 -0.3162 -0.0493 -0.0485
 3006W        W19140  18.954   0.421   1.194  0.1005 -0.1181  0.3487
 3007W        W19141   7.145   7.112  13.744 -0.0825  0.0473  0.0793
 3008W        W19142  13.465  17.635   1.236  0.1743 -0.0474 -0.1930
 3009W        W19143   0.489   2.648   0.092  0.3761  0.2757 -0.0343
 3010W        W19144   8.487  17.743   9.710 -0.0840 -0.3511 -0.1933
 3011W        W19145  14.786  15.880  10.102  0.0546 -0.0203  0.1793
 3012W        W19146  11.401   3.309  10.492 -0.0904  0.0638 -0.0648
 3013W        W19147   0.362   1.533   5.138  0.0750  0.3359 -0.1613
 3014W        W19148  15.596  10.546  13.759  0.2365  0.3906 -0.0286
 3015W        W19149   3.684  16.653   2.047 -0.0042  0.0987  0.3381
 3016W        W19150   2.636   5.659   2.312  0.3015 -0.2492 -0.0465
 3017W        W19151   3.613   5.616  13.021  0.0281 -0.3670 -0.0295
 3018W        W19152   3.958   9.641   4.238 -0.0061 -0.0434 -0.0768
 3019W        W19153  14.393   1.132   1.640  0.2628  0.2040 -0.1087
 3020W        W19154   5.601   6.459  12.156  0.0887 -0.1138 -0.2575
 3021W        W19155   1.173   3.328  10.896  0.0801  0.0275  0.1269
 3022W        W19156   5.041  15.354  10.738 -0.2733  0.1897  0.1127
 3023W        W19157  13.471  18.108   0.947 -0.1171 -0.2516 -0.1136
 3024W        W19158  18.933   9.426  10.305  0.0922  0.0511 -0.3078
 3025W        W19159  10.571   9.387  13.501 -0.1046  0.2367  0.2688
 3026W        W19160   4.310   0.780  10.756  0.0438 -0.0635 -0.2090
 3027W        W19161   1.937   7.638  13.216  0.2111 -0.3885  0.2599
 3028W        W19162   9.080   5.900  13.807 -0.1167 -0.0461 -0.0728
 3029W        W19163  10.445   8.651   0.778 -0.2354 -0.0670 -0.0423
 3030W        W19164  16.772  10.186   4.819 -0.0977 -0.1398  0.1295
 3031W        W19165  12.912   8.704  10.931  0.0476  0.1434  0.1123
 3032W        W19166   4.854   3.204   0.367 -0.2114 -0.1461 -0.2641
 3033W        W19167  14.066   3.830   0.712 -0.0735  0.1035 -0.0127
 3034W        W19168  12.872   1.364   3.863 -0.2109 -0.1459  0.0942
 3035W        W19169  16.580  10.041   2.871 -0.1729 -0.2555 -0.1928
 3036W        W19170  18.432  17.287   2.432  0.0241 -0.0156  0.0225
 3037W        W19171  11.666  18.312  12.764 -0.0035 -0.3163 -0.1365
 3038W        W19172  17.632   1.635  11.219 -0.1381 -0.1877  0.1678
 3039W        W19173  13.450   6.682  10.427  0.1714  0.1211  0.2371
 3040W        W19174   7.348   3.965  11.906 -0.2212 -0.0513 -0.0084
 3041W        W19175  11.591   2.016   3.636  0.1467 -0.0940  0.1344
 3042W        W19176   3.741   9.149   2.966 -0.0754  0.6053  0.1910
 3043W        W19177   3.365  10.147   0.251  0.2934  0.0439  0.3997
 3044W        W19178   9.684  14.415  11.953  0.0084 -0.0237 -0.2735
 3045W        W19179  18.385  10.358   1.638 -0.1398 -0.0180 -0.1442
 3046W        W19180  17.778  16.537   2.833 -0.1905 -0.1177  0.2027
 3047W        W19181  11.849  11.880   3.779 -0.1698 -0.0801  0.6889
 3048W        W19182   5.603   3.236   3.798  0.2356 -0.1858  0.3200
 3049W        W19183  16.186  15.714   0.343  0.0873 -0.2933 -0.2508
 3050W        W19184  16.703  10.116   2.108  0.3097 -0.1546  0.0808
 3051W        W19185  13.110  13.304  11.460  0.0740  0.1116 -0.4167
 3052W        W19186   9.143  18.021  10.183  0.1986 -0.1536 -0.1444
 3053W        W19187  13.382  11.495  11.022 -0.0010  0.1150 -0.2142
 3054W        W19188   7.910  13.627   0.026  0.1669 -0.2639  0.0591
 3055W        W19189   0.485  13.676   0.889  0.4226 -0.0577  0.1295
 3056W        W19190   6.382  15.160  11.905 -0.0158  0.1014 -0.0101
 3057W        W19191  14.378   7.004  12.861  0.2146 -0.1851  0.3625
 3058W        W19192   6.659  14.997   4.468  0.1426  0.2183 -0.1186
 3059W        W19193   7.488   1.390  14.762 -0.1128 -0.0716  0.4946
 3060W        W19194   1.547  16.678  11.086 -0.0017 -0.1574 -0.0979
 3061W        W19195   7.359   6.162   0.956  0.1306 -0.0965 -0.2431
 3062W        W19196   7.603   7.219   1.060  0.1380  0.4879 -0.0752
 3063W        W19197  11.408  10.726   0.671  0.0380  0.4024  0.2629
 3064W        W19198  17.501  13.048  14.804 -0.2015 -0.2919 -0.0894
 3065W        W19199   0.935   3.075   5.947 -0.1112 -0.4423  0.0273
 3066W        W19200   1.089   9.762  13.718  0.2809 -0.1273  0.1210
 3067W        W19201  16.110   7.529  14.372 -0.0360 -0.3196  0.2450
 3068W        W19202   0.450  16.865  11.743 -0.0519  0.0862  0.3129
 3069W        W19203   6.297   3.812   3.390 -0.0169  0.0282 -0.0138
 3070W        W19204   7.331  17.555  13.258  0.0120  0.1674 -0.2736
 3071W        W19205  14.609  13.601  11.865  0.1785 -0.2672  0.1356
 3072W        W19206   2.868   6.465  12.990  0.1288  0.1071 -0.2310
 3073W        W19207  12.367  12.043   2.939  0.0930  0.0897 -0.0081
 3074W        W19208  14.910   4.551  13.001 -0.0062  0.1143 -0.2528
 3075W        W19209  17.378   9.878  14.466  0.1657 -0.0213 -0.0022
 3076W        W19210   2.860   8.614   4.930  0.2992 -0.1386 -0.2309
 3077W        W19211  11.389   0.634   4.283 -0.0258  0.0377 -0.0246
 3078W        W19212   7.928   5.549   1.360  0.1301  0.0286 -0.0320
 3079W        W19213   0.728  18.904  12.801  0.2563  0.2297 -0.1969
 3080W        W19214   2.272  14.136  12.731  0.0383 -0.0047  0.1560
 3081W        W19215   6.450   5.754   0.135 -0.0341 -0.0181  0.1817
 3082W        W19216   7.160  15.168   3.740  0.2810  0.1475  0.0851
 3083W        W19217   3.553   6.845   0.850 -0.0765  0.1073 -0.0262
 3084W        W19218   0.823   7.940   2.860 -0.0883  0.1927  0.1929
 3085W        W19219   7.026  15.237   1.543 -0.0023 -0.1476  0.0827
 3086W        W19220   4.285  14.671   4.183  0.2001  0.1537  0.0280
 3087W        W19221  10.569  11.737   4.415  0.4248 -0.1330  0.0417
 3088W        W19222   4.404   9.507   1.922  0.0506 -0.0546  0.0630
 3089W        W19223  15.138   3.398  10.840  0.0940 -0.0189  0.2295
 3090W        W19224  18.536   5.646  12.236  0.1714  0.0088 -0.3165
 3091W        W19225  17.643   7.068  13.509  0.3526  0.2407 -0.2056
 3092W        W19226   5.604  10.057   4.717  0.2052 -0.0384 -0.1114
 3093W        W19227   3.927  17.082  13.619 -0.4016 -0.0914  0.1828
 3094W        W19228   0.222  11.609  12.357 -0.0506 -0.0768  0.3311
 3095W        W19229  18.620   5.728  13.019 -0.0957 -0.2499  0.0571
 3096W        W19230   8.345  12.822   4.469 -0.2681  0.2875 -0.1589
 3097W        W19231  14.520  16.213   2.729 -0.1027  0.0932 -0.0695
 3098W        W19232  18.567   0.966   5.637 -0.4338  0.2208 -0.2031
 3099W        W19233  15.174  15.277  12.363  0.1152  0.2654 -0.0161
 3100W        W19234  18.316   8.836  14.445 -0.1150 -0.1206 -0.1845
 3101W        W19235  10.256   3.578   4.555  0.4562  0.0131 -0.0713
 3102W        W19236   6.556  18.918   4.512  0.0402 -0.1448 -0.1025
 3103W        W19237  18.045   4.409   4.198 -0.0497 -0.0815  0.2272
 3104W        W19238  18.072  16.350   3.939  0.4535  0.4454 -0.0315
 3105W        W19239  17.071  17.503  12.570 -0.2134  0.0386  0.0336
 3106W        W19240   7.674  16.474  12.863 -0.0972 -0.2545 -0.0762
 3107W        W19241  15.683   3.294   1.285  0.0981 -0.4024  0.4656
 3108W        W19242   5.226   4.653  12.497  0.1215  0.0482  0.1267
 3109W        W19243  11.150  14.780  13.855  0.3637  0.0438  0.0188
 3110W        W19244  14.816   1.642   2.440 -0.0272 -0.0979  0.0613
 3111W        W19245  17.555   5.510   4.011 -0.1687 -0.0894  0.0426
 3112W        W19246   3.097  14.097   3.904 -0.1659 -0.1054 -0.3818
 3113W        W19247   8.138   3.585  10.955  0.1366  0.0419  0.0943
 3114W        W19248   7.772   4.938  10.378  0.2409 -0.0794 -0.0154
 3115W        W19249   3.456  11.229  12.861 -0.0998 -0.1963 -0.1162
 3116W        W19250   2.944  19.103   2.825 -0.3499 -0.0793  0.1768
 3117W        W19251   0.614  19.019  14.526  0.1367 -0.1094  0.1313
 3118W        W19252   0.616   4.870   2.037 -0.4192 -0.0935 -0.2437
 3119W        W19253   2.832   1.589   4.363  0.0391 -0.1145  0.0746
 3120W        W19254   1.151  10.927   5.709  0.2705 -0.1390 -0.1428
 3121W        W19255  17.292  11.916  12.630  0.2798 -0.0570 -0.1642
 3122W        W19256   1.382  11.130  12.270  0.1620 -0.1848 -0.2094
 3123W        W19257   2.690  10.787   2.994 -0.3227  0.1018 -0.1586
 3124W        W19258   6.325  17.051   1.851 -0.1505 -0.2270 -0.3496
 3125W        W19259  16.240   5.400  12.899 -0.1700  0.1768 -0.0469
 3126W        W19260  12.743   0.527  11.659  0.4360  0.2946  0.3120
 3127W        W19261   8.206   4.931  13.746  0.1214 -0.2891 -0.0508
 3128W        W19262   1.968  14.709   4.799  0.3549  0.1573  0.3697
 3129W        W19263   8.859  10.613   2.228  0.1584 -0.1962 -0.1027
 3130W        W19264  13.012  19.232   3.109  0.1041  0.2231  0.0654
 3131W        W19265   4.758   8.000   2.093 -0.2559  0.0125  0.0828
 3132W        W19266  14.738   8.055  11.843  0.1233 -0.1927  0.2659
 3133W        W19267   7.942   6.868   9.084  0.0611  0.0671  0.0480
 3134W        W19268  13.594   2.619  12.421  0.1363 -0.0498 -0.1743
 3135W        W19269  11.102   2.261   2.328 -0.1102  0.2428  0.2012
 3136W        W19270  13.926   5.314  12.825  0.0741 -0.1479  0.3113
 3137W        W19271   5.312   5.873   4.399  0.1367 -0.2005  0.2107
 3138W        W19272  12.271  18.388  14.289  0.1756  0.0197 -0.2025
 3139W        W19273  18.614  19.229   4.003  0.0294  0.0042 -0.1009
 3140W        W19274   6.223   3.064   0.800  0.1834  0.1134 -0.0253
 3141W        W19275   3.379  17.470  14.880  0.0769  0.1290  0.0063
 3142W        W19276  13.907  18.002  13.555  0.0371  0.0392  0.0239
 3143W        W19277   9.981  15.886  13.275  0.1053  0.1348 -0.1367
 3144W        W19278  10.930   7.641   0.560  0.2489  0.2085 -0.1366
 3145W        W19279   5.254  10.817   1.397  0.3117 -0.0311  0.1542
 3146W        W19280   2.161   4.328  14.701 -0.0771  0.1231 -0.3625
 3147W        W19281   8.325   6.172   2.067 -0.0412 -0.0939 -0.1714
 3148W        W19282  16.210  14.075   4.529  0.1422  0.4279  0.0286
 3149W        W19283   0.960   3.957  14.868  0.1668 -0.0343  0.5381
 3150W        W19284   9.394   2.033   1.147  0.0983  0.0266  0.0123
 3151W        W19285   6.690   3.927   5.043  0.2465 -0.0916  0.1811
 3152W        W19286  17.677  11.469   2.981  0.1988  0.1817 -0.2043
 3153W        W19287   7.721  11.717  11.096  0.0267  0.1727  0.2169
 3154W        W19288   5.812  18.815   0.227  0.1160 -0.1056  0.0653
 3155W        W19289  13.173  16.245   5.307 -0.2477 -0.0247 -0.2285
 3156W        W19290   5.349  10.490  10.753  0.0598  0.0298 -0.1399
 3157W        W19291  18.324   0.082   1.715 -0.1284 -0.2740 -0.0450
 3158W        W19292  18.732   2.097  12.118 -0.2379  0.6365 -0.1960
 3159W        W19293  13.952   3.767  11.572 -0.0125 -0.0885 -0.1148
 3160W        W19294   0.098   8.256   1.245  0.1339  0.1441 -0.0851
 3161W        W19295  16.815   6.444   4.736  0.0499  0.0768 -0.2045
 3162W        W19296  17.389   9.249   5.567  0.0505  0.1127  0.0360
 3163W        W19297   3.028   9.612  14.369  0.1477  0.3001  0.1052
 3164W        W19298  19.004   0.747  14.986  0.2625 -0.2305  0.0672
 3165W        W19299  15.020   1.260  13.904  0.1926  0.0819  0.1107
 3166W        W19300   4.330   8.386   9.411 -0.0125  0.1816  0.2678
 3167W        W19301   7.850   6.066   5.360 -0.2613  0.1653 -0.1430
 3168W        W19302   6.635  11.024  13.426  0.1815 -0.0442  0.3010
 3169W        W19303  10.694  15.584  12.222  0.1241  0.0880 -0.0730
 3170W        W19304   7.132  12.788   5.060 -0.0804 -0.3108  0.0105
 3171W        W19305  15.636  17.701   4.978  0.0019 -0.2218  0.3451
 3172W        W19306   2.166   9.889  14.717  0.2674 -0.0093  0.1899
 3173W        W19307  18.458  10.102   4.797 -0.4598 -0.3666  0.0697
 3174W        W19308  13.764   6.254   9.189 -0.0173  0.1126 -0.2150
 3175W        W19309   4.258   8.688   2.370  0.2837  0.0438 -0.2417
 3176W        W19310   6.067   1.126  12.497  0.1149 -0.0301  0.1195
 3177W        W19311   2.231   4.577  10.743 -0.0923  0.0034 -0.0778
 3178W        W19312  15.671   8.233   4.337  0.0019  0.1176 -0.1393
 3179W        W19313   6.543  17.636  13.650 -0.0146  0.1256 -0.1049
 3180W        W19314  18.333  14.036   3.365  0.0406 -0.0376  0.0832
 3181W        W19315  18.273   2.912   1.259  0.0286  0.3447 -0.2025
 3182W        W19316   5.336  17.372   2.654 -0.0448  0.1549 -0.1100
 3183W        W19317   9.427   8.554  12.222 -0.2966 -0.3723 -0.2485
 3184W        W19318  14.711  14.698   3.879  0.1412  0.0521  0.0259
 3185W        W19319  10.303  14.749  13.406  0.0045 -0.1865 -0.1680
 3186W        W19320   2.320  17.315  14.408 -0.2137 -0.2494 -0.0688
 3187W        W19321  10.350   8.968  13.187 -0.4239 -0.0957 -0.1658
 3188W        W19322  17.952  14.514  14.139  0.1229 -0.0549 -0.2341
 3189W        W19323   1.915  10.437  14.691  0.0450 -0.0704  0.0400
 3190W        W19324   4.884  14.753   1.967 -0.0798 -0.2831 -0.1563
 3191W        W19325   9.756   0.908  12.460 -0.1457 -0.1296  0.0312
 3192W        W19326   4.093  11.234  14.093  0.2731  0.0189 -0.0358
 3193W        W19327   7.766   4.672   5.118 -0.0436  0.0164 -0.3780
 3194W        W19328  14.563   8.376  12.701  0.0773  0.2443 -0.0274
 3195W        W19329  10.678   2.557   4.474  0.2091 -0.0075  0.0587
 3196W        W19330   7.855   5.614   0.764  0.1010 -0.2008  0.2625
 3197W        W19331   7.976  11.227  14.325 -0.0884  0.1961  0.2356
 3198W        W19332   4.197  13.165  12.481 -0.1246 -0.1248  0.1146
 3199W        W19333  15.789  14.538  10.510 -0.4800  0.1147  0.0447
 3200W        W19334  10.944  14.652   0.837  0.0657  0.0666 -0.1596
 3201W        W19335  17.787   1.345   1.507  0.0124  0.0400 -0.0099
 3202W        W19336  17.360   7.504   2.888  0.1930 -0.0417  0.1748
 3203W        W19337   0.710  14.757  10.392  0.0899 -0.1166  0.0450
 3204W        W19338   9.915  13.931   1.857  0.0987 -0.4457  0.0802
 3205W        W19339   1.910  10.357   1.635  0.0207  0.0376  0.1017
 3206W        W19340  15.723  16.492  12.639 -0.1378 -0.0919 -0.0575
 3207W        W19341  18.330  17.868   1.434  0.0162 -0.2382  0.3778
 3208W        W19342  10.136   4.557  11.665  0.0440 -0.2415  0.0295
 3209W        W19343   0.968  12.539  10.911  0.0590 -0.1746 -0.0767
 3210W        W19344  10.734   1.629   1.518 -0.0461 -0.0224 -0.0754
 3211W        W19345  17.626   4.237  12.888 -0.3349 -0.0552 -0.2395
 3212W        W19346  17.007  17.003   3.927  0.0589  0.0258  0.3182
 3213W        W19347  14.990  13.901  11.950 -0.1744 -0.3770  0.1331
 3214W        W19348   0.964  15.408  13.209  0.3069  0.1057 -0.2089
 3215W        W19349   5.486   9.949   0.393 -0.0843 -0.0205  0.3095
 3216W        W19350  18.989   7.832   1.855  0.1393 -0.1635 -0.2412
 3217W        W19351   9.065   1.735  14.613  0.0232 -0.0170  0.0186
 3218W        W19352  13.570   2.842  11.463  0.0894 -0.0315 -0.2422
 3219W        W19353   8.011   1.976  12.732  0.4142  0.0419 -0.1114
 3220W        W19354   2.650  14.166   4.922 -0.0847  0.0242  0.0807
 3221W        W19355   3.616   2.424  12.507  0.1235 -0.4494 -0.4063
 3222W        W19356   8.108  13.377   3.525 -0.1334 -0.0299  0.1583
 3223W        W19357   2.015  11.237  11.677  0.0767  0.0161  0.0216
 3224W        W19358   9.680  17.291   4.284  0.0878  0.0331  0.2311
 3225W        W19359  17.897  13.774   3.465 -0.0983  0.0191 -0.0919
 3226W        W19360   8.118   6.637   9.534 -0.2446 -0.1243 -0.0497
 3227W        W19361   9.108  17.260  14.979 -0.0090  0.0863 -0.2270
 3228W        W19362   0.899   5.672  12.968  0.0302 -0.0075 -0.1236
 3229W        W19363   6.359   6.184   1.126  0.1593 -0.0077 -0.3114
 3230W        W19364  13.119  15.107   4.538 -0.1594  0.1092 -0.0403
 3231W        W19365   8.813  10.222  13.018 -0.0133 -0.0781  0.0266
 3232W        W19366   3.945   4.540   4.630  0.0406 -0.3457 -0.0899
 3233W        W19367  14.443   8.455   9.995 -0.0422 -0.1679  0.1325
 3234W        W19368   9.812  11.370   4.575 -0.1581 -0.0491 -0.1163
 3235W        W19369  18.733   0.333   4.454 -0.1251 -0.4037  0.0273
 3236W        W19370  14.627   3.938   0.691 -0.0231 -0.0354 -0.0020
 3237W        W19371   0.702   2.818   4.475 -0.0641  0.2690 -0.2269
 3238W        W19372  18.451  16.504   4.306 -0.2808 -0.2083 -0.1100
 3239W        W19373   8.575  14.108  14.311  0.1409 -0.1870 -0.1137
 3240W        W19374  16.630   6.015  11.886  0.2408  0.1798  0.0549
 3241W        W19375  17.972   3.635  10.645 -0.3785 -0.2092 -0.1008
 3242W        W19376   8.685   1.593   0.775 -0.0245 -0.2837  0.1766
 3243W        W19377   0.524   0.611  13.096 -0.2044 -0.0503 -0.1446
 3244W        W19378   1.355   9.658   0.084  0.2858  0.1957 -0.1345
 3245W        W19379  19.006   6.992   9.751  0.1619 -0.0480  0.0971
 3246W        W19380  13.269   9.864   0.794 -0.2037 -0.0393  0.0053
 3247W        W19381   8.572   7.918  10.762 -0.2511  0.0665 -0.0108
 3248W        W19382   8.024   9.056   2.243  0.0172 -0.1848 -0.1186
 3249W        W19383  16.700  14.216   4.657 -0.2618 -0.2184 -0.3949
 3250W        W19384  18.135   1.333   4.279  0.3334 -0.7669 -0.0830
 3251W        W19385  15.324   1.047  11.627  0.1248  0.1616 -0.1309
 3252W        W19386  18.100  17.911   4.342  0.0370  0.1385  0.2274
 3253W        W19387   4.761  13.046  14.525 -0.0919 -0.0303 -0.1714
 3254W        W19388   6.772   8.112   0.979 -0.0265 -0.0009  0.4110
 3255W        W19389   0.276   3.500   1.322  0.4806  0.0402  0.1318
 3256W        W19390  18.757   5.705  11.258 -0.2147 -0.0583 -0.1252
 3257W        W19391   2.515   7.490   3.302 -0.0064  0.3987 -0.1042
 3258W        W19392   7.027   6.466   4.860  0.0317  0.0817 -0.4256
 3259W        W19393  16.633   6.751   2.104 -0.4620 -0.0911 -0.1030
 3260W        W19394  10.851   9.026   2.663 -0.1030  0.2090  0.1800
 3261W        W19395   6.949   8.427   4.162  0.0076 -0.1261 -0.2452
 3262W        W19396   3.238   9.897   1.876 -0.1750 -0.0171  0.1584
 3263W        W19397  10.654   7.857  14.056 -0.0534 -0.1800  0.0053
 3264W        W19398   7.669   3.704  11.062 -0.0318 -0.3358  0.0086
 3265W        W19399  18.539  13.275   3.195  0.3264 -0.1810  0.2463
 3266W        W19400   3.788  11.170   5.300 -0.0962  0.0196 -0.3281
 3267W        W19401  17.313   6.594  11.437 -0.1454  0.0718  0.1474
 3268W        W19402   6.359  14.131  11.760 -0.0648  0.0776 -0.4176
 3269W        W19403   4.279  19.170  13.305  0.1654  0.1233  0.2801
 3270W        W19404  13.542  17.956  11.736 -0.2410  0.3680 -0.1840
 3271W        W19405   3.819   4.019   0.512 -0.1887  0.1092 -0.0795
 3272W        W19406   4.439   9.843   4.621 -0.2353 -0.1387 -0.1862
 3273W        W19407   4.682   8.898   2.411  0.2066 -0.1517  0.0664
 3274W        W19408   0.150   6.181  12.604  0.0824 -0.0140 -0.0910
 3275W        W19409   2.872  14.442   3.518 -0.1930 -0.2176 -0.0272
 3276W        W19410  16.289   3.319  11.660  0.0927 -0.5371 -0.3742
 3277W        W19411   2.950   7.856  14.144  0.0764 -0.1698 -0.0479
 3278W        W19412  18.614   3.899  14.733 -0.0181 -0.0029  0.0099
 3279W        W19413   9.233  11.345   9.777 -0.1475  0.1776 -0.1297
 3280W        W19414  14.214  17.656   2.160  0.0932  0.1365  0.0061
 3281W        W19415   4.358  16.876   4.537 -0.1849  0.0452 -0.0637
 3282W        W19416   3.983   7.200   2.415  0.1339  0.2126  0.0845
 3283W        W19417   7.793   0.472  12.621 -0.3606 -0.2427  0.4222
 3284W        W19418   5.050  13.527   0.994  0.2535  0.0393  0.1727
 3285W        W19419   1.738  18.747  11.900 -0.0205  0.0902 -0.0095
 3286W        W19420  14.841  16.824   3.442 -0.0584  0.0833 -0.2394
 3287W        W19421   7.251   2.185  13.219  0.2636  0.1027  0.0970
 3288W        W19422  10.386   7.645  14.900 -0.1341  0.0836  0.2082
 3289W        W19423   7.623  11.173  11.922 -0.0233  0.2210  0.2837
 3290W        W19424  17.535  12.508   4.035  0.1000  0.1645  0.0876
 3291W        W19425  13.450   5.610  11.362 -0.0632  0.1147  0.2338
 3292W        W19426   1.941   6.947   4.379  0.0260  0.2526  0.2235
 3293W        W19427  19.085   6.790   0.140  0.1593  0.1029  0.2582
 3294W        W19428   9.581  15.398   0.404  0.0497 -0.0529  0.1891
 3295W        W19429  13.356   1.094  14.476  0.0020  0.2256 -0.1711
 3296W        W19430  16.170  17.060   1.549 -0.0968  0.1958 -0.1168
 3297W        W19431  13.413   7.603  14.230  0.3972  0.0896  0.2368
 3298W        W19432  17.126  18.396   2.715  0.0287  0.0762  0.4415
 3299W        W19433  11.844   1.397   0.251  0.1280 -0.0704  0.0090
 3300W        W19434   5.972  10.676  13.781  0.3046 -0.2629  0.0885
 3301W        W19435   4.579   9.031   0.878  0.2008  0.1500  0.1294
 3302W        W19436   6.081  13.621   4.400  0.2876 -0.1075 -0.0464
 3303W        W19437   7.214  12.668  13.593  0.0481  0.5487 -0.1801
 3304W        W19438   8.643  16.319  13.457  0.0995 -0.4202  0.0322
 3305W        W19439   1.872  16.878   1.350  0.0715 -0.2046 -0.0388
 3306W        W19440   2.207  11.824  13.403 -0.1609 -0.2888  0.1647
 3307W        W19441   4.350  17.144  11.796 -0.1198 -0.0588  0.0675
 3308W        W19442  16.741  16.548  12.691 -0.1191 -0.0125  0.2034
 3309W        W19443   9.560   2.780   0.340 -0.2837  0.5509 -0.2799
 3310W        W19444  15.812   4.981   4.425 -0.1425 -0.0166  0.2563
 3311W        W19445  11.352   1.124   4.344  0.2585  0.2348 -0.0867
 3312W        W19446   9.833  15.897   1.615 -0.0800 -0.0231 -0.0671
 3313W        W19447  13.142   8.680  14.336  0.1371 -0.1121  0.0731
 3314W        W19448   7.770   6.976   0.680 -0.0516 -0.5104  0.1186
 3315W        W19449  16.726   2.857  12.972 -0.1501 -0.2398  0.2700
 3316W        W19450   9.859   2.497   5.386 -0.1261 -0.3494  0.0066
 3317W        W19451  13.563  10.188   2.651 -0.1363 -0.0029 -0.2521
 3318W        W19452   8.314  16.830   0.720 -0.1742 -0.1017  0.0261
 3319W        W19453   3.216  14.604   3.904 -0.1037 -0.0615  0.2071
 3320W        W19454  11.765   4.974   0.379  0.0238 -0.2596  0.1525
 3321W        W19455   4.508   7.193   2.586 -0.1841  0.2595  0.1594
 3322W        W19456   8.214   7.477   3.400 -0.1427 -0.1507 -0.0212
 3323W        W19457   6.449   2.988   2.394  0.2029  0.0471  0.1044
 3324W        W19458  10.588  13.234   4.763 -0.1599 -0.3534 -0.2490
 3325W        W19459  10.889  17.294   0.094 -0.0949 -0.2015  0.0784
 3326W        W19460   9.900   2.677   4.012 -0.0584 -0.1838 -0.0850
 3327W        W19461  16.890   6.299   0.824  0.1014 -0.1051 -0.2042
 3328W        W19462  11.294   7.825  11.497 -0.1476 -0.2171  0.2172
 3329W        W19463  18.990   7.396  14.094  0.6490  0.1497  0.1089
 3330W        W19464   4.166   2.685   2.191  0.1399  0.0100  0.2564
 3331W        W19465   6.959   3.538   9.074  0.0279  0.3242 -0.3499
 3332W        W19466   4.072   8.074   3.802  0.0216  0.1640  0.1515
 3333W        W19467  17.692  16.474   0.136  0.1061 -0.1502  0.0966
 3334W        W19468  18.196  15.677  11.691  0.2169  0.0212 -0.0431
 3335W        W19469   8.925  10.526  10.650 -0.0550  0.0161  0.0563
 3336W        W19470  16.189   7.068   3.186  0.0151  0.0644 -0.2113
 3337W        W19471   6.901  13.791   2.321 -0.2652  0.1573  0.2131
 3338W        W19472  10.208   3.365   2.035 -0.0733  0.2279 -0.0422
 3339W        W19473  14.484   2.683   1.234  0.3081  0.1612  0.0413
 3340W        W19474   2.709   8.264  11.831 -0.3267  0.0855  0.2187
 3341W        W19475  17.429  14.206  14.771  0.0643 -0.1084  0.2949
 3342W        W19476  16.173  12.320   0.927 -0.5943  0.0180  0.0541
 3343W        W19477  13.317  17.113   3.457 -0.0639 -0.2970 -0.0968
 3344W        W19478  11.425  19.186   4.598  0.1642  0.0668  0.1055
 3345W        W19479  15.625  18.751   4.649 -0.2922 -0.1821 -0.2397
 3346W        W19480   0.480   6.086   2.023 -0.1147  0.2528 -0.3669
 3347W        W19481  16.777  15.679  11.303 -0.3781  0.1874 -0.0065
 3348W        W19482   8.636  11.212  13.835 -0.1673  0.2091 -0.1430
 3349W        W19483   2.939  16.481   0.910  0.1133  0.1806  0.3420
 3350W        W19484   8.814  18.827   4.121 -0.0391  0.4472 -0.0874
 3351W        W19485   4.038  13.460  11.691 -0.2462  0.1167  0.0827
 3352W        W19486   9.970  13.576   0.168  0.2760  0.1986  0.0337
 3353W        W19487   1.482  15.445  12.938 -0.0449 -0.1030  0.0433
 3354W        W19488   4.441   5.998   1.140 -0.0209  0.1569  0.2472
 3355W        W19489   0.127   1.084   0.745 -0.0029 -0.1757  0.1243
 3356W        W19490   0.036   4.181  12.361  0.2438 -0.4055 -0.0395
 3357W        W19491  16.081   0.071   3.335 -0.1332  0.0320 -0.1077
 3358W        W19492   7.678   0.952   4.381 -0.2569 -0.4416  0.1943
 3359W        W19493  18.029  16.156   0.489  0.2295 -0.4025  0.2000
 3360W        W19494   5.517   2.339   5.431  0.1109 -0.2061  0.0472
 3361W        W19495  11.394   1.166   5.083 -0.0676 -0.1394  0.0032
 3362W        W19496   3.442  13.621   0.569 -0.2375  0.1080  0.2089
 3363W        W19497  18.893   4.321  12.037  0.2618 -0.0053 -0.1726
 3364W        W19498   6.885  10.644   4.627  0.3196  0.1117 -0.0179
 3365W        W19499  10.838   4.119  12.502  0.3054  0.2032  0.2313
 3366W        W19500  12.450   5.892   0.087  0.0769 -0.3786 -0.2669
 3367W        W19501  18.346   2.693  11.549 -0.2162  0.0180 -0.0258
 3368W        W19502   8.376   4.000   3.818  0.2490  0.0866  0.0684
 3369W        W19503   3.652  11.742  14.595 -0.0245 -0.0791  0.3295
 3370W        W19504  11.900  14.634   3.939  0.2378 -0.2037 -0.0192
 3371W        W19505  18.059  16.162   4.373 -0.2513 -0.1314 -0.0124
 3372W        W19506  10.059  10.256   3.626 -0.5964 -0.0837  0.2824
 3373W        W19507  11.004  14.842   1.966 -0.0679  0.1138  0.0534
 3374W        W19508   4.541   2.204  11.238  0.0787  0.0724 -0.2330
 3375W        W19509   9.003  16.310  13.138  0.1327  0.1162 -0.0464
 3376W        W19510  11.389  14.766   4.779  0.2477 -0.0698 -0.0261
 3377W        W19511  12.194  18.799   4.167 -0.0454  0.1951  0.1873
 3378W        W19512   4.829  13.579   4.117 -0.0132 -0.0010 -0.0468
 3379W        W19513  11.208  13.012  13.433 -0.2583  0.3120  0.3638
 3380W        W19514  15.878   4.542  14.109 -0.2439  0.0305  0.2201
 3381W        W19515  17.848   8.030   4.451 -0.2364  0.0697 -0.2677
 3382W        W19516   6.587  14.895   1.465 -0.0580  0.0693  0.2969
 3383W        W19517   2.817  14.627   4.653 -0.0014  0.1807  0.1283
 3384W        W19518   8.828   6.734   4.240 -0.2321  0.1750  0.1935
 3385W        W19519   8.986   6.630  13.907 -0.0863 -0.0471  0.0354
 3386W        W19520   2.130   3.657   3.823 -0.2009  0.4744 -0.1908
 3387W        W19521  14.830  16.088   1.267 -0.0282  0.3160 -0.0012
 3388W        W19522   4.884   1.992   1.116 -0.3000  0.0679  0.0765
 3389W        W19523  16.379   8.628   9.817 -0.2185 -0.0762  0.3341
 3390W        W19524  15.634   9.255  12.035 -0.2253  0.1298 -0.0596
 3391W        W19525  18.497   1.444   4.791  0.0662  0.0479 -0.1075
 3392W        W19526  14.857   1.749  13.674  0.1292 -0.2708 -0.0176
 3393W        W19527   3.734   8.914  13.171 -0.1462  0.1749 -0.2963
 3394W        W19528  17.463  13.864  12.774  0.0398 -0.2327  0.0629
 3395W        W19529  16.561  14.747  10.488 -0.0041 -0.2017  0.1730
 3396W        W19530   4.492  17.104  14.218  0.0694 -0.1806  0.0266
 3397W        W19531   3.724  13.440  12.417  0.0115  0.1889 -0.1916
 3398W        W19532   3.416   2.500   1.142  0.0166  0.1710  0.0677
 3399W        W19533   7.898  10.696   2.941 -0.0851  0.0534  0.0163
 3400W        W19534  13.608  11.950  12.819  0.1586  0.0910 -0.4196
 3401W        W19535  10.059   8.928   2.782  0.2026 -0.0668  0.1720
 3402W        W19536  10.328   1.993  14.350 -0.0023  0.3236  0.1544
 3403W        W19537  16.395  15.764  14.011  0.3183 -0.1500 -0.2795
 3404W        W19538   7.050  13.055   2.903 -0.2739 -0.1563  0.0767
 3405W        W19539   6.052   1.450   4.331 -0.2244 -0.1253  0.2351
 3406W        W19540  15.887   7.089  11.581 -0.1767  0.2172  0.0384
 3407W        W19541  11.231   8.367   4.544  0.4031 -0.1089 -0.0426
 3408W        W19542   4.661   3.300  10.553 -0.1398  0.0913  0.0592
 3409W        W19543   9.768   0.861   2.135  0.1251  0.1504  0.1101
 3410W        W19544   1.937  10.756  13.670 -0.2251 -0.0842 -0.1087
 3411W        W19545   3.307  11.715   4.144 -0.0251 -0.0289  0.2807
 3412W        W19546   7.711   6.538  13.815  0.0469  0.0707 -0.0319
 3413W        W19547  18.323   0.282   4.788 -0.1949 -0.1795 -0.1229
 3414W        W19548  12.796   3.367  10.079  0.1275 -0.3005 -0.1846
 3415W        W19549  12.253   4.692   5.216 -0.0768 -0.2673  0.0046
 3416W        W19550  11.560   0.995   1.137  0.0735 -0.1335  0.2951
 3417W        W19551   2.071  18.508   4.107 -0.1959 -0.0812 -0.1136
 3418W        W19552  11.526   8.046  11.930 -0.0918 -0.1068  0.1345
 3419W        W19553  13.694   1.039   3.235 -0.1731 -0.0645  0.4111
 3420W        W19554   0.482  17.829   0.525 -0.1271  0.2099 -0.0538
 3421W        W19555  16.617   3.488   5.244  0.2775 -0.0346  0.0066
 3422W        W19556  11.200   9.350   4.020  0.0365  0.0132 -0.1775
 3423W        W19557   8.866   1.394  12.034  0.2074 -0.1011 -0.1774
 3424W        W19558   8.407   2.623   2.694  0.0702  0.3705  0.3551
 3425W        W19559  14.931   8.767   9.799  0.1237  0.0246 -0.1655
 3426W        W19560  13.136  11.923  10.902  0.1265 -0.2092 -0.3875
 3427W        W19561   5.035  15.599   1.361 -0.0317 -0.0189 -0.2126
 3428W        W19562  13.546  14.758  14.114 -0.1577  0.0636 -0.0731
 3429W        W19563   3.106   5.644  12.126 -0.0974 -0.1724 -0.3708
 3430W        W19564   0.778  18.809  11.663 -0.1539 -0.3090  0.1168
 3431W        W19565   2.048   9.106  12.623  0.0773 -0.0853  0.3280
 3432W        W19566   2.744   3.611  12.794  0.4198 -0.1013 -0.0002
 3433W        W19567   7.002  12.251  14.640  0.0093  0.0906 -0.0645
 3434W        W19568   5.678   7.855  14.632  0.1052  0.0966 -0.3011
 3435W        W19569  12.525   8.079  12.593 -0.1165 -0.0263  0.0263
 3436W        W19570   3.342  11.169   1.248 -0.1923 -0.2585 -0.0983
 3437W        W19571  11.776  14.521   4.957 -0.2379 -0.2530  0.1588
 3438W        W19572  18.031   5.153  14.643 -0.0691 -0.1548  0.2970
 3439W        W19573  18.146  18.564  11.391  0.0912  0.1138 -0.4574
 3440W        W19574   7.872   9.637  10.265 -0.2105 -0.0542 -0.0243
 3441W        W19575  15.204  12.049   5.459  0.0400 -0.0906  0.0746
 3442W        W19576   6.117  17.999  11.993  0.0516 -0.1817  0.0140
 3443W        W19577  16.802   5.676  13.543  0.0528 -0.1334 -0.1677
 3444W        W19578  18.218   5.903  13.705 -0.0373 -0.0837  0.1217
 3445W        W19579   3.537   6.470   9.700  0.0563  0.1424  0.0077
 3446W        W19580  12.210   5.233   2.857 -0.2450 -0.2778 -0.0228
 3447W        W19581  17.787  14.258  11.551  0.1405  0.1304 -0.1986
 3448W        W19582   7.179   8.267   1.772  0.3653 -0.0966 -0.0439
 3449W        W19583  18.666  11.685   3.335 -0.1069  0.2663 -0.1586
 3450W        W19584   5.700  11.481   2.056  0.1056  0.1858 -0.1017
 3451W        W19585   7.301   1.904   4.075 -0.0560 -0.1268 -0.2131
 3452W        W19586  17.393   3.666   2.902  0.2847  0.1279 -0.1901
 3453W        W19587   2.998   3.640  14.817 -0.2135 -0.1156 -0.2709
 3454W        W19588   9.751   7.500  13.971 -0.1762  0.1247  0.1700
 3455W        W19589   5.492  15.672  12.497  0.2600 -0.3926 -0.0620
 3456W        W19590  14.274  10.819   0.082  0.1496  0.1625 -0.0740
 3457W        W19591  19.218  18.075  11.274  0.2784  0.0024  0.3889
 3458W        W19592   1.413  18.141   0.985  0.2658  0.0830 -0.0409
 3459W        W19593   4.430  15.080  11.571 -0.0918  0.2064 -0.0129
 3460W        W19594  18.091   7.049   0.557  0.2359  0.3400 -0.3135
 3461W        W19595   7.862  14.178  10.456  0.0773 -0.0300 -0.0876
 3462W        W19596   9.077   2.807   0.432  0.4829  0.0609  0.2646
 3463W        W19597   2.465  11.577   4.690 -0.0111  0.0473  0.2741
 3464W        W19598  15.649   0.663   3.289  0.4672  0.2349  0.1648
 3465W        W19599   8.340   4.002   0.314 -0.0844  0.3502 -0.2407
 3466W        W19600  12.030  16.933  13.832  0.4404 -0.2489 -0.0878
 3467W        W19601   2.297  12.533   3.232  0.3508 -0.0667 -0.0202
 3468W        W19602   1.959  18.618   5.542  0.1730 -0.0790 -0.1251
 3469W        W19603  11.031   0.391  12.836  0.1189 -0.1735 -0.0766
 3470W        W19604   6.376  18.635   2.829 -0.2657 -0.1374 -0.0889
 3471W        W19605  16.442   4.628   2.859  0.1514  0.0248  0.0583
 3472W        W19606   8.827   7.595  13.869  0.2693  0.0570 -0.0051
 3473W        W19607  15.221  16.817   2.215 -0.2140  0.2695 -0.0588
 3474W        W19608   4.481   5.508   3.360 -0.0688 -0.0007 -0.0915
 3475W        W19609   8.381   0.666  10.671 -0.1551 -0.2257 -0.2334
 3476W        W19610   2.653  11.455   1.632 -0.4377  0.1484  0.0554
 3477W        W19611  11.713   5.916   0.743  0.3756  0.0276  0.0676
 3478W        W19612  19.022   0.678  11.018 -0.2292  0.1684 -0.0334
 3479W        W19613  17.762  18.508   2.655 -0.1430  0.2246 -0.0976
 3480W        W19614  13.712  15.276   0.227  0.1394 -0.1372 -0.2349
 3481W        W19615   3.361   5.591  13.942  0.1953  0.0323 -0.2197
 3482W        W19616  19.080   8.398  13.568 -0.0408  0.1255  0.0483
 3483W        W19617   6.650  16.048  10.876 -0.2705 -0.1285  0.3534
 3484W        W19618   5.033   1.549   9.926 -0.1922 -0.0548 -0.3503
 3485W        W19619  13.295  12.141   0.311 -0.2125 -0.3245 -0.3117
 3486W        W19620   8.161   1.578   2.471  0.2150 -0.0163 -0.1055
 3487W        W19621  16.971  13.318   2.729  0.0596  0.5124  0.2443
 3488W        W19622  14.194   4.712  13.575  0.2268  0.2258 -0.3161
 3489W        W19623  16.606  18.607  12.666 -0.0493 -0.1697 -0.0394
 3490W        W19624  13.442  14.939   0.480 -0.1428 -0.2546  0.0633
 3491W        W19625   7.433   2.615  14.841  0.2291 -0.4651 -0.0134
 3492W        W19626   8.998   2.945  11.327 -0.1506 -0.0467  0.0965
 3493W        W19627   5.945   5.591  15.023 -0.2011  0.1575  0.0385
 3494W        W19628  13.345  16.665  10.581  0.1523 -0.3186 -0.1508
 3495W        W19629  15.537   0.294   4.158 -0.2406 -0.1628 -0.0301
 3496W        W19630  15.051  10.485  12.775 -0.0038 -0.1042 -0.1292
 3497W        W19631   9.546  11.683  14.429 -0.0767 -0.0682  0.0915
 3498W        W19632   9.190   1.188   1.281  0.0237  0.0719  0.6419
 3499W        W19633  16.626   7.919  13.254 -0.2901 -0.0351 -0.0991
 3500W        W19634   9.349   4.324   1.329  0.2454  0.2755  0.1126
 3501W        W19635   1.582  12.047   2.139 -0.0136  0.3098 -0.1822
 3502W        W19636  14.730  15.689  11.115  0.0661 -0.0285 -0.1770
 3503W        W19637  15.085  17.636   3.306  0.0368 -0.2916 -0.3116
 3504W        W19638  16.167  15.937  14.576 -0.1760  0.4011 -0.1283
 3505W        W19639  17.154   8.807  11.404  0.2746  0.0533  0.1661
 3506W        W19640   7.330   3.865   0.438  0.0131 -0.1579  0.0899
 3507W        W19641   3.637  18.802   4.293  0.1418  0.3905  0.0616
 3508W        W19642   4.230   0.948   1.509 -0.1686 -0.3279  0.0909
 3509W        W19643  12.296   0.243   0.784 -0.0664 -0.2749  0.3316
 3510W        W19644  11.788   4.251  11.117 -0.0552 -0.2618 -0.1545
 3511W        W19645   6.428   1.457   4.699  0.2229  0.0786  0.1396
 3512W        W19646   9.018   6.240  10.230 -0.2886 -0.0407  0.0234
 3513W        W19647   9.575  17.481   2.216 -0.3673 -0.2287  0.0765
 3514W        W19648   6.160   3.271  10.858 -0.3634  0.1540  0.1892
 3515W        W19649   7.310  18.220   0.448  0.3298 -0.1032  0.0931
 3516W        W19650  13.741   5.080  10.581  0.1731  0.0116 -0.3074
 3517W        W19651   7.388   2.176  12.666  0.1792 -0.1504 -0.0834
 3518W        W19652  11.047  11.230  13.115  0.2312  0.1286  0.1025
 3519W        W19653  13.286  17.725   3.252  0.1415  0.1492  0.2266
 3520W        W19654   1.492  13.228  12.525  0.0998  0.0781 -0.0412
 3521W        W19655   4.510  15.462   5.354  0.0710 -0.0146 -0.0809
 3522W        W19656  11.945   3.596   1.139 -0.3264 -0.1618  0.2165
 3523W        W19657   6.093   0.647   5.392  0.0412  0.2749 -0.1877
 3524W        W19658  16.220  12.110   1.997 -0.1045 -0.0727  0.3975
 3525W        W19659   7.737   8.695   4.608 -0.3096  0.0049 -0.1277
 3526W        W19660   2.471  11.878  11.617 -0.0094 -0.0216  0.0988
 3527W        W19661  14.230   6.678   1.381  0.0022 -0.2217  0.2485
 3528W        W19662  16.669  13.606  10.803 -0.1986 -0.2813  0.1165
 3529W        W19663   2.762  14.210  12.081 -0.0180  0.0392 -0.0666
 3530W        W19664   6.755   0.037  13.862 -0.1218  0.0240  0.0179
 3531W        W19665  15.808   4.477  11.449  0.0873  0.0100  0.3020
 3532W        W19666  12.461  15.605  13.019 -0.1560 -0.1986 -0.0267
 3533W        W19667   5.264  14.926   3.783  0.1721 -0.1721  0.0978
 3534W        W19668   7.488  11.057   3.155 -0.1534 -0.3429  0.1971
 3535W        W19669   9.426  12.591   5.316 -0.2146 -0.2895 -0.2633
 3536W        W19670   4.757   4.872   0.259  0.1463 -0.0957 -0.1071
 3537W        W19671  14.697  16.106  12.099 -0.0647  0.0228 -0.2588
 3538W        W19672  12.588   6.621  10.471  0.0436  0.2409  0.0194
 3539W        W19673   9.075   4.009  12.275 -0.0983 -0.2650  0.2807
 3540W        W19674   8.607  14.374   4.492  0.0825 -0.1062  0.0835
 3541W        W19675   3.814   8.656   2.558  0.3184 -0.0851 -0.1112
 3542W        W19676  13.170  16.413   9.803  0.3615  0.3070 -0.0173
 3543W        W19677  14.911   1.462   0.507  0.1525 -0.4468  0.3093
 3544W        W19678   6.993   2.902  12.077 -0.3573 -0.0757 -0.0071
 3545W        W19679  18.873  17.928  13.252 -0.3918 -0.2801 -0.1444
 3546W        W19680   3.525  14.606  12.291 -0.1281  0.1071  0.0357
 3547W        W19681  10.327   2.981   1.667  0.4061  0.0716 -0.3537
 3548W        W19682  13.193  10.156   3.037  0.0184 -0.4067  0.0124
 3549W        W19683   0.897   5.998  10.637  0.2732 -0.0372 -0.1812
 3550W        W19684  16.429  11.439   2.879 -0.0028 -0.0637  0.0823
 3551W        W19685   8.504  16.227  10.541  0.1446 -0.3038  0.0409
 3552W        W19686   4.322  12.288   2.541 -0.1852 -0.2628  0.1244
 3553W        W19687  13.771  18.462  12.049  0.2059 -0.2675  0.1202
 3554W        W19688   9.882   5.355  10.584  0.0443  0.1850  0.1480
 3555W        W19689  19.064   2.768   0.853  0.1906  0.2028 -0.1342
 3556W        W19690   5.933   2.089   1.305 -0.0070 -0.0395  0.3225
 3557W        W19691   4.213   0.181  14.366 -0.0114 -0.2651 -0.1019
 3558W        W19692  14.901  16.831   4.724 -0.2218  0.2853  0.1641
 3559W        W19693  18.440  10.982   9.695 -0.2830 -0.0128 -0.0914
 3560W        W19694   6.516   8.508  10.579 -0.1850 -0.1060 -0.0983
 3561W        W19695   6.072  11.983   3.589 -0.0766  0.3170 -0.3259
 3562W        W19696  11.335  17.343   3.276  0.1057  0.1218 -0.0035
 3563W        W19697   4.388  17.635  11.930 -0.1585 -0.1433 -0.1266
 3564W        W19698  15.025   3.997   3.964 -0.0598 -0.1007  0.2679
 3565W        W19699  18.002  12.098  10.955 -0.1129 -0.0375 -0.2750
 3566W        W19700  14.722  12.226   3.282 -0.1789 -0.0359 -0.2469
 3567W        W19701  17.390   2.417  11.096 -0.4147  0.0472  0.1547
 3568W        W19702  12.922  12.403   0.940  0.0365 -0.0280 -0.1342
 3569W        W19703  14.709  18.130   2.799  0.1693  0.4731 -0.2361
 3570W        W19704  17.053   1.239  11.983 -0.0377 -0.0250  0.0179
 3571W        W19705  13.018  11.928  11.391  0.0966  0.1982  0.2308
 3572W        W19706  14.331  18.259   2.433  0.4454  0.2588 -0.0781
 3573W        W19707   1.758   6.957   1.894 -0.1616 -0.3320 -0.3510
 3574W        W19708   5.841   4.673   5.462 -0.0239 -0.1183  0.1019
 3575W        W19709   6.119   7.289  13.485 -0.3732 -0.1196 -0.2872
 3576W        W19710  12.806  17.380   4.464  0.2310  0.1440 -0.0598
 3577W        W19711   4.143   8.691  15.025 -0.0334  0.2952 -0.2237
 3578W        W19712   4.360  11.855   2.119  0.1406  0.0086 -0.0818
 3579W        W19713   8.613  17.610   0.339  0.2051  0.2357 -0.1694
 3580W        W19714  15.289   7.696   0.042 -0.1770 -0.1863 -0.1193
 3581W        W19715  14.998   8.263   2.194  0.2335 -0.1827  0.0196
 3582W        W19716   2.254  17.657   2.471 -0.0518 -0.4368  0.1365
 3583W        W19717   3.316  15.763   2.902  0.0966  0.2721  0.1313
 3584W        W19718  17.331   5.758   4.419  0.0674 -0.1543  0.1648
 3585W        W19719  12.751  15.224  12.576  0.3872 -0.2081  0.0648
 3586W        W19720   9.304  17.758  10.774 -0.2775  0.2567  0.2047
 3587W        W19721   6.424   8.941  10.784 -0.2470  0.2388  0.1646
 3588W        W19722  15.376   4.188  10.498  0.3383 -0.3030  0.1207
 3589W        W19723   7.117   3.924   4.045  0.2793  0.1790  0.0475
 3590W        W19724   0.306   9.566  11.023  0.2835  0.0111 -0.0411
 3591W        W19725   3.608  17.303   4.980  0.2062 -0.0439 -0.0004
 3592W        W19726  17.732   2.157   3.119 -0.0633  0.0087  0.0619
 3593W        W19727  12.075  19.015  12.068 -0.0186 -0.0648 -0.0250
 3594W        W19728  14.693  10.894  14.657  0.0490  0.1407 -0.0695
 3595W        W19729   3.585  17.655   2.019 -0.4102 -0.3918  0.1171
 3596W        W19730   8.697   3.832   4.578  0.0964  0.0892 -0.2583
 3597W        W19731   3.495   7.791   2.244 -0.1774 -0.2785 -0.0479
 3598W        W19732   9.158  16.992  10.839 -0.2549 -0.2498 -0.2159
 3599W        W19733   9.444  15.371   0.884 -0.0319 -0.1126 -0.0519
 3600W        W19734   7.478  17.946  11.361  0.1805  0.0526 -0.0007
 3601W        W19735  13.906   9.260  11.778 -0.5207 -0.2508  0.3663
 3602W        W19736   8.567  17.143   3.785  0.1218  0.1280 -0.1211
 3603W        W19737   9.285   4.348   0.292  0.0208  0.3011 -0.3911
 3604W        W19738  12.185   2.396   4.466  0.0721  0.1254 -0.0889
 3605W        W19739  10.736   7.683  13.580 -0.0336  0.0906 -0.0233
 3606W        W19740  14.571  17.748   4.789 -0.1708 -0.1914  0.0330
 3607W        W19741  11.746   4.746   1.882 -0.1054 -0.0761 -0.1219
 3608W        W19742   0.225  10.092  14.007 -0.0956 -0.2457 -0.0932
 3609W        W19743   8.239   6.328  10.456  0.1729  0.3839 -0.1419
 3610W        W19744  14.850  15.287   1.757 -0.5464  0.0300 -0.1582
 3611W        W19745  17.783  18.516   1.441  0.3346 -0.2013 -0.0898
 3612W        W19746   4.512   6.485  12.533  0.0650  0.0681  0.1978
 3613W        W19747  11.096   0.882   9.574  0.1842 -0.0786 -0.1293
 3614W        W19748   6.221  17.999  13.731  0.2286  0.0652  0.2543
 3615W        W19749   0.395   2.855   4.833  0.3966 -0.0585 -0.2355
 3616W        W19750   9.586   5.463   0.422 -0.1654  0.1935  0.1464
 3617W        W19751   6.927  15.918   3.693  0.1905 -0.4612  0.0911
 3618W        W19752   8.299   0.596   1.546 -0.2313  0.0990 -0.0063
 3619W        W19753  16.945   5.776  14.527 -0.2258  0.0167  0.0238
 3620W        W19754  10.167  11.435  13.757 -0.0115  0.0434 -0.1112
 3621W        W19755   9.164  10.427   5.330  0.1428 -0.0169 -0.0451
 3622W        W19756   8.210  14.372  10.767  0.2263  0.0033  0.2675
 3623W        W19757  12.687  15.998  10.856 -0.1109 -0.0153  0.2033
 3624W        W19758  18.748   4.149   4.517 -0.0621  0.0987 -0.0377
 3625W        W19759  13.425  18.515   1.814 -0.0388 -0.0046  0.3953
 3626W        W19760   6.964  10.805   0.350  0.2431  0.1499  0.1950
 3627W        W19761   1.758   5.388   4.682 -0.0576 -0.0964  0.0652
 3628W        W19762  15.263   0.402  13.333  0.2350 -0.1249 -0.2249
 3629W        W19763  16.622   0.387  13.511  0.0729  0.2788  0.1383
 3630W        W19764  10.906   1.758   2.990  0.0203 -0.1632 -0.0179
 3631W        W19765   3.364   6.936  10.647  0.1784  0.1270 -0.0946
 3632W        W19766   1.985   8.743   3.977 -0.1107  0.2095 -0.3603
 3633W        W19767   4.032  18.808  10.525 -0.0996 -0.0861 -0.0658
 3634W        W19768   7.066   8.292  14.616 -0.1861  0.0602  0.1666
 3635W        W19769   3.049   1.146  12.419  0.1044 -0.1128 -0.0557
 3636W        W19770  17.788   7.841  11.424 -0.0168 -0.1537 -0.3424
 3637W        W19771   4.312   7.604  12.667 -0.0027  0.0583  0.0820
 3638W        W19772   8.135   0.933   0.382 -0.1914  0.4168  0.1589
 3639W        W19773   9.028   5.140  13.003 -0.0373 -0.1772 -0.2787
 3640W        W19774   7.137  15.925  11.852  0.0054  0.2443 -0.1022
 3641W        W19775  17.315   9.077   4.307 -0.0832 -0.0906  0.0258
 3642W        W19776   2.492  16.449   4.649 -0.0806 -0.0898  0.2996
 3643W        W19777   7.402   4.925  14.827 -0.1770 -0.0910  0.0922
 3644W        W19778   1.964  18.692  11.431  0.1872 -0.2078 -0.1240
 3645W        W19779  16.813   4.819   4.818  0.0501 -0.0622 -0.0604
 3646W        W19780  15.050   1.798  12.803  0.1357  0.1164  0.1638
 3647W        W19781  16.072  13.964   0.402 -0.4814  0.1262 -0.4727
 3648W        W19782  16.409  18.536  13.317  0.1304 -0.1218  0.1203
 3649W        W19783  13.856  15.309   2.147 -0.0972  0.0858 -0.0707
 3650W        W19784   4.109   4.437  11.318  0.4086 -0.0664  0.0542
 3651W        W19785  14.318  10.779   3.699 -0.0622 -0.0968 -0.2268
 3652W        W19786  14.879   6.524  10.483  0.0332  0.3273  0.3256
 3653W        W19787  14.823   3.877  13.814  0.0199 -0.2252  0.0875
 3654W        W19788  12.608   3.693  12.542 -0.1119 -0.0856 -0.1242
 3655W        W19789  12.358  10.857   1.088  0.1925 -0.2749  0.2519
 3656W        W19790  11.863   3.562  10.481  0.0101 -0.1371 -0.1057
 3657W        W19791  17.353  15.301  13.410 -0.2593 -0.1285  0.0265
 3658W        W19792  12.237  10.597   4.110 -0.2788 -0.1308 -0.2446
 3659W        W19793   5.657  13.866   4.932  0.0108 -0.2520 -0.2583
 3660W        W19794  15.009   7.992  10.472 -0.0600 -0.0281  0.2753
 3661W        W19795  16.183  11.253   5.163 -0.0206 -0.1472 -0.0845
 3662W        W19796   8.342   1.050  13.586 -0.1812  0.0275  0.3096
 3663W        W19797  12.523  10.634  13.360  0.0228  0.0317  0.0188
 3664W        W19798   0.622  12.799   4.484 -0.0953  0.0760  0.2746
 3665W        W19799  13.497   3.510  12.772 -0.1437 -0.1453  0.3854
 3666W        W19800  16.820   3.951   1.146 -0.0137 -0.2892 -0.1225
 3667W        W19801   4.745   4.563  12.769 -0.0086  0.2768  0.1240
 3668W        W19802   2.498  16.448  11.673 -0.0246  0.1328  0.2745
 3669W        W19803   9.160   3.762   1.318  0.3012  0.5030 -0.0293
 3670W        W19804   2.378   2.313  13.818  0.1106 -0.1094 -0.0215
 3671W        W19805  10.463   2.707   0.973 -0.0366 -0.0911 -0.4351
 3672W        W19806   3.850  14.627  13.753 -0.0170  0.0179 -0.2258
 3673W        W19807  18.600   0.730   0.339  0.1267  0.0927  0.0981
 3674W        W19808   7.204   8.259   0.713  0.3234 -0.0495  0.3354
 3675W        W19809   9.273  17.068   0.783  0.0113 -0.1072 -0.2609
 3676W        W19810  11.756   2.983  11.290 -0.1508 -0.0206  0.0966
 3677W        W19811  13.996   2.743  13.167  0.2168  0.2775  0.0571
 3678W        W19812   1.792   7.659   3.173  0.0156  0.1294 -0.2201
 3679W        W19813  10.535   6.613   2.950  0.1168 -0.0166 -0.2087
 3680W        W19814  15.546  15.838  13.772 -0.2009 -0.1480 -0.0675
 3681W        W19815  12.341   9.433  12.835 -0.2696 -0.2821  0.1140
 3682W        W19816   0.768   5.839  12.311  0.3760 -0.3721 -0.4116
 3683W        W19817   5.171  16.746   4.286  0.0723  0.1475 -0.0113
 3684W        W19818   3.140   2.103  11.296 -0.0755 -0.0544  0.1135
 3685W        W19819   5.464  15.426   2.462 -0.3021  0.1987 -0.2060
 3686W        W19820   9.897  18.667  12.553 -0.3081  0.0162 -0.2503
 3687W        W19821  10.008   9.418   1.732  0.1657  0.0427 -0.2488
 3688W        W19822  11.348   8.966   0.254 -0.3149  0.1314  0.2045
 3689W        W19823   3.133  16.896  14.472 -0.0340  0.0784 -0.1577
 3690W        W19824   4.105  10.601   3.128  0.0339 -0.0126  0.4833
 3691W        W19825  15.885   4.082   4.362 -0.1100  0.2131 -0.0195
 3692W        W19826   7.136   3.209   0.990 -0.0632 -0.0178 -0.1771
 3693W        W19827   3.636  16.480   1.511 -0.0285 -0.4051 -0.1218
 3694W        W19828   5.562   8.664   1.574 -0.1835  0.1853  0.1246
 3695W        W19829  14.345   9.037  11.878  0.2202 -0.3378 -0.1480
 3696W        W19830  17.549   0.677  10.531  0.1661 -0.2779 -0.0553
 3697W        W19831  17.093  14.301   3.813  0.0408 -0.1482  0.1738
 3698W        W19832  18.123  18.049   2.629 -0.2744  0.0229 -0.0947
 3699W        W19833  11.596  17.575   1.642 -0.1417 -0.1641  0.0361
 3700W        W19834  11.532  10.290   1.715  0.0114 -0.0289  0.0330
 3701W        W19835  12.804   0.344  12.940 -0.1565 -0.2842  0.1907
 3702W        W19836  16.493  14.429  14.449  0.2599 -0.2700  0.0016
 3703W        W19837  19.075  13.939  12.527  0.3624  0.0131 -0.1489
 3704W        W19838   9.207  15.693   1.436  0.1293 -0.2705  0.3300
 3705W        W19839   2.411   6.934   3.887 -0.2789  0.1043 -0.0044
 3706W        W19840   8.258   1.544   4.007  0.1324  0.0475  0.3816
 3707W        W19841   1.141  19.090  13.783  0.3063  0.1291 -0.0258
 3708W        W19842  15.984  16.053   1.359 -0.0348  0.0199 -0.2109
 3709W        W19843   5.442   3.087   0.313  0.4174 -0.0511 -0.2260
 3710W        W19844   9.428   5.132  10.574 -0.4692 -0.3462  0.1305
 3711W        W19845  12.270  13.756  13.374  0.0813 -0.0193 -0.0508
 3712W        W19846  17.129   1.740   0.932 -0.3931 -0.2416 -0.2130
 3713W        W19847   3.310  15.046   3.693 -0.0860 -0.0416 -0.0262
 3714W        W19848  18.280  12.233   0.251 -0.3705  0.0652  0.1035
 3715W        W19849   2.954   4.122  10.729  0.0362  0.0511  0.0064
 3716W        W19850  11.119  16.814   3.476  0.1663  0.0653 -0.1858
 3717W        W19851   4.720   0.540  12.577 -0.3175  0.0125  0.0942
 3718W        W19852  15.680   9.781  14.510 -0.0277  0.0590  0.0467
 3719W        W19853  18.309  11.203  10.181 -0.0635 -0.3449  0.0928
 3720W        W19854   2.017  17.478  13.283  0.1613  0.0482  0.2522
 3721W        W19855   9.506   0.505   1.212  0.0051 -0.0804  0.0879
 3722W        W19856  10.022   4.128  13.956 -0.0693 -0.1540  0.1199
 3723W        W19857   6.839  15.849  14.353  0.0139 -0.0383  0.1470
 3724W        W19858  10.758   2.371  12.645 -0.1971  0.2090  0.0015
 3725W        W19859  10.761  12.371   1.491  0.0963 -0.0138 -0.0238
 3726W        W19860  13.495  13.601   0.313  0.0682  0.0682  0.0867
 3727W        W19861   2.125  12.148   4.811 -0.1718 -0.1670 -0.1107
 3728W        W19862  14.766  10.968  12.745 -0.2722 -0.1366 -0.1108
 3729W        W19863   7.847   3.097   9.787  0.0299 -0.1162 -0.1280
 3730W        W19864  14.054  18.402   1.979  0.3241 -0.0332  0.2131
 3731W        W19865  12.471  17.281   2.281  0.2241 -0.1363 -0.0963
 3732W        W19866   1.698  16.288   1.295 -0.0570 -0.1965  0.1151
 3733W        W19867   5.379  18.299   1.022  0.2348  0.0302  0.1397
 3734W        W19868  11.146  16.712   4.020 -0.1635  0.0482 -0.1546
 3735W        W19869  13.935  16.363   2.535 -0.3795  0.1888 -0.0104
 3736W        W19870   8.060   2.075   9.049 -0.1665 -0.0789 -0.1302
 3737W        W19871  10.375  15.287  10.551  0.1531 -0.2721 -0.1334
 3738W        W19872   1.389  12.090  14.613  0.1324  0.2212 -0.0946
 3739W        W19873  12.987  13.961  14.004 -0.0611 -0.2043  0.0042
 3740W        W19874  18.109  13.472  12.133 -0.1892  0.2622 -0.4073
 3741W        W19875   8.947   8.387  14.466  0.1309  0.1627  0.1358
 3742W        W19876   8.585  12.512   3.695 -0.1477  0.1573 -0.2801
 3743W        W19877   2.267  15.744   4.020 -0.1527  0.0394 -0.3452
 3744W        W19878   5.889  18.780   3.173  0.0270 -0.1925  0.0128
 3745W        W19879   7.782   1.220   2.460 -0.0997 -0.0414 -0.0978
 3746W        W19880   9.529   1.305   2.238 -0.0194 -0.0125  0.2154
 3747W        W19881  18.746  10.489  12.890 -0.0082  0.0998 -0.3179
 3748W        W19882  18.644  16.950   3.252  0.0074  0.0320 -0.3103
 3749W        W19883  10.275   0.905   0.907  0.1660  0.1402  0.1970
 3750W        W19884   6.439  14.625   4.780 -0.3810  0.2661  0.1915
 3751W        W19885   6.676   9.030   3.246  0.0536  0.4346  0.0666
 3752W        W19886  11.927  15.786   4.908 -0.3284 -0.2519  0.1800
 3753W        W19887   1.299  14.027   2.900 -0.2720  0.0764 -0.2889
 3754W        W19888  15.475   5.838  12.934 -0.2248 -0.0158  0.4418
 3755W        W19889  12.996   1.819   4.118 -0.0360  0.1772  0.1849
 3756W        W19890   1.647   3.224   4.713 -0.1469 -0.2432  0.0688
 3757W        W19891   1.341  13.404   3.134  0.1537  0.2138 -0.0714
 3758W        W19892   3.232   1.663   0.536  0.0035  0.2639  0.1128
 3759W        W19893   6.254   0.379  14.949 -0.1215  0.0790 -0.1282
 3760W        W19894  18.972  12.712   4.360 -0.1857 -0.1460  0.1803
 3761W        W19895  14.439  10.945   4.482  0.1854 -0.1584  0.0050
 3762W        W19896   3.030   1.161  13.505 -0.0907  0.1187 -0.0779
 3763W        W19897   5.863   1.660   3.369  0.2028 -0.4130 -0.2561
 3764W        W19898  11.340   9.124  14.192  0.0292 -0.0702 -0.1558
 3765W        W19899  18.440   4.688  14.856 -0.1115  0.4521 -0.3001
 3766W        W19900  10.008  18.711   0.103  0.1465 -0.0014 -0.0445
 3767W        W19901   5.798   3.355   4.275 -0.0091  0.1074  0.1526
 3768W        W19902  14.887   5.853   1.968  0.1551  0.0310  0.3167
 3769W        W19903   9.572  16.613   0.785  0.1663  0.0985  0.3184
 3770W        W19904   4.378  17.921  10.182  0.0541  0.2141  0.2111
 3771W        W19905  16.417  17.531  12.467 -0.0982 -0.2057 -0.2762
 3772W        W19906  13.590   2.381  13.159  0.1482 -0.1457 -0.1168
 3773W        W19907  11.004   9.749   5.211 -0.0371  0.0787  0.0566
 3774W        W19908  19.097  12.633   0.947  0.4741  0.1238  0.0272
 3775W        W19909   8.794   4.345   4.663  0.0419  0.0461  0.2671
 3776W        W19910   7.916   7.913  12.773 -0.0277  0.1592  0.0537
 3777W        W19911  17.712  14.857   0.288  0.1357  0.0606  0.2956
 3778W        W19912  15.182  12.977  12.011 -0.0208  0.0555  0.0673
 3779W        W19913  15.954  15.869  14.130  0.2337  0.0526  0.0258
 3780W        W19914  12.559  16.306   0.788 -0.2601 -0.3336  0.1124
 3781W        W19915  16.374   5.761  14.858 -0.1750 -0.2940  0.2661
 3782W        W19916   3.126   8.148   2.273 -0.0725  0.0274  0.2546
 3783W        W19917  18.779  18.802   1.494 -0.2382  0.4248  0.0991
 3784W        W19918   8.240   1.247   1.574  0.0463  0.0119  0.0407
 3785W        W19919  13.588   3.675   0.817  0.1381 -0.1600 -0.0687
 3786W        W19920   5.714  18.653   1.763  0.1007  0.4784  0.0361
 3787W        W19921   0.299  10.623   0.628 -0.0557  0.0835  0.0703
 3788W        W19922  18.911  12.268  10.779  0.0357 -0.3723 -0.0825
 3789W        W19923  12.581   7.062   0.950  0.0757 -0.4394  0.3677
 3790W        W19924   5.095   1.126   1.257 -0.0448  0.0215 -0.1693
 3791W        W19925  16.334   0.467   3.515  0.1201 -0.3865 -0.1347
 3792W        W19926  13.344   3.438  13.213 -0.3185  0.1476  0.1531
 3793W        W19927   2.797   1.982   0.661 -0.1400 -0.1314  0.0578
 3794W        W19928   7.073   2.839   5.016 -0.0037  0.3195  0.0133
 3795W        W19929   3.905   3.217   3.030  0.4514 -0.0148  0.0713
 3796W        W19930  11.762  10.116  13.310  0.2497  0.0633  0.3467
 3797W        W19931   9.170   6.686  10.417  0.1561  0.0429  0.2513
 3798W        W19932  18.296   2.879   3.303 -0.0504 -0.2212 -0.1131
 3799W        W19933   8.197   7.959   3.493 -0.0954 -0.0328 -0.1440
 3800W        W19934  12.884   9.760   3.203 -0.0104  0.2618  0.1997
 3801W        W19935  12.626   9.402  11.411  0.1003  0.1195 -0.1936
 3802W        W19936   2.729   6.662   2.185 -0.1075  0.0460 -0.2047
 3803W        W19937  16.051   9.486  11.711  0.0431 -0.1661 -0.3499
 3804W        W19938  10.748   6.158   3.158  0.0901  0.1411 -0.2487
 3805W        W19939   2.019  18.968  14.004  0.1052 -0.1475 -0.1332
 3806W        W19940  16.227   6.608   2.844 -0.1157 -0.1388 -0.2446
 3807W        W19941   5.112  10.245   1.771 -0.1856 -0.0376  0.0433
 3808W        W19942  18.622   5.273   1.913  0.0007 -0.0828 -0.3613
 3809W        W19943   1.547   5.736   2.752 -0.2582  0.2073 -0.1772
 3810W        W19944   6.383   3.690  12.704 -0.0198 -0.4631 -0.3301
 3811W        W19945  16.613   9.196  12.402 -0.3010 -0.0776 -0.0148
 3812W        W19946   6.501   6.983  14.434  0.4691  0.1720  0.0652
 3813W        W19947   2.696  18.649  10.787  0.1016  0.0356 -0.2961
 3814W        W19948  14.763   9.753   0.440  0.2437  0.0341 -0.1535
 3815W        W19949  17.959   4.134  10.733 -0.0657  0.0500  0.3768
 3816W        W19950  17.944  19.055   5.347  0.1638  0.2817 -0.0303
 3817W        W19951   3.756  16.632   5.907 -0.1414  0.0024  0.0985
 3818W        W19952  10.103   5.638  12.265 -0.1717 -0.1035 -0.1037
 3819W        W19953   1.214  15.001  11.792  0.1995 -0.2599 -0.0124
 3820W        W19954  14.967   3.099  13.562  0.0447  0.1680  0.0538
 3821W        W19955  17.945   0.869   4.036 -0.0707  0.0912 -0.1238
 3822W        W19956   2.834   5.647  13.809  0.1267 -0.0011 -0.2649
 3823W        W19957  11.583   3.421   3.457  0.3184 -0.0857 -0.2678
 3824W        W19958  10.589  16.735   0.790  0.0151 -0.1186  0.2101
 3825W        W19959  11.820   0.505   0.947 -0.2853  0.2350  0.1089
 3826W        W19960   2.662   3.404   4.584 -0.2298  0.3375  0.2009
 3827W        W19961  16.229   6.721  12.538 -0.0611  0.4338 -0.1498
 3828W        W19962   9.531  11.379  12.671 -0.0897 -0.0090 -0.2357
 3829W        W19963  10.531  15.414  14.567  0.1048  0.2154 -0.2009
 3830W        W19964  12.260   2.387   2.511 -0.2755  0.1373 -0.0264
 3831W        W19965   2.856   1.009  11.308  0.2277 -0.4387  0.1438
 3832W        W19966  10.019  12.708   3.797  0.0921 -0.1330 -0.0795
 3833W        W19967   5.463  18.675   3.033  0.2541  0.2755  0.1286
 3834W        W19968  15.408  18.249   4.132  0.2206 -0.1986  0.1518
 3835W        W19969  10.993  11.022   0.719 -0.0641  0.0115 -0.0775
 3836W        W19970   6.729  12.937   1.295  0.0479  0.2045  0.2137
 3837W        W19971  12.916   6.139   0.863  0.0241 -0.1407 -0.1914
 3838W        W19972   3.221   9.137  12.483  0.3929 -0.1216 -0.0865
 3839W        W19973   3.396  12.890   5.139 -0.2669  0.1292 -0.1438
 3840W        W19974  16.339   3.346  13.403 -0.2611  0.0183  0.2146
 3841W        W19975  15.946  16.511   5.625 -0.1830 -0.1339  0.3761
 3842W        W19976  13.825  14.316  13.868 -0.0561  0.1400  0.0780
 3843W        W19977   4.408   5.498  12.442  0.5751 -0.1630 -0.2244
 3844W        W19978   8.721  10.647   1.746  0.2013  0.0701  0.3956
 3845W        W19979   3.252  14.488   0.490  0.0503  0.2082  0.0098
 3846W        W19980   8.781   4.135  12.676  0.0703  0.1245 -0.3488
 3847W        W19981   8.623  17.640   5.061 -0.1719 -0.0679 -0.1011
 3848W        W19982   4.669   4.584  14.830  0.1548 -0.1740  0.1247
 3849W        W19983   6.038   6.815   1.766  0.0612  0.1083 -0.2585
 3850W        W19984  10.470  16.356  12.922 -0.0595 -0.1779 -0.3279
 3851W        W19985   4.452   6.332  11.303  0.1753 -0.0252 -0.1552
 3852W        W19986  12.561   5.575   2.790  0.0623 -0.0735 -0.1102
 3853W        W19987   5.740  10.951   1.216 -0.0100 -0.0607  0.2925
 3854W        W19988   6.502  17.867  10.396  0.2399 -0.0013 -0.2334
 3855W        W19989   6.280   2.531   0.628 -0.1777  0.1797 -0.0604
 3856W        W19990   3.791   8.490  14.741  0.1278 -0.0031  0.2244
 3857W        W19991   8.292   8.683  11.964 -0.1189 -0.0816  0.0979
 3858W        W19992  18.161   7.377  13.409  0.2094  0.3403  0.3061
 3859W        W19993  16.083   5.700   2.260 -0.0264 -0.0466 -0.0603
 3860W        W19994   3.545  12.407  13.374  0.1407 -0.0822 -0.1788
 3861W        W19995   9.296   1.434   5.216 -0.0687 -0.1293  0.0620
 3862W        W19996   8.397   9.269  12.002 -0.2099 -0.1027 -0.1695
 3863W        W19997  10.386  15.271  13.459  0.1062 -0.1226  0.1371
 3864W        W19998   2.693  10.907  14.385  0.0095  0.0704 -0.2853
 3865W        W19999  17.136  12.539  11.109  0.1183 -0.1378 -0.0512
 3866W        W20000   9.170   4.336  10.356  0.3389  0.2659  0.0374
 3867W        W20001  11.263   6.904  14.389 -0.0943 -0.1765 -0.0688
 3868W        W20002   3.801  11.974  13.292 -0.0380  0.1476 -0.0970
 3869W        W20003   7.272  15.669   5.008 -0.0566 -0.2289  0.1427
 3870W        W20004   8.872   8.893  13.152 -0.3230  0.0710 -0.1112
 3871W        W20005   0.264   0.527   5.308 -0.1310 -0.0062 -0.3289
 3872W        W20006  18.187  10.457   3.518  0.0831  0.0852  0.1965
 3873W        W20007  15.899  18.579  13.218 -0.0507  0.1464  0.1496
 3874W        W20008   6.052  11.836  10.900 -0.4154  0.1564 -0.0542
 3875W        W20009   5.311   9.268  14.433  0.0571 -0.1238 -0.0972
 3876W        W20010  10.618   1.845   0.037  0.2056  0.2087  0.1695
 3877W        W20011  17.046   0.446  10.276  0.2008  0.0633  0.2348
 3878W        W20012  10.296  14.071  12.859  0.1700  0.0528 -0.1904
 3879W        W20013  16.284  10.811   3.432 -0.1302  0.0464  0.3472
 3880W        W20014  13.048  15.716  12.860  0.1448 -0.0894 -0.1087
 3881W        W20015  16.210   2.816   4.059 -0.2092  0.0415 -0.1051
 3882W        W20016   4.645  12.367   4.794 -0.0699  0.1831 -0.0453
 3883W        W20017  13.824   8.416   1.291 -0.0511  0.1867  0.0882
 3884W        W20018   0.905  18.322   0.988 -0.4248 -0.0090 -0.2531
 3885W        W20019  16.014   4.925  12.774 -0.0864  0.3210 -0.2173
 3886W        W20020   0.446  11.398  13.297 -0.1305  0.1584  0.0277
 3887W        W20021   1.110   0.439  13.052  0.1973  0.3639 -0.2814
 3888W        W20022   2.789  18.271   3.418 -0.3297  0.0436  0.3367
 3889W        W20023   9.440  14.896   0.128  0.0818  0.4123 -0.2739
 3890W        W20024  10.935   7.029   9.661 -0.1098  0.2761 -0.1342
 3891W        W20025   2.483   3.051   2.604  0.2263  0.1573  0.0022
 3892W        W20026   2.614  12.478   4.033  0.1065  0.1173  0.0420
 3893W        W20027  14.061  14.605  12.675  0.1532 -0.1130  0.0377
 3894W        W20028  16.518  10.824  14.250 -0.0772 -0.0918  0.0982
 3895W        W20029   5.112  15.318   0.401  0.0092 -0.0792  0.2020
 3896W        W20030   8.833  13.748  11.992  0.0447 -0.0496  0.2117
 3897W        W20031  17.223   3.714  12.470 -0.3257 -0.1934 -0.2752
 3898W        W20032   2.839  10.023  10.246 -0.1457  0.3112 -0.1647
 3899W        W20033   8.196   7.567   9.632 -0.0912  0.1543 -0.0025
 3900W        W20034  14.567   7.008   4.662 -0.1001 -0.0877  0.0530
 3901W        W20035  13.371   1.501   4.010  0.0034  0.2121 -0.0976
 3902W        W20036  18.852   3.260   0.587  0.0895 -0.1851 -0.0958
 3903W        W20037   9.771  17.964   2.107  0.1697 -0.1083 -0.2469
 3904W        W20038   3.193   8.531  11.819 -0.1565 -0.0293  0.1900
 3905W        W20039  10.727   1.119  11.952 -0.1628  0.1067  0.0195
 3906W        W20040   6.418  18.871  11.900 -0.0972  0.0991 -0.0709
 3907W        W20041   1.801   4.900   2.360 -0.2907 -0.0206 -0.0351
 3908W        W20042   2.349  16.794   3.689 -0.0923  0.0037  0.0175
 3909W        W20043  18.854  13.944  11.402  0.0100  0.0480  0.1554
 3910W        W20044   0.037   9.743  13.707 -0.2987  0.0446 -0.0315
 3911W        W20045   4.994  15.328   5.536  0.2669  0.1950 -0.1933
 3912W        W20046  10.687  15.483   9.752 -0.2780 -0.4391  0.0893
 3913W        W20047  15.985  16.085   4.884 -0.0300 -0.1173  0.0028
 3914W        W20048   1.217   2.643   4.333  0.1044 -0.0699  0.1773
 3915W        W20049  18.648   4.506  11.190 -0.2019 -0.3144 -0.0721
 3916W        W20050  17.361   7.339   1.416 -0.0436  0.0806 -0.0008
 3917W        W20051   7.498   4.541   1.121 -0.2319  0.0785 -0.1434
 3918W        W20052   1.585   4.908   3.986  0.0282  0.0081  0.3737
 3919W        W20053   9.119   7.156   2.995  0.1486 -0.0405 -0.1131
 3920W        W20054  15.743   7.205   2.240  0.2709 -0.3451 -0.1734
 3921W        W20055   8.758   7.558   0.088 -0.1582 -0.0254 -0.0442
 3922W        W20056   7.146  17.329  10.674 -0.2313 -0.3434  0.0762
 3923W        W20057   2.833   8.386  12.275 -0.0659  0.0624  0.1540
 3924W        W20058   3.867   4.839  10.476 -0.2037  0.0633  0.1798
 3925W        W20059   2.555   4.516   4.643  0.0971 -0.1478  0.0315
 3926W        W20060  15.028  11.102   0.508  0.1475  0.0975  0.2604
 3927W        W20061   2.383  16.143  12.853 -0.0059  0.0639  0.3327
 3928W        W20062  10.151   6.842  13.691 -0.0839 -0.2307 -0.0055
 3929W        W20063  16.979   7.146  12.199  0.1008  0.2603 -0.0750
 3930W        W20064  13.518   2.905  13.926 -0.1981  0.1503 -0.0316
 3931W        W20065  17.548   7.858   3.489 -0.0499 -0.0377  0.4725
 3932W        W20066  13.819   7.588  14.907  0.0514  0.1869  0.2514
 3933W        W20067  15.241   0.292   1.740 -0.1376 -0.1735 -0.1027
 3934W        W20068  12.076  11.384   2.959 -0.1962  0.0448  0.3926
 3935W        W20069   9.064  15.086  12.295  0.0142  0.1619  0.1718
 3936W        W20070  19.089  15.897  11.286  0.1158 -0.1257 -0.0721
 3937W        W20071  10.259  13.523   0.607 -0.0153  0.2437  0.2140
 3938W        W20072   8.523  10.204   3.543 -0.0362  0.0901  0.0890
 3939W        W20073   6.876   0.276   3.274  0.0607  0.2547  0.0467
 3940W        W20074  10.621  13.321   5.334 -0.3119 -0.1059  0.2369
 3941W        W20075   4.150   6.269   3.749 -0.3246  0.1511 -0.0554
 3942W        W20076  10.325  15.969   9.908  0.0497 -0.1471  0.2544
 3943W        W20077   5.055  15.381   3.942  0.0470  0.0726  0.1281
 3944W        W20078   4.061  14.446   2.912  0.1892 -0.1741 -0.2822
 3945W        W20079   7.787  17.508   5.031 -0.3071  0.2492 -0.2913
 3946W        W20080   6.125   7.437  10.627 -0.0650 -0.2470 -0.0359
 3947W        W20081  12.129   0.522   0.386  0.0548 -0.0202  0.0299
 3948W        W20082   8.809  13.779   2.970 -0.3424  0.0462  0.0859
 3949W        W20083   6.801  13.329   1.003  0.1144  0.2512 -0.2092
 3950W        W20084   5.644  13.014   1.380 -0.3132  0.1441 -0.2792
 3951W        W20085  18.770   1.169   2.557  0.0135 -0.0709  0.4320
 3952W        W20086   8.913  13.786  11.128  0.2209  0.2408 -0.0336
 3953W        W20087  12.623  18.123  13.922  0.1721 -0.1855  0.1238
 3954W        W20088  17.768   6.643   9.582  0.1406  0.0914  0.0500
 3955W        W20089   1.760   6.920  13.038 -0.0066 -0.1940  0.1035
 3956W        W20090  15.096   4.514   4.078  0.3261  0.2026  0.1852
 3957W        W20091  10.232  14.288   1.790 -0.0606 -0.1604  0.0468
 3958W        W20092   1.308  17.467   3.529  0.4189 -0.2613 -0.1637
 3959W        W20093  18.870  10.460   9.106 -0.1892 -0.3013  0.1278
 3960W        W20094   3.263  11.328  11.599  0.1056 -0.0260 -0.0947
 3961W        W20095   7.979  13.691   4.294 -0.0215  0.1407 -0.0652
 3962W        W20096   5.715  17.891   4.995 -0.1621  0.0034  0.4166
 3963W        W20097  12.860  17.493  14.449 -0.0060  0.0068  0.1818
 3964W        W20098  11.875   3.322  12.572 -0.1083  0.1125  0.0286
 3965W        W20099   9.449  13.497  13.050 -0.0797  0.0347 -0.0355
 3966W        W20100   8.717   3.074  12.405 -0.2321 -0.0050 -0.3137
 3967W        W20101  15.029   4.586   1.415 -0.0214 -0.0859 -0.4504
 3968W        W20102   8.020   6.620  14.772  0.0356  0.3622 -0.0631
 3969W        W20103  14.926  15.243  14.831  0.0753 -0.3770 -0.2701
 3970W        W20104  17.846   2.541  11.345  0.1009 -0.0552  0.2845
 3971W        W20105  16.051  13.219   3.692 -0.0836 -0.0319  0.0323
 3972W        W20106   0.084   7.311   1.368 -0.0274  0.0635  0.1915
 3973W        W20107  16.449   4.565  13.262  0.0879 -0.3453  0.0301
 3974W        W20108   8.401  12.581   2.775  0.0777 -0.0390  0.0862
 3975W        W20109   9.735  15.396   9.565 -0.3444 -0.0424  0.0947
 3976W        W20110  18.368   1.887  14.110 -0.0402  0.3450  0.0724
 3977W        W20111   3.825   7.209   0.541 -0.0015 -0.2830  0.2716
 3978W        W20112   9.539   1.683  13.707 -0.2437 -0.0147  0.1932
 3979W        W20113   8.822  15.686  15.003  0.1642 -0.3214 -0.0744
 3980W        W20114  17.641  10.726   0.351 -0.1275  0.2004 -0.0045
 3981W        W20115  17.008   9.675  11.661 -0.0237 -0.3237  0.4206
 3982W        W20116   2.812  13.644  10.795  0.0552 -0.1068 -0.0196
 3983W        W20117   6.322   4.356   1.338 -0.0861  0.1824  0.0865
 3984W        W20118   3.798  18.495   2.210  0.3090 -0.1979 -0.1694
 3985W        W20119   3.947   5.121  14.443 -0.0934 -0.2211 -0.2163
 3986W        W20120   8.233   7.588   2.479  0.0805 -0.2145  0.1014
 3987W        W20121  15.889  17.022  13.793 -0.0476 -0.2924  0.0312
 3988W        W20122  17.740   2.298  13.265 -0.3482  0.3234  0.1559
 3989W        W20123   6.627   4.613  10.819 -0.1428  0.0205  0.1327
 3990W        W20124  17.479   3.252   1.731  0.1390 -0.4212  0.3504
 3991W        W20125  17.761   6.935   3.059 -0.2704 -0.0704  0.1680
 3992W        W20126  18.908   9.763   9.862 -0.0669  0.1968  0.0962
 3993W        W20127   7.234   5.523   2.649  0.1389  0.3882  0.1467
 3994W        W20128  15.468  12.481  13.225 -0.2673 -0.2212 -0.2847
 3995W        W20129   0.027  11.625   2.475  0.1234 -0.1175 -0.0224
 3996W        W20130   4.473   3.147  11.611 -0.0971  0.0361 -0.0812
 3997W        W20131  18.816   9.108  13.058 -0.1634  0.0280 -0.3175
 3998W        W20132   8.780   0.260  13.876 -0.3213 -0.1713  0.1581
 3999W        W20133   7.654   0.010   4.424  0.1952  0.1243 -0.0194
 4000W        W20134  12.559   4.402  10.336 -0.0976 -0.0221  0.2557
 4001W        W20135  13.991  18.859  14.419 -0.0023  0.0283 -0.1487
 4002W        W20136  17.438   2.254   1.856  0.4436  0.0379  0.1511
 4003W        W20137   2.885   3.211  14.581  0.1860 -0.0548 -0.0104
 4004W        W20138  13.574  15.722  11.335 -0.0971 -0.1112  0.1560
 4005W        W20139  11.348  14.500  11.412  0.0229  0.1324 -0.2425
 4006W        W20140  13.904   5.633   2.687  0.1377 -0.2438  0.1870
 4007W        W20141   1.326   3.748  11.866  0.0049  0.1185 -0.1183
 4008W        W20142  10.971   9.894   3.854  0.2927 -0.2132 -0.1871
 4009W        W20143   1.023   7.156  13.689 -0.2291  0.0216  0.0425
 4010W        W20144  18.061   6.462  13.330 -0.0680  0.2719  0.1331
 4011W        W20145  14.459   8.116   4.865  0.0243  0.1101  0.1314
 4012W        W20146   6.652  16.803   1.009  0.0133 -0.1525  0.0173
 4013W        W20147   0.885  18.152   1.517  0.0673  0.0645 -0.4306
 4014W        W20148   8.274  10.930   1.620 -0.0630  0.1121 -0.1446
 4015W        W20149  15.740   5.419  13.022  0.0700 -0.0635  0.2654
 4016W        W20150  18.137  14.178   1.587 -0.0251  0.1586  0.2676
 4017W        W20151   4.798  10.149  13.658  0.2665  0.1844  0.1595
 4018W        W20152   1.472  15.393   2.459  0.0384  0.0463  0.1514
 4019W        W20153  14.870   5.865   9.713  0.1174 -0.2039  0.1399
 4020W        W20154  13.031   1.696   4.594 -0.2375  0.2838  0.1358
 4021W        W20155  10.640   2.479   3.864  0.1890 -0.4094  0.0330
 4022W        W20156  10.189   8.567  14.485 -0.1200  0.1699  0.0859
 4023W        W20157  18.413   4.420  11.908 -0.0302 -0.0499 -0.0244
 4024W        W20158  16.435   7.891   5.014  0.3422 -0.2237  0.1916
 4025W        W20159   9.455  15.014  10.454  0.3273 -0.2924  0.1200
 4026W        W20160  11.550  17.251   4.630  0.1739  0.3689  0.1205
 4027W        W20161  11.378  10.312   3.069 -0.1409  0.1575 -0.0565
 4028W        W20162  15.413   2.035   2.854  0.2253  0.2409 -0.0120
 4029W        W20163   0.218   1.437   1.950 -0.1747  0.0240 -0.0117
 4030W        W20164   9.031   6.968  13.003 -0.0590 -0.0897  0.2817
 4031W        W20165  13.900  10.115  11.976 -0.2216  0.4771 -0.1647
 4032W        W20166   0.474   0.322   1.529 -0.1851  0.3551 -0.2917
 4033W        W20167   3.879  15.914  14.244  0.1345  0.0422  0.1028
 4034W        W20168  13.732  16.462   5.539  0.1132  0.1423 -0.1033
 4035W        W20169   8.668  14.878   1.167 -0.1730 -0.2638  0.2707
 4036W        W20170   7.534   4.928   9.796 -0.0737  0.2935 -0.2242
 4037W        W20171  12.767   7.782   0.911  0.1417  0.0745 -0.0348
 4038W        W20172  10.784  18.049  13.674 -0.4045 -0.0246  0.0868
 4039W        W20173  14.834   7.375  14.902 -0.0715 -0.0184  0.1298
 4040W        W20174  13.687  17.325  10.893 -0.2723  0.1022 -0.2529
 4041W        W20175   5.406   5.796  12.417  0.3023  0.1023 -0.3505
 4042W        W20176  14.679   4.319   4.289 -0.0343 -0.1542 -0.3280
 4043W        W20177   1.137   1.642  14.740  0.1630 -0.1480  0.0618
 4044W        W20178   6.589   4.711  12.014  0.0302 -0.2505 -0.1808
 4045W        W20179  14.543  11.855   5.341 -0.1310  0.0388  0.1233
 4046W        W20180   7.665  17.304  11.525  0.1142  0.1088 -0.1265
 4047W        W20181   8.046   8.086   2.411 -0.0024  0.0634 -0.0707
 4048W        W20182   1.111   6.100   4.757  0.0675  0.2062  0.2572
 4049W        W20183   0.298   3.068  13.489  0.4093  0.2785  0.0611
 4050W        W20184   3.307  14.069   2.938 -0.0371  0.2466 -0.0466
 4051W        W20185  15.332  10.447   1.760 -0.3524  0.8246 -0.4860
 4052W        W20186   9.179  17.374   4.112  0.1131  0.0040  0.1505
 4053W        W20187  14.925   5.946  12.215 -0.1430  0.0837  0.2017
 4054W        W20188   7.505   2.290   2.859  0.0049  0.1238 -0.3421
 4055W        W20189  12.450  12.158  12.805  0.2228 -0.2947  0.1285
 4056W        W20190   1.336  18.741   5.521 -0.0351  0.0929 -0.0727
 4057W        W20191  18.482   8.117  11.100  0.1212  0.0622  0.2065
 4058W        W20192  11.963   2.732   2.759 -0.1781  0.0183 -0.2299
 4059W        W20193  11.462   6.672  12.147  0.5541 -0.0534 -0.2681
 4060W        W20194   0.004   2.035   3.176  0.0569 -0.0673  0.1440
 4061W        W20195   7.281   5.464   4.357  0.1951  0.1778 -0.0448
 4062W        W20196   1.506   0.591   2.688 -0.0289 -0.1534 -0.0866
 4063W        W20197  11.203  15.726   1.424  0.2375 -0.3917 -0.2314
 4064W        W20198   1.913   5.223   1.905  0.1792 -0.3867  0.2517
 4065W        W20199  17.048   7.580   2.476  0.0219 -0.4466  0.1044
 4066W        W20200   4.313   9.240   2.316  0.2067 -0.1520 -0.0787
 4067W        W20201  18.703  15.407   0.178  0.0627 -0.0300 -0.1259
 4068W        W20202   8.771   6.374  12.365 -0.0413 -0.1536 -0.2136
 4069W        W20203  12.800   5.837   3.114  0.0552 -0.2218 -0.2823
 4070W        W20204  16.170  15.891  12.760 -0.1887  0.1560  0.0883
 4071W        W20205   3.693   4.186  13.535  0.1418  0.2910 -0.2795
 4072W        W20206  11.585  11.139  14.408  0.1080  0.1334  0.2253
 4073W        W20207   1.006   6.266   1.377  0.0528  0.0963 -0.1000
 4074W        W20208   0.594   7.615   3.196  0.5536  0.2042  0.2106
 4075W        W20209   2.007  13.044   3.297  0.2554  0.1805  0.0467
 4076W        W20210   4.679  10.832   9.664  0.3988 -0.2902 -0.3608
 4077W        W20211   3.212  11.635   3.050 -0.1586  0.0388  0.1254
 4078W        W20212  17.485  16.535   2.402 -0.3145  0.2473  0.2679
 4079W        W20213   7.917   8.981   4.214 -0.0167 -0.3354  0.3441
 4080W        W20214  11.591   0.610   0.438  0.1692 -0.1880 -0.1113
 4081W        W20215  13.913   1.568  11.001 -0.0964 -0.2652 -0.0466
 4082W        W20216   0.556   6.855   3.732  0.1984  0.2210  0.3557
 4083W        W20217  19.226  11.252   2.137  0.0842  0.1845  0.0538
 4084W        W20218   9.482   6.334   1.702 -0.0320 -0.0452  0.0566
 4085W        W20219  12.038  16.799   5.215 -0.0250 -0.1925  0.0698
 4086W        W20220   1.986   0.565   4.152 -0.2543 -0.2909 -0.0852
 4087W        W20221   3.425   7.404  11.126  0.0724  0.3225 -0.1190
 4088W        W20222   7.529  12.302   2.411 -0.0313  0.1676  0.2797
 4089W        W20223   3.826   2.598   0.942  0.0048 -0.2157  0.0664
 4090W        W20224   1.629   6.658   4.723 -0.0832 -0.2629 -0.1727
 4091W        W20225  13.537  17.062  14.568  0.3336  0.0459  0.0915
 4092W        W20226  12.438  10.530   2.664 -0.0571  0.4101  0.0781
 4093W        W20227  11.387  18.691  13.926 -0.3441 -0.1296  0.0370
 4094W        W20228  14.500   7.834  10.536 -0.3997  0.2666 -0.2411
 4095W        W20229   5.771  11.384  10.663 -0.2182  0.2218 -0.0079
 4096W        W20230   7.434   2.877   1.548 -0.0208  0.0278  0.1817
 4097W        W20231   9.192  17.527   3.510 -0.1417 -0.0913  0.0822
 4098W        W20232  18.383   9.519  12.899  0.0974  0.2701  0.1976
 4099W        W20233  18.343  15.216  14.797  0.2697  0.2731  0.1738
 4100W        W20234  13.712  12.604   0.607 -0.2780 -0.1629 -0.4630
 4101W        W20235   3.144   6.622   4.487  0.0117 -0.0808  0.0445
 4102W        W20236  14.700  14.786  14.008 -0.0442 -0.0016  0.1174
 4103W        W20237  15.360   1.830  13.236  0.0970 -0.0752 -0.0786
 4104W        W20238   1.738  18.227   4.546 -0.0319  0.0249 -0.2178
 4105W        W20239  10.160  15.101  13.867 -0.1689 -0.0762 -0.2273
 4106W        W20240  18.328  12.899  12.727 -0.1749  0.0671 -0.1991
 4107W        W20241   2.602   6.757   0.245  0.1948 -0.1052 -0.0475
 4108W        W20242  13.151   2.829   1.168  0.2009 -0.1714  0.1307
 4109W        W20243   0.845  10.281   9.596  0.1045  0.0394  0.0824
 4110W        W20244   5.102   5.718   2.511  0.1758  0.0578 -0.2684
 4111W        W20245   8.018  18.463  11.333  0.1830  0.2739 -0.1477
 4112W        W20246   6.337  15.159   0.485  0.0696  0.0186 -0.3020
 4113W        W20247  18.404  11.329   4.537  0.2978  0.2694 -0.0688
 4114W        W20248   9.032  16.955   3.779 -0.1928  0.1265 -0.2370
 4115W        W20249  18.302  10.973   0.881  0.0551  0.0003 -0.1105
 4116W        W20250  13.008   9.421   1.601 -0.1262 -0.2165  0.1506
 4117W        W20251  15.701   4.325   3.503 -0.1026  0.2254 -0.2919
 4118W        W20252  10.649   1.203   0.658  0.0228 -0.0769 -0.1175
 4119W        W20253  11.080   4.676   4.168 -0.1850  0.1798 -0.0495
 4120W        W20254  10.570  18.929   9.982  0.0712 -0.0261  0.1807
 4121W        W20255  17.826   7.019   2.273  0.0821 -0.2063 -0.1492
 4122W        W20256   5.983  18.614   4.470 -0.1153  0.2947 -0.1914
 4123W        W20257  12.647   3.474   0.584 -0.3237  0.0337 -0.1467
 4124W        W20258  14.742   3.268   5.376 -0.5097  0.0031  0.1112
 4125W        W20259   1.940   5.148   4.190  0.2106 -0.1150 -0.0991
 4126W        W20260  13.830   0.624   4.563  0.0567 -0.2191 -0.0952
 4127W        W20261   0.070  18.240   5.097 -0.1198  0.1587  0.0011
 4128W        W20262  15.489   2.166   3.556 -0.0689 -0.0625  0.3660
 4129W        W20263   5.243  12.842   1.738  0.1363  0.1067  0.0641
 4130W        W20264   4.012  11.530   3.527  0.2558  0.2366 -0.1660
 4131W        W20265   2.985  10.497  11.410 -0.1840  0.1692 -0.0311
 4132W        W20266   6.471  12.448  13.387  0.1180  0.0609  0.3465
 4133W        W20267  13.448   5.063   0.606  0.3323 -0.2464  0.1599
 4134W        W20268  16.514   2.162  10.738 -0.3361  0.2983 -0.0368
 4135W        W20269   3.359  15.566  10.786  0.3062 -0.1491  0.1123
 4136W        W20270  15.915  18.158  10.399  0.0967 -0.0477 -0.1435
 4137W        W20271   5.379   0.445  11.218  0.1054 -0.2459  0.2143
 4138W        W20272   3.944  16.455   0.429  0.0205  0.1494 -0.2514
 4139W        W20273   2.122   0.954   0.267  0.0084 -0.3200 -0.0905
 4140W        W20274  13.595  10.664   4.194  0.1040  0.1778  0.1111
 4141W        W20275   3.845   7.176   1.533  0.0008 -0.0734  0.0149
 4142W        W20276  13.477   0.686   5.541 -0.5065  0.2951 -0.0051
 4143W        W20277  12.112   8.244  10.459 -0.1442  0.1024 -0.0827
 4144W        W20278   9.562   1.793   5.018  0.1476 -0.2352  0.0767
 4145W        W20279  18.426   2.380   3.729 -0.0941  0.0163 -0.0612
 4146W        W20280   8.731   1.759   2.662 -0.2780 -0.0332 -0.0966
 4147W        W20281   5.820  19.175   0.750 -0.3268  0.4108 -0.2212
 4148W        W20282  18.679  14.470   4.574 -0.2165 -0.0946  0.0380
 4149W        W20283  19.166   0.927   4.512  0.0225  0.0617 -0.0775
 4150W        W20284   6.703   6.112  11.787  0.1405  0.1730 -0.0284
 4151W        W20285   6.663  10.981  12.881  0.1027  0.1075 -0.3437
 4152W        W20286   2.685   3.933  13.482 -0.0918 -0.0882 -0.1827
 4153W        W20287  10.833  11.708  13.971 -0.1961 -0.2245  0.0751
 4154W        W20288  17.415   7.008   4.621 -0.1030  0.0572  0.4126
 4155W        W20289  16.779   5.555  11.714  0.0131  0.1534  0.2520
 4156W        W20290  17.090   0.381  11.743  0.2982 -0.0805 -0.0244
 4157W        W20291  16.119   3.580   5.143 -0.0450 -0.0077 -0.2009
 4158W        W20292  13.813  18.310   3.267  0.0790 -0.0815 -0.1496
 4159W        W20293   3.296   3.633   2.952  0.1956  0.0174  0.1071
 4160W        W20294  13.441   4.054  15.005 -0.0507 -0.1115 -0.0276
 4161W        W20295  11.007  11.913   4.300  0.0935  0.4531  0.1090
 4162W        W20296   0.315  15.743   0.889 -0.0442  0.1989 -0.2311
 4163W        W20297  16.822   8.327  14.639 -0.0816 -0.1580 -0.2197
 4164W        W20298   0.680   5.274   1.650 -0.1076  0.0285  0.0043
 4165W        W20299  14.776   5.921   5.545  0.3518 -0.0228  0.3940
 4166W        W20300  16.690   5.175   4.504  0.4698  0.0093 -0.0834
 4167W        W20301   9.252   6.535  13.191  0.3593 -0.1549  0.2318
 4168W        W20302  16.509  18.652   1.662 -0.1654  0.0732  0.1581
 4169W        W20303   9.001  15.902   4.325  0.0518 -0.0618  0.1387
 4170W        W20304   9.215   4.969  11.157  0.0779  0.3015 -0.0174
 4171W        W20305  12.504   1.165  14.088 -0.0211  0.0611 -0.6413
 4172W        W20306   5.544   8.861   2.790  0.1365  0.1008 -0.0412
 4173W        W20307  18.050   2.121  11.449 -0.0619 -0.2232 -0.0369
 4174W        W20308  17.742   4.511  11.048  0.3947 -0.1563  0.0606
 4175W        W20309  11.878   5.991   4.221 -0.1725 -0.0064  0.1343
 4176W        W20310   3.001   7.794   4.071 -0.0840 -0.1022 -0.1735
 4177W        W20311   2.093   9.433  13.910  0.0929  0.0103 -0.2984
 4178W        W20312   9.671   7.230   0.258  0.4877  0.0563  0.0411
 4179W        W20313  15.814   5.713  13.450  0.0317 -0.2939 -0.0251
 4180W        W20314   4.782  14.874   3.567 -0.2406  0.1529  0.0006
 4181W        W20315  15.761   8.143   2.767  0.0245  0.0520  0.0413
 4182W        W20316  13.854  18.532   4.779 -0.0204  0.2182  0.2842
 4183W        W20317   0.889   9.305  13.766 -0.0644 -0.2597  0.4274
 4184W        W20318  11.423   9.245  12.167 -0.0591  0.1315  0.2399
 4185W        W20319   9.286  15.890  13.824  0.0634 -0.0885 -0.0291
 4186W        W20320  18.257  18.593   0.694  0.1970  0.2621 -0.0577
 4187W        W20321   6.237   2.405  12.459 -0.0895 -0.2303 -0.1056
 4188W        W20322  10.937   4.730  14.881  0.1403  0.0719  0.2950
 4189W        W20323  17.028   9.997  11.266  0.2215 -0.0911 -0.3521
 4190W        W20324  14.416   4.706  12.297  0.3073  0.4280  0.2112
 4191W        W20325   0.285  15.520   1.360  0.0596  0.1952 -0.1254
 4192W        W20326  17.138   3.031  13.209  0.0847  0.0787  0.0640
 4193W        W20327  17.681  12.288  12.850  0.2464 -0.0889  0.1039
 4194W        W20328  14.536  18.401  10.397  0.1345 -0.1541 -0.0488
 4195W        W20329  13.542  12.903   0.247 -0.4087  0.0932 -0.0401
 4196W        W20330  17.123   0.796   1.800 -0.1423  0.0514  0.0667
 4197W        W20331   9.584  10.256  14.054  0.0141  0.2194 -0.0700
 4198W        W20332  17.996   9.226   2.584 -0.0753 -0.0363 -0.0024
 4199W        W20333  11.845  18.241  11.290 -0.2671 -0.1465 -0.2322
 4200W        W20334   1.338  15.426   4.058  0.0008 -0.0329 -0.0014
 4201W        W20335   8.444  13.526   5.678 -0.0467 -0.0378 -0.0241
 4202W        W20336   4.519  18.711  12.883  0.2876 -0.0310 -0.0251
 4203W        W20337  11.823   6.404   2.296  0.0982  0.2949  0.1091
 4204W        W20338   4.068  12.859   0.141  0.0005  0.2683  0.0282
 4205W        W20339  18.813   7.261   1.143  0.0061 -0.1495  0.0190
 4206W        W20340   5.237   7.582   1.651  0.0103 -0.2157 -0.0334
 4207W        W20341   7.775  18.762   4.346 -0.2412  0.3219 -0.0799
 4208W        W20342   8.151  17.806   1.476  0.1070 -0.1283 -0.1704
 4209W        W20343   1.566  18.618   0.520 -0.1612 -0.1898  0.0043
 4210W        W20344  14.608  11.473  13.705  0.2719 -0.3909 -0.3071
 4211W        W20345   0.887   6.603  11.475  0.1221  0.1480  0.2751
 4212W        W20346   0.296  15.207   1.851  0.0166 -0.0035  0.1393
 4213W        W20347  11.100   6.285  14.672  0.2493  0.1340 -0.2294
 4214W        W20348   1.160  18.250  12.799  0.2774  0.1570 -0.0891
 4215W        W20349  10.287   2.024   3.585  0.0571 -0.0105  0.1585
 4216W        W20350  15.732   3.956   3.130 -0.2247 -0.1442 -0.0132
 4217W        W20351   5.182   4.573   3.875 -0.0948 -0.0899  0.1749
 4218W        W20352   5.945   0.391  10.300 -0.3022  0.3506 -0.4503
 4219W        W20353  17.543   2.761   5.510 -0.2874  0.0551  0.0762
 4220W        W20354   6.807  10.135   3.269 -0.2206  0.0409 -0.1439
 4221W        W20355  17.869   0.348   4.563 -0.2516 -0.0454  0.0116
 4222W        W20356   8.475  14.473  11.238  0.1540 -0.3258 -0.3243
 4223W        W20357   1.767   2.574  13.948 -0.2403  0.4174  0.3561
 4224W        W20358   2.532  19.095  12.071  0.0044 -0.0650 -0.0935
 4225W        W20359   0.519  18.356   0.623  0.0352 -0.2665  0.0693
 4226W        W20360  14.624   9.243   2.723  0.0288 -0.0583 -0.3398
 4227W        W20361   9.566   6.635   0.837  0.0338  0.0308  0.1349
 4228W        W20362  18.063  18.945  12.276  0.2643 -0.0841 -0.1947
 4229W        W20363  17.123  15.457   5.166  0.1321 -0.2618 -0.1870
 4230W        W20364   9.638  14.716   4.265  0.0519 -0.2414  0.0199
 4231W        W20365  18.927   0.407  13.481  0.0470 -0.0332 -0.0607
 4232W        W20366   6.413  11.929  10.554  0.1093  0.3509 -0.2355
 4233W        W20367  15.875  14.924   3.474  0.0372  0.2157 -0.3197
 4234W        W20368   0.163   9.729   1.384  0.0861 -0.0873  0.2374
 4235W        W20369  17.541   7.181  10.811  0.1325 -0.3658 -0.0934
 4236W        W20370   3.706   9.316  10.982  0.1346 -0.0293  0.0361
 4237W        W20371  11.963   0.959   0.110 -0.0141 -0.1336  0.0951
 4238W        W20372   7.718  14.741   1.352 -0.1815 -0.2570  0.0139
 4239W        W20373   2.291  12.930   1.425 -0.3522 -0.3173 -0.0749
 4240W        W20374   9.053  13.252   2.127 -0.2246  0.2702 -0.1391
 4241W        W20375  14.918   4.805  12.122  0.1977 -0.1615 -0.2345
 4242W        W20376   8.316   4.945   0.377 -0.2894 -0.0916  0.2031
 4243W        W20377   7.024   1.957  11.192  0.0426 -0.0520  0.4414
 4244W        W20378  17.163  11.090   1.522 -0.2253  0.0867  0.5107
 4245W        W20379   2.899  15.566   2.545 -0.0021  0.0595 -0.0684
 4246W        W20380   8.278   4.605  13.369  0.4447 -0.0256 -0.0130
 4247W        W20381  18.299  13.777  13.736  0.1243 -0.0212  0.2219
 4248W        W20382  17.486  11.207   1.115  0.1305  0.1217  0.1893
 4249W        W20383   7.496   5.594  12.235  0.4045  0.1597 -0.3048
 4250W        W20384   9.445   8.468   3.379 -0.1949  0.0821 -0.3046
 4251W        W20385  17.674   1.099  10.891 -0.1346 -0.1207  0.1631
 4252W        W20386   5.583   2.749  12.228 -0.0539  0.2308 -0.4558
 4253W        W20387   1.359  15.914   3.503 -0.1033  0.1978  0.0465
 4254W        W20388  11.135   3.739  12.311  0.1125  0.0246 -0.0279
 4255W        W20389  14.658   6.625   0.256  0.0587 -0.0148  0.0596
 4256W        W20390   8.348  17.484  10.146 -0.1620  0.0209  0.1650
 4257W        W20391   5.543  13.007   5.653 -0.1828  0.0016 -0.1037
 4258W        W20392  15.493   7.592   9.733 -0.1988  0.0316 -0.1450
 4259W        W20393   0.625   0.915  15.034  0.1685 -0.0457 -0.2647
 4260W        W20394   5.801  18.437  13.203 -0.1759 -0.0290 -0.0083
 4261W        W20395  10.460  15.223   3.515  0.1838 -0.1579  0.0128
 4262W        W20396  18.064   7.398  14.410 -0.1198  0.1032  0.2742
 4263W        W20397  11.682   8.947  10.432 -0.1529  0.0027  0.3242
 4264W        W20398  16.245   7.205  14.846  0.2335  0.1798 -0.3847
 4265W        W20399  16.698   3.801  13.437 -0.2361  0.3148  0.2055
 4266W        W20400  15.246   6.059   5.374 -0.3645 -0.0259 -0.0889
 4267W        W20401   6.550  17.809   3.272  0.1797  0.2665 -0.0929
 4268W        W20402  13.991   0.649   0.129 -0.2886  0.1765  0.1513
 4269W        W20403   3.566   0.532  14.975 -0.0202 -0.0886 -0.1384
 4270W        W20404   9.290   1.548   3.808  0.0318  0.2865  0.0675
 4271W        W20405  14.629  14.227  13.218  0.4261 -0.3507  0.3912
 4272W        W20406  18.074  14.374   0.681 -0.1798 -0.1240 -0.0895
 4273W        W20407  14.992   3.731   2.293 -0.1883 -0.1742 -0.1596
 4274W        W20408   7.333   6.608  12.268  0.2455  0.0752  0.1097
 4275W        W20409   5.758   3.499   9.969  0.2794  0.1077  0.0536
 4276W        W20410  10.464   3.248  11.694 -0.1334 -0.3800 -0.0922
 4277W        W20411  16.711  12.985   4.861 -0.1540 -0.2289 -0.1299
 4278W        W20412  13.668  14.805   5.424  0.4165 -0.3049  0.1742
 4279W        W20413   3.720   7.047   4.859 -0.3552 -0.3244 -0.1131
 4280W        W20414  17.188   6.877  13.720  0.2773  0.0778  0.2337
 4281W        W20415  18.376  14.133   0.399  0.3999 -0.3251  0.0612
 4282W        W20416  15.306  12.155   2.449  0.0157  0.0784  0.1893
 4283W        W20417   9.283  17.933  11.775 -0.1155 -0.0159  0.2009
 4284W        W20418   0.820  11.148   5.234  0.0502  0.0860  0.1993
 4285W        W20419   3.904  12.856   3.428 -0.0744 -0.1656  0.1054
 4286W        W20420   6.607   1.081  14.865 -0.0389 -0.1647  0.2583
 4287W        W20421   2.544   4.609   4.095  0.1620  0.0369 -0.4855
 4288W        W20422  11.414   3.927  11.924  0.0492 -0.0763  0.2151
 4289W        W20423  14.972  16.608  12.004  0.0640  0.1266 -0.0040
 4290W        W20424  15.175   5.491  12.223 -0.1243  0.0966  0.4044
 4291W        W20425  13.363   9.081  11.724  0.1523 -0.0845  0.0899
 4292W        W20426   7.572  14.136  14.531 -0.3757 -0.1708  0.2423
 4293W        W20427   0.997  10.918   4.202 -0.2825  0.2418  0.1382
 4294W        W20428  12.005  14.752   2.689 -0.1894  0.0095  0.0707
 4295W        W20429  12.151  17.302  13.174  0.0472 -0.0828 -0.0204
 4296W        W20430  15.995   1.986   2.923 -0.1543  0.1233 -0.3851
 4297W        W20431  10.998   5.564   3.638  0.0772  0.2479 -0.2159
 4298W        W20432  15.502  15.433  14.117  0.0592 -0.0128  0.3846
 4299W        W20433  15.138   3.132   9.106  0.2711 -0.0479 -0.3635
 4300W        W20434  15.022  16.212   1.734  0.1470 -0.0545  0.2123
 4301W        W20435  15.791  11.811  13.234  0.3598  0.1233 -0.3718
 4302W        W20436  11.121   3.780   3.668  0.1757 -0.0334  0.2193
 4303W        W20437  17.200  16.199   0.120  0.1324 -0.3044  0.0512
 4304W        W20438   7.899   1.204   4.019 -0.1289 -0.3683  0.2021
 4305W        W20439   9.708   2.723  13.063  0.2233  0.1402  0.1368
 4306W        W20440  17.556   9.980   4.760 -0.1641 -0.1009  0.1837
 4307W        W20441   5.026  10.621   2.481 -0.1198 -0.3252  0.1194
 4308W        W20442   9.302   1.068  10.931 -0.3420  0.1002  0.2396
 4309W        W20443   8.816  18.812  14.510 -0.0155 -0.0057  0.0465
 4310W        W20444   1.053   1.557  10.588 -0.3126 -0.1441 -0.2652
 4311W        W20445   9.563   4.592  10.893  0.0348 -0.2120  0.1402
 4312W        W20446   2.729  13.677  11.326  0.0242  0.0487 -0.0259
 4313W        W20447  18.132  15.244   0.827 -0.4137 -0.2191 -0.0128
 4314W        W20448  15.506  14.755  10.145 -0.0124  0.1401  0.0383
 4315W        W20449   3.882  16.849  12.913  0.1378 -0.0128 -0.0537
 4316W        W20450   5.166  17.091  10.994  0.2229  0.2480 -0.0575
 4317W        W20451  11.443   7.573   0.387  0.1362  0.1197  0.0528
 4318W        W20452   5.739   1.933  14.152 -0.3421 -0.3460  0.0094
 4319W        W20453   0.995  14.430   2.758 -0.1431  0.3519  0.0641
 4320W        W20454  15.895  10.590  12.848  0.1256  0.3235  0.0978
 4321W        W20455   6.421   2.464   2.214  0.0011 -0.1102  0.2650
 4322W        W20456  17.709  18.797   4.830 -0.1885  0.0611  0.0700
 4323W        W20457  13.967   1.074  10.850 -0.2805 -0.2204 -0.0815
 4324W        W20458   5.308  14.674   1.574 -0.0181  0.4372 -0.3023
 4325W        W20459   3.023  17.717  12.036  0.2011 -0.2511  0.0649
 4326W        W20460  12.018   5.606   1.026 -0.0180  0.1928  0.0097
 4327W        W20461  10.620   3.846   1.409  0.0392 -0.2654 -0.0847
 4328W        W20462  15.349   0.959  11.049  0.1915 -0.1707  0.2283
 4329W        W20463  16.221  15.006  13.717  0.1333 -0.3614  0.1500
 4330W        W20464  17.869  11.542  12.222  0.2842 -0.0786  0.0917
 4331W        W20465   4.021  11.910  14.952  0.0343  0.0372  0.2087
 4332W        W20466  11.137   2.794   2.126 -0.1583  0.2067  0.3478
 4333W        W20467   8.084  15.066  12.602  0.2093  0.0738  0.0443
 4334W        W20468   6.673   9.508   1.452  0.2919  0.2798 -0.1434
 4335W        W20469   0.742  15.317   1.475 -0.1519 -0.1188 -0.1554
 4336W        W20470  17.118  17.439  14.446  0.2616 -0.1198  0.1738
 4337W        W20471  11.530   9.776   1.195 -0.1670 -0.0607 -0.1058
 4338W        W20472  10.541   0.104  12.751  0.0908 -0.3998  0.1587
 4339W        W20473  11.501  18.478  10.415  0.4370 -0.2091  0.1958
 4340W        W20474  16.879   8.327  11.902  0.2764 -0.3927  0.1527
 4341W        W20475  18.508   3.114   5.705  0.1648 -0.2424 -0.0536
 4342W        W20476   9.030  14.769   4.459  0.1453 -0.0003 -0.0504
 4343W        W20477  19.094  19.198   0.109  0.1046  0.0607  0.0945
 4344W        W20478   0.819  15.692  12.830  0.0476  0.0163 -0.0796
 4345W        W20479   2.423  14.843  10.886  0.3020 -0.3407 -0.2716
 4346W        W20480   1.913  14.402  11.503  0.1390 -0.1302 -0.0731
 4347W        W20481  13.138  11.379   9.670  0.0876  0.1405  0.0293
 4348W        W20482  11.589  11.845   3.372  0.0371 -0.4656  0.3234
 4349W        W20483   0.921  12.465  13.434 -0.0856  0.0757 -0.2208
 4350W        W20484   7.602  16.422  14.936  0.1864 -0.0448  0.0132
 4351W        W20485  12.397   8.299   2.794 -0.0321  0.2451 -0.2610
 4352W        W20486   8.152   7.853  10.473  0.0746 -0.2125 -0.2923
 4353W        W20487  10.967  14.702   6.257  0.1685  0.2266  0.1841
 4354W        W20488  17.676   1.924  10.414  0.0072  0.0538  0.0508
 4355W        W20489   7.708   5.104   4.871  0.1656 -0.0543  0.0914
 4356W        W20490   4.663  13.930   3.817 -0.1839  0.3020  0.1662
 4357W        W20491   4.969  18.522   4.245  0.1158 -0.0690  0.1410
 4358W        W20492   5.128   1.339   0.007 -0.0264  0.0624  0.0363
 4359W        W20493   6.249  12.947  13.661  0.2033 -0.2046 -0.1305
 4360W        W20494  10.461   7.654   1.843  0.3951 -0.0417  0.3585
 4361W        W20495   6.281   8.695  12.677 -0.1046  0.0358 -0.0798
 4362W        W20496  13.549   2.381   4.454 -0.2738 -0.1427  0.0028
 4363W        W20497  18.378   6.835  12.738 -0.0236  0.3157 -0.0016
 4364W        W20498   6.607  15.408   0.174  0.0739  0.0059  0.0705
 4365W        W20499   5.577  16.520   1.764  0.0758 -0.0953  0.1482
 4366W        W20500   6.962  18.787  10.833  0.3250  0.4621  0.0605
 4367W        W20501   7.461   4.027   4.402  0.0456  0.0277 -0.0866
 4368W        W20502   5.082  15.857  14.754 -0.1880  0.3636  0.1352
 4369W        W20503  11.060   3.356   0.893 -0.0972  0.2935  0.2162
 4370W        W20504   1.451   1.659  13.258  0.1697  0.1050 -0.0277
 4371W        W20505   8.277   5.661   2.434 -0.0780 -0.2958  0.0901
 4372W        W20506   8.381  16.682  14.747  0.0257 -0.0013 -0.2357
 4373W        W20507   2.342  10.988   3.764  0.0126 -0.0475  0.0218
 4374W        W20508   0.191   1.494  10.639 -0.1492 -0.4505  0.0122
 4375W        W20509   4.894   5.822  11.779  0.2579  0.3953 -0.1884
 4376W        W20510   1.810   7.456   2.028  0.3266 -0.0080  0.0770
 4377W        W20511  16.198  18.687  13.839  0.0568 -0.1815 -0.1075
 4378W        W20512  15.904   5.630  12.608  0.2059  0.0567  0.0220
 4379W        W20513  19.063   8.383   2.303  0.1193 -0.2585 -0.1148
 4380W        W20514   8.388  17.668  11.736 -0.0608 -0.2437 -0.0248
 4381W        W20515   5.505  15.994   1.651 -0.3669  0.0096 -0.0949
 4382W        W20516  13.882  11.802   1.921  0.0490  0.0218 -0.1684
 4383W        W20517   5.986  13.374  12.353  0.2329 -0.0159  0.0793
 4384W        W20518  19.221  18.050   1.811  0.0783  0.2264 -0.2146
 4385W        W20519   7.419  18.327  10.363  0.1516  0.3795  0.0014
 4386W        W20520   8.893   7.292  12.063 -0.1743 -0.2159  0.0996
 4387W        W20521   1.196  16.010   0.086  0.0516 -0.0997 -0.2964
 4388W        W20522   3.252  12.056   1.269  0.1915 -0.1052 -0.0109
 4389W        W20523  11.795   6.708   4.043 -0.0290 -0.1686 -0.1507
 4390W        W20524   5.861   6.204  13.919  0.0327 -0.0108 -0.0152
 4391W        W20525   1.181   3.444  10.041 -0.0824  0.2890 -0.3684
 4392W        W20526  17.925   2.088   1.505 -0.1068 -0.1057 -0.0343
 4393W        W20527  18.501   7.232  14.297  0.1788  0.2517 -0.2521
 4394W        W20528  14.883   2.090  13.275  0.0165 -0.1360 -0.3302
 4395W        W20529   2.755  14.839   1.298  0.2289  0.1674  0.2898
 4396W        W20530   8.058   6.500   2.423 -0.0015  0.1422 -0.1825
 4397W        W20531   6.097   3.362   4.707 -0.2518 -0.0776 -0.6061
 4398W        W20532   8.061   2.038   3.790  0.0121  0.2058  0.3313
 4399W        W20533  13.416   2.482   3.966  0.1466 -0.1718  0.2969
 4400W        W20534  16.738   8.082  13.771 -0.1229 -0.3371  0.0071
 4401W        W20535  15.327   2.868  12.965  0.0566 -0.0466  0.3789
 4402W        W20536   1.935   2.703  11.965 -0.0959 -0.0160  0.0124
 4403W        W20537  12.506  12.534   0.569  0.3225 -0.2505  0.0025
 4404W        W20538   3.309   0.815  10.521 -0.4322 -0.0771 -0.0320
 4405W        W20539  15.868  10.898   0.106 -0.2988  0.0581 -0.0292
 4406W        W20540   8.016  11.265   1.856 -0.1980  0.0196  0.2259
 4407W        W20541   5.248   6.481   4.263  0.1792  0.2069 -0.1523
 4408W        W20542   6.569   0.976   2.990  0.3874  0.0486 -0.1264
 4409W        W20543  18.464   3.938   2.218 -0.1260 -0.1054  0.0296
 4410W        W20544   2.792  12.097   2.816  0.0881 -0.2384 -0.0034
 4411W        W20545   1.652  15.057   0.568  0.1195  0.2112  0.0497
 4412W        W20546  16.934   7.801   0.786 -0.2133 -0.2472 -0.0814
 4413W        W20547  15.807   3.694   1.642  0.3119  0.2985  0.1150
 4414W        W20548  10.419   9.833  14.765 -0.1414 -0.0575 -0.0812
 4415W        W20549   9.189   9.831   3.899  0.2391 -0.0837  0.3405
 4416W        W20550  17.376   0.472   1.405 -0.0143  0.1317  0.1357
 4417W        W20551  11.910  11.652  14.729  0.0046  0.0647 -0.2971
 4418W        W20552   1.724   4.271   0.396 -0.2676 -0.0284 -0.1059
 4419W        W20553  13.097   6.301   2.285  0.1464  0.1122 -0.1190
 4420W        W20554  14.405  15.325  14.679  0.2416 -0.1459  0.1340
 4421W        W20555   7.205   6.759  12.696  0.1149 -0.2317  0.0150
 4422W        W20556  17.557   4.863  10.722  0.1363  0.1456 -0.1474
 4423W        W20557  11.101  16.741  12.349  0.1088  0.2616 -0.0433
 4424W        W20558  14.667  16.356   3.213  0.0488 -0.1090  0.2376
 4425W        W20559   2.817   0.312  13.420 -0.2133  0.1546 -0.1430
 4426W        W20560  16.051  14.660   2.163 -0.0472 -0.1488 -0.0926
 4427W        W20561  15.802   0.244  15.020  0.0248  0.1332 -0.4059
 4428W        W20562   2.174   5.410  12.004 -0.0349 -0.0471 -0.0517
 4429W        W20563  11.121   0.735  14.306 -0.2469  0.1060 -0.0350
 4430W        W20564  14.967   8.281  14.389  0.0714  0.4213 -0.2449
 4431W        W20565   5.649  16.202   0.344 -0.1261 -0.5464 -0.3378
 4432W        W20566   6.383   6.819   9.940 -0.2173  0.1936 -0.0071
 4433W        W20567  12.014   7.347   4.422 -0.0293 -0.3925  0.1649
 4434W        W20568   0.166  17.029   1.588 -0.0652  0.1762 -0.3408
 4435W        W20569  11.180   6.377   0.187 -0.2228  0.3913 -0.2436
 4436W        W20570  11.440  18.061  13.982  0.4331 -0.1621  0.4054
 4437W        W20571  18.525  16.878  14.734 -0.0485  0.2259 -0.5417
 4438W        W20572  18.349   9.982   2.309 -0.1903  0.0514  0.1101
 4439W        W20573   1.809   6.937   1.395  0.5296 -0.1851 -0.2128
 4440W        W20574   7.969   7.149  12.225 -0.1865  0.0808  0.0265
 4441W        W20575  15.284   1.810   2.429 -0.0800  0.1106 -0.0964
 4442W        W20576   4.325   7.390  10.035  0.1134  0.0773 -0.0153
 4443W        W20577   9.673  13.069   1.148  0.1934  0.1099  0.1239
 4444W        W20578   8.578   0.433   1.130 -0.3690  0.0136  0.0695
 4445W        W20579  16.286   3.749  10.506  0.1631 -0.0047  0.1969
 4446W        W20580   3.806  10.823  14.282 -0.1746  0.1851 -0.0689
 4447W        W20581   4.979   3.958   1.910 -0.1814 -0.1190 -0.1549
 4448W        W20582  14.505   9.947  11.498 -0.0644  0.2104 -0.0117
 4449W        W20583  15.184   6.817   4.111 -0.0869  0.2338  0.0609
 4450W        W20584  12.748  13.355  13.514  0.1008 -0.0256 -0.0271
 4451W        W20585  15.886  10.162   4.346  0.0118  0.0272  0.1663
 4452W        W20586   8.025  13.052  12.617 -0.1108 -0.0603 -0.0986
 4453W        W20587   1.445  15.729   2.947 -0.1263  0.2349 -0.2226
 4454W        W20588   9.255   1.655   3.306  0.2965 -0.4316  0.5033
 4455W        W20589   4.052   4.705  14.856 -0.0055 -0.1079 -0.0242
 4456W        W20590  13.790   6.017  13.999  0.1121 -0.0977  0.1249
 4457W        W20591   2.797   3.135  11.618 -0.0290  0.4668 -0.0042
 4458W        W20592  15.489  11.896   0.212 -0.0940  0.1264  0.3204
 4459W        W20593   1.863   8.175   0.392  0.1075  0.2138  0.1131
 4460W        W20594  11.213   8.063  13.027  0.0836  0.2850 -0.0225
 4461W        W20595   4.351  16.024  13.911  0.1297  0.2330 -0.0963
 4462W        W20596   5.443  15.994  13.092 -0.2146  0.1349 -0.2440
 4463W        W20597   4.263   9.993  11.635 -0.1920  0.0590  0.0043
 4464W        W20598   3.176  17.124   0.120  0.0329  0.0889  0.1587
 4465W        W20599   5.785   0.054  13.651 -0.0304  0.0947  0.1244
 4466W        W20600  10.639  10.461  13.735  0.1128  0.2503  0.0438
 4467W        W20601   2.745   9.783   2.069 -0.1007 -0.1642  0.0447
 4468W        W20602   6.547  13.534   3.530 -0.2419 -0.3141 -0.0881
 4469W        W20603   0.757  10.775   0.895  0.1957  0.2186  0.2760
 4470W        W20604   1.603   8.903  13.256  0.1334 -0.1162 -0.2060
 4471W        W20605  13.673   4.963   3.323 -0.1859 -0.0981  0.1498
 4472W        W20606   0.156   9.908   5.226  0.0195  0.0886  0.1682
 4473W        W20607   2.279  19.075   4.125 -0.1566  0.2972  0.1731
 4474W        W20608  16.750  10.459   3.464 -0.1299 -0.3991  0.0248
 4475W        W20609  10.749   8.361   3.541 -0.0016 -0.0545 -0.1223
 4476W        W20610  16.944   4.962   3.562  0.1523  0.1342  0.0455
 4477W        W20611   2.923   9.138   2.723 -0.2138  0.3856 -0.2077
 4478W        W20612   4.814  16.575  10.262 -0.0035  0.1790  0.1502
 4479W        W20613   8.777   3.305   0.658  0.3783 -0.1474 -0.0789
 4480W        W20614   1.357  14.661  10.555 -0.0677 -0.1214  0.2449
 4481W        W20615  17.372   2.836  10.778 -0.4943 -0.1491  0.0622
 4482W        W20616   6.836  14.810   3.577 -0.1827 -0.3887  0.4057
 4483W        W20617  13.670  12.471   1.147 -0.1062 -0.3612  0.0451
 4484W        W20618  13.020  11.908   0.932 -0.2416 -0.0741  0.2459
 4485W        W20619  15.750   5.784  11.422  0.1012 -0.1185  0.2499
 4486W        W20620  18.556   6.728  12.114 -0.0528 -0.2368  0.0405
 4487W        W20621  14.618   4.843   4.087  0.1643 -0.1395 -0.2263
 4488W        W20622   3.939  14.960   0.227 -0.2122  0.1818  0.1802
 4489W        W20623  12.629   4.259  11.360  0.1821 -0.0840  0.3600
 4490W        W20624  19.229  10.118  13.388  0.3379 -0.0664  0.0703
 4491W        W20625  16.066  12.627  12.453  0.0922 -0.0798 -0.0797
 4492W        W20626  19.219  14.403  13.522  0.0735  0.0519  0.0288
 4493W        W20627   1.931  13.385   1.204 -0.2484  0.1886 -0.1116
 4494W        W20628   1.281  14.564   3.680  0.0546  0.1816  0.1312
 4495W        W20629   9.872  15.013   1.411 -0.4735 -0.1360  0.2282
 4496W        W20630  11.530   6.014   1.811 -0.2279 -0.2352 -0.0396
 4497W        W20631  18.898   6.122  12.313  0.1229  0.0140 -0.0181
 4498W        W20632  13.416  10.241  10.995 -0.0372 -0.1758 -0.2819
 4499W        W20633  17.202  15.036   4.945 -0.1396  0.1584 -0.0089
 4500W        W20634  16.787   3.165   0.026 -0.0383 -0.1709 -0.0070
 4501W        W20635   4.498  16.885   1.454 -0.1818 -0.0846 -0.0956
 4502W        W20636   8.761  12.017   3.816  0.4378  0.1140  0.1027
 4503W        W20637  14.249  16.893   4.087 -0.0443  0.2159 -0.0004
 4504W        W20638   4.768  10.561  11.888 -0.0204 -0.1266  0.4303
 4505W        W20639   6.577   5.811  13.173  0.0510 -0.1361 -0.0896
 4506W        W20640  14.025  18.563  11.266 -0.1335  0.1328  0.0318
 4507W        W20641  16.693  13.701  11.849 -0.0518  0.0624  0.0117
 4508W        W20642   4.285   5.364   0.933 -0.1579 -0.2634 -0.1248
 4509W        W20643   8.771  13.544   4.904 -0.0485  0.1531 -0.0386
 4510W        W20644  16.762  15.009   0.322  0.3871 -0.1103  0.1835
 4511W        W20645   7.538   5.608   1.715  0.0400 -0.0572 -0.0458
 4512W        W20646   8.474   1.728   1.754 -0.1520  0.1615 -0.0722
 4513W        W20647   4.282  10.729   4.519 -0.3251  0.1464  0.0865
 4514W        W20648  12.690   1.655   0.517 -0.0201 -0.1481 -0.2316
 4515W        W20649   5.504   7.342   2.818  0.0029 -0.0259  0.2693
 4516W        W20650  15.562  13.453   3.615  0.0879 -0.0522  0.3042
 4517W        W20651   5.297   6.318   0.496  0.0746  0.0748 -0.0579
 4518W        W20652  14.313  11.789  11.673 -0.0432 -0.0351  0.2014
 4519W        W20653   2.622  13.774  12.924 -0.2243  0.1492 -0.0074
 4520W        W20654  10.849   2.642  14.581  0.1542 -0.3584  0.0763
 4521W        W20655   0.705  11.528   0.753 -0.0068 -0.0949 -0.0560
 4522W        W20656  14.682  10.733   4.040  0.0952 -0.2497  0.4364
 4523W        W20657   8.506  12.515  14.467 -0.0473  0.2814  0.0234
 4524W        W20658  16.014  16.173   3.435  0.0490 -0.1917  0.0069
 4525W        W20659  17.650   6.100  13.165 -0.0355 -0.2954  0.0961
 4526W        W20660   5.043  11.094  11.281 -0.0576 -0.1977 -0.0202
 4527W        W20661  16.125  11.916   4.171  0.2128  0.1403 -0.2974
 4528W        W20662   2.638   7.286   0.211 -0.1093 -0.0712  0.2101
 4529W        W20663  15.180  15.998  13.394  0.3320 -0.2310  0.1459
 4530W        W20664   7.605  15.256   4.109  0.4293  0.2293 -0.1070
 4531W        W20665  15.730  12.681  12.122 -0.2634 -0.2879  0.1470
 4532W        W20666   5.390  16.001   5.210  0.2640 -0.0880 -0.4390
 4533W        W20667   1.579   0.303   0.155 -0.0657 -0.0403  0.1970
 4534W        W20668   1.684   0.883  11.694 -0.2025 -0.0176 -0.1030
 4535W        W20669  11.284  11.902  11.841 -0.0305  0.0978 -0.0356
 4536W        W20670   9.686  11.167  10.670  0.1347  0.0453  0.2879
 4537W        W20671   0.837  18.155  11.368 -0.0658 -0.1907 -0.0461
 4538W        W20672  10.474  15.962  11.398  0.1295  0.0581  0.0779
 4539W        W20673  18.394   8.221  12.394 -0.0239 -0.2958  0.1320
 4540W        W20674  13.188  12.806   3.048 -0.2486 -0.1193  0.0018
 4541W        W20675  18.940   5.325   4.780  0.3200 -0.0042 -0.0000
 4542W        W20676   6.009  16.517  10.534 -0.1588  0.0475  0.0650
 4543W        W20677  15.138   0.631  12.866 -0.1544  0.3037 -0.3062
 4544W        W20678   1.847   0.532  10.396  0.2433 -0.0026 -0.2372
 4545W        W20679   5.196  13.781   3.564  0.2545  0.0238  0.0219
 4546W        W20680   1.896  19.238  14.985 -0.2244 -0.0565  0.1584
 4547W        W20681   9.387   9.381   1.603 -0.2833 -0.1794  0.3951
 4548W        W20682  15.912   2.422   2.216 -0.1998 -0.3844 -0.0530
 4549W        W20683  18.975   2.859   2.644 -0.0702 -0.1484  0.1304
 4550W        W20684  17.415   2.105   4.543 -0.0271 -0.1020  0.1123
 4551W        W20685   2.497   1.056   2.276 -0.1954 -0.0550  0.0451
 4552W        W20686  14.056  10.786  11.384 -0.4216 -0.0261 -0.2620
 4553W        W20687  15.359   5.935   2.501 -0.0109  0.2389 -0.0809
 4554W        W20688   1.613  12.800   0.638 -0.1771 -0.3020 -0.1429
 4555W        W20689  12.622   6.815  12.987 -0.0898  0.2611  0.1355
 4556W        W20690   3.771   5.689  10.716  0.2721 -0.2497 -0.0195
 4557W        W20691  13.495   3.462  11.233 -0.4689  0.1422 -0.0983
 4558W        W20692  10.312   3.510  11.149  0.1443 -0.2225  0.0116
 4559W        W20693  16.869   2.594  14.266 -0.0315 -0.1141  0.0805
 4560W        W20694  10.723  14.833   0.335  0.2418 -0.2562 -0.3466
 4561W        W20695   9.012   9.540   1.332 -0.2031 -0.1216 -0.0980
 4562W        W20696  16.760  12.670  13.173 -0.2175  0.0870  0.4571
 4563W        W20697   1.115  13.018  14.021 -0.2392 -0.0768 -0.0741
 4564W        W20698   0.159   8.489   0.832  0.1961 -0.1248  0.0229
 4565W        W20699   7.471  10.018  12.776  0.0876 -0.1284  0.3779
 4566W        W20700   2.603   2.737  13.748 -0.1257 -0.2496  0.0032
 4567W        W20701   5.175   3.294   2.860  0.0959 -0.2895 -0.2477
 4568W        W20702  15.783  18.636   1.610  0.2683  0.0801  0.4560
 4569W        W20703   3.734   5.142  12.490  0.2157  0.0424  0.1399
 4570W        W20704   5.769   2.213  13.309 -0.0036 -0.0634 -0.0120
 4571W        W20705  11.346   0.166   0.681  0.3941  0.2300  0.2215
 4572W        W20706   0.419   1.769   3.294  0.0125  0.3186  0.0813
 4573W        W20707  11.513  14.780   2.848  0.1158  0.0972 -0.1248
 4574W        W20708  10.464  13.402   5.888  0.4204  0.0498 -0.1207
 4575W        W20709  11.365  16.217   3.989  0.1435  0.3541  0.3092
 4576W        W20710  11.850  11.273  11.233 -0.2261  0.3463  0.2109
 4577W        W20711   1.071  14.066   0.447  0.2526 -0.0702 -0.0369
 4578W        W20712   9.362   1.341   9.143  0.0011 -0.2304  0.2271
 4579W        W20713   0.445  10.395  10.992  0.3452 -0.2977 -0.1411
 4580W        W20714  13.685  15.723  14.087  0.0992  0.0332 -0.1378
 4581W        W20715   6.635   2.767  14.014  0.1834  0.1962  0.0328
 4582W        W20716  17.946   6.066  12.557  0.0012  0.1470  0.0724
 4583W        W20717  12.040  14.073   0.151 -0.1397 -0.0094  0.0521
 4584W        W20718   2.564   3.133   3.145  0.4641  0.0963  0.4209
 4585W        W20719   0.640   4.654   4.376 -0.0979 -0.1877  0.1001
 4586W        W20720  18.949  15.059  10.219  0.0593  0.1541 -0.2634
 4587W        W20721  12.920   6.079  13.255 -0.3202 -0.0414  0.1109
 4588W        W20722   3.271   0.718  11.412  0.1016 -0.1556 -0.0640
 4589W        W20723  18.691  16.322   2.455  0.0699 -0.0541 -0.0325
 4590W        W20724  12.284   4.964  15.037  0.0870 -0.2576  0.0366
 4591W        W20725   7.852  14.958  14.328 -0.1963  0.3953 -0.1304
 4592W        W20726   3.280  18.859   0.909 -0.0070 -0.2459  0.0790
 4593W        W20727   0.252  17.351   0.814 -0.1893 -0.2787  0.2000
 4594W        W20728   3.253  18.420   4.187  0.1374 -0.1638  0.0667
 4595W        W20729  11.517   4.156  12.428  0.1169 -0.1212  0.0118
 4596W        W20730   8.942  17.115   0.386  0.0823  0.1133 -0.0912
 4597W        W20731   2.515   7.677  10.815  0.1752  0.0400 -0.2919
 4598W        W20732  16.974   1.459  12.719  0.0248 -0.3433 -0.4263
 4599W        W20733  18.155   6.003  11.509  0.1673 -0.1083  0.0485
 4600W        W20734   2.195   8.109   5.284  0.3067 -0.3422  0.0825
 4601W        W20735  13.334  18.829  12.604 -0.0534 -0.1124  0.0613
 4602W        W20736  17.118  14.310  14.353  0.2864  0.2057  0.3360
 4603W        W20737  17.950   6.287   1.874 -0.0151 -0.1024  0.3851
 4604W        W20738   7.828  16.945  10.248  0.1369  0.2697 -0.0460
 4605W        W20739   2.751   2.688   3.972 -0.5079  0.1124  0.2803
 4606W        W20740  17.309   8.172   9.875  0.2736  0.1608  0.2865
 4607W        W20741  18.139   9.736   1.863  0.1951 -0.0502  0.0223
 4608W        W20742   2.003   9.829  11.185  0.0530  0.0582 -0.2935
 4609W        W20743  17.486  16.385   1.216 -0.0240  0.0745  0.2144
 4610W        W20744   7.727   3.950  10.282 -0.2396  0.2326 -0.1537
 4611W        W20745  15.198  18.753  11.948  0.3303  0.0257  0.0516
 4612W        W20746  19.188  14.432   4.496 -0.1224 -0.1140 -0.0123
 4613W        W20747  17.721  11.829   5.983 -0.0020 -0.0905  0.1299
 4614W        W20748   4.163  15.413  10.912  0.2090  0.1489 -0.1333
 4615W        W20749  10.040   5.242  14.457 -0.0352 -0.2491 -0.0813
 4616W        W20750   2.022  10.773  14.237  0.2244  0.1942 -0.0156
 4617W        W20751  13.792   4.225   0.458 -0.2657  0.2301  0.1575
 4618W        W20752   2.611  12.013   2.314  0.0281 -0.1846 -0.0449
 4619W        W20753  12.424  14.399   0.050 -0.1613  0.0068 -0.3145
 4620W        W20754   3.267   6.907   3.660  0.0500  0.3425  0.3265
 4621W        W20755  16.065   8.573   2.647  0.1503 -0.0849 -0.0860
 4622W        W20756  13.857   8.186  11.695 -0.0173 -0.3001  0.3003
 4623W        W20757  17.181  19.011  14.081  0.0569  0.0493 -0.1806
 4624W        W20758   7.692  11.443  12.383  0.0239 -0.1696  0.1083
 4625W        W20759   5.659  13.473  13.633 -0.2463  0.1429  0.2158
 4626W        W20760  18.023  18.867   2.832 -0.1854 -0.1852  0.1293
 4627W        W20761   4.581  16.067   1.277  0.0842 -0.0374  0.0523
 4628W        W20762   0.390   8.488   2.142  0.2734  0.2183  0.1570
 4629W        W20763  17.466   7.952   4.009 -0.2749  0.3976  0.0675
 4630W        W20764  11.158  16.276   4.579  0.4171  0.1544  0.0359
 4631W        W20765   9.027  11.801  12.100 -0.0931  0.2765  0.1263
 4632W        W20766  17.354  16.447  13.327  0.1489  0.1217 -0.0298
 4633W        W20767  16.343   7.870  14.071  0.1910 -0.0734  0.1058
 4634W        W20768  17.248   7.500  11.604 -0.1217  0.0199  0.1733
 4635W        W20769   5.514  12.476   5.657 -0.2564 -0.0257 -0.1327
 4636W        W20770  10.268   5.687  12.747  0.0618 -0.1481 -0.1380
 4637W        W20771  15.912   2.512   0.808  0.1017 -0.0460  0.1418
 4638W        W20772  16.233  18.546  10.931 -0.3027  0.0831 -0.0487
 4639W        W20773   9.460   2.249  13.728 -0.0979 -0.2331 -0.0896
 4640W        W20774   8.318   4.770   0.849  0.2210  0.3095 -0.0919
 4641W        W20775  18.007   5.315   3.823  0.1268  0.0117 -0.1077
 4642W        W20776  17.069  15.820  13.695 -0.2803 -0.1838  0.0922
 4643W        W20777   0.176   3.529  13.376 -0.0665 -0.0640  0.0493
 4644W        W20778  15.605   9.740  14.020 -0.1130 -0.1377 -0.2107
 4645W        W20779  17.012  13.176  14.201 -0.2415  0.1370 -0.2915
 4646W        W20780  14.472   7.616  11.021  0.3523 -0.1518 -0.3359
 4647W        W20781   2.329   6.863  12.169  0.1565 -0.1136 -0.0742
 4648W        W20782  12.782  17.060  11.055 -0.0775  0.2343 -0.0767
 4649W        W20783  14.193   5.206  11.232  0.2118  0.0176 -0.3173
 4650W        W20784   8.614   6.219  14.046  0.0827  0.2050 -0.6099
 4651W        W20785   3.804  15.152   3.434  0.1037  0.0508  0.0447
 4652W        W20786  15.078   1.323   2.193  0.0929  0.3370  0.1388
 4653W        W20787  13.378  12.955   4.644 -0.0771 -0.0241 -0.0611
 4654W        W20788  16.228  11.873  13.060 -0.2281 -0.2059  0.2658
 4655W        W20789   9.975   9.881   1.898  0.1112 -0.3289 -0.2618
 4656W        W20790   6.996   6.546  11.060 -0.1087  0.2721  0.1788
 4657W        W20791   8.344   6.200  11.802  0.3488  0.1172 -0.3212
 4658W        W20792   6.545   8.040   1.509  0.0827  0.1966  0.0824
 4659W        W20793  11.165   3.191   3.675  0.2304  0.3112 -0.1277
 4660W        W20794   4.824   0.658   2.510 -0.0396 -0.0276  0.1369
 4661W        W20795  14.742   0.578   4.504  0.0657 -0.0167 -0.1099
 4662W        W20796  18.428   1.312   1.738  0.0417  0.1118 -0.2659
 4663W        W20797   7.703   2.340  11.042  0.2248  0.0106  0.1069
 4664W        W20798   8.059  17.288   0.933  0.2119  0.3177 -0.1519
 4665W        W20799  14.655  17.884   0.395 -0.1046  0.4270  0.3024
 4666W        W20800   3.478   3.136   3.347  0.0100  0.2754 -0.0873
 4667W        W20801   4.464  11.450   3.887  0.2262 -0.5413 -0.1471
 4668W        W20802  19.136  10.849  11.664  0.0587 -0.0132  0.3172
 4669W        W20803  18.585   2.319   4.335  0.0234 -0.0056  0.2327
 4670W        W20804  17.556   5.547  10.487 -0.0255  0.4427 -0.1145
 4671W        W20805  13.486  12.254  13.249 -0.2257 -0.0742  0.1181
 4672W        W20806  18.701  12.858  11.799  0.1148 -0.2879 -0.0473
 4673W        W20807  11.174  11.597  10.923  0.2728 -0.2584 -0.3662
 4674W        W20808   4.043   3.276  13.655  0.4023  0.0210 -0.1495
 4675W        W20809  13.094   9.795   4.980  0.2857  0.2387 -0.2299
 4676W        W20810  14.289  14.436  14.164  0.2001  0.1276 -0.2080
 4677W        W20811   9.036   6.898   9.976 -0.0964  0.2274 -0.1565
 4678W        W20812   0.644  10.947  12.539 -0.1779 -0.0024  0.2788
 4679W        W20813   8.752   6.212   0.396 -0.0983  0.4051 -0.2065
 4680W        W20814  11.571   9.746   0.714 -0.0215  0.1790  0.0211
 4681W        W20815   0.579   3.427  14.231 -0.1003  0.1651  0.2055
 4682W        W20816   5.752   9.124   1.659  0.1066 -0.1562  0.0609
 4683W        W20817   6.138  17.394  11.990 -0.1772  0.1860 -0.1214
 4684W        W20818  18.059  18.400  10.953 -0.0065  0.1068  0.1533
 4685W        W20819  11.006   4.550   4.698 -0.0227  0.2180  0.2020
 4686W        W20820   8.647  15.300  13.410  0.0425  0.4455  0.2207
 4687W        W20821  18.378   4.729   5.451  0.4208  0.2681 -0.5358
 4688W        W20822   6.812  10.767   5.485 -0.0215  0.0835 -0.1163
 4689W        W20823   8.229   8.037  11.974 -0.1905 -0.2087 -0.1025
 4690W        W20824  14.004  18.031   4.956  0.2407 -0.3639  0.0402
 4691W        W20825  10.893  16.538  11.403  0.3128 -0.0913 -0.1042
 4692W        W20826   4.550   2.796  10.529 -0.0407  0.1054  0.1253
 4693W        W20827   3.603   3.608   9.635 -0.0894 -0.2823 -0.1572
 4694W        W20828  10.959   8.300  14.765  0.2881 -0.0826 -0.0050
 4695W        W20829  14.183  17.631  14.672  0.0165 -0.0549 -0.0436
 4696W        W20830   9.061  18.404  11.551  0.1266  0.3597 -0.0656
 4697W        W20831   4.252  16.669  13.587 -0.3636  0.0281 -0.2253
 4698W        W20832  11.510  15.332   1.373 -0.0813 -0.0612 -0.2143
 4699W        W20833  14.240   3.017  14.161  0.5300 -0.2770  0.1448
 4700W        W20834  16.306   9.238   1.427 -0.1158 -0.1381 -0.5555
 4701W        W20835  15.559   4.177   3.948  0.1304  0.2190 -0.1058
 4702W        W20836  13.492   2.193   2.024  0.2932 -0.2762 -0.1911
 4703W        W20837   5.053  14.627   4.104  0.0720  0.1867  0.4021
 4704W        W20838  14.162  17.416  10.641  0.0817 -0.1255  0.3870
 4705W        W20839   4.271  10.164  15.012  0.0130 -0.0999 -0.2508
 4706W        W20840   8.639   0.026   4.310 -0.3390 -0.0299  0.0241
 4707W        W20841  17.624   0.769   3.244  0.1585  0.2008  0.3506
 4708W        W20842   3.859   5.204  11.476 -0.1886 -0.2291  0.1127
 4709W        W20843   1.527   3.569  13.096 -0.1818  0.0163 -0.2205
 4710W        W20844  14.431  15.860  12.425  0.0891 -0.3100  0.1688
 4711W        W20845   2.820  12.656  14.772  0.0930 -0.4207 -0.2403
 4712W        W20846  11.393  11.854   1.641  0.0981  0.2345  0.3185
 4713W        W20847  14.994  19.000   3.371 -0.3482  0.2698  0.0875
 4714W        W20848  13.872   5.446   1.581  0.1038  0.2164 -0.1687
 4715W        W20849  15.366  14.676   2.959  0.0833 -0.3154  0.0381
 4716W        W20850   8.389   4.767   1.348  0.0272  0.1330 -0.2189
 4717W        W20851   9.000   6.064  12.674  0.2372 -0.0563 -0.1498
 4718W        W20852   0.337   6.844  11.415 -0.0741 -0.1828 -0.0342
 4719W        W20853  11.544  17.448   0.190  0.3405 -0.2125  0.3910
 4720W        W20854  10.621   7.149  12.893  0.0067 -0.0101 -0.3633
 4721W        W20855   9.516  16.303   4.409 -0.2335 -0.1126 -0.2761
 4722W        W20856  13.653   4.320   1.951 -0.3383 -0.1563  0.0713
 4723W        W20857  12.999   2.808  11.459 -0.1137 -0.2787 -0.1475
 4724W        W20858  13.719  13.548   0.732  0.0972  0.0878 -0.1930
 4725W        W20859  16.904   5.961   1.692 -0.2086  0.0426 -0.0551
 4726W        W20860  18.935  16.480   2.005 -0.0076 -0.6295 -0.1967
 4727W        W20861   2.363  12.865  12.420  0.0021  0.1922 -0.2556
 4728W        W20862  12.714   5.200  10.486 -0.0266 -0.1729 -0.0498
 4729W        W20863  18.765   0.265  14.975  0.2403  0.0867  0.2602
 4730W        W20864  13.907  16.841  12.346  0.1995  0.2865 -0.2362
 4731W        W20865   4.721   1.850   1.681  0.0201  0.0097 -0.2162
 4732W        W20866   2.140  17.317   3.530 -0.0884 -0.1322 -0.1397
 4733W        W20867  11.254  15.067   0.934 -0.0920  0.0501  0.0077
 4734W        W20868   2.334   2.097   4.683 -0.0121 -0.0086 -0.0452
 4735W        W20869   8.988  10.092   1.497  0.0218 -0.0822  0.0733
 4736W        W20870   4.738  16.818   9.400 -0.0284  0.0560  0.1847
 4737W        W20871  12.283  12.697  12.970  0.2255 -0.0646 -0.0212
 4738W        W20872   8.779  14.550  14.499  0.2314 -0.1826  0.2559
 4739W        W20873  17.513   2.105  12.785  0.0037 -0.4646  0.1135
 4740W        W20874   7.982  17.680   4.249  0.0592  0.1460 -0.1640
 4741W        W20875  15.718  11.932  11.223 -0.3269  0.1486  0.1542
 4742W        W20876   4.869   5.486  13.391 -0.0998  0.0250  0.2981
 4743W        W20877   5.866  11.238   4.443  0.1820  0.2147 -0.0547
 4744W        W20878   6.834   0.143   3.804  0.4885  0.1347  0.1488
 4745W        W20879  17.291   6.586   0.093 -0.3802 -0.1415 -0.2392
 4746W        W20880  10.492   2.627   4.956  0.1107  0.0255 -0.4607
 4747W        W20881  15.889  12.039   4.711 -0.0902  0.0095  0.1150
 4748W        W20882   2.817  13.217  12.306 -0.1465  0.0727 -0.1612
 4749W        W20883   2.372  14.173   2.859 -0.0875  0.0832 -0.1298
 4750W        W20884  11.609  12.802  10.933 -0.0283  0.3515  0.1927
 4751W        W20885  16.411   1.395  13.446 -0.0600 -0.2078  0.2554
 4752W        W20886   9.903  14.819   4.752 -0.2403  0.2830 -0.0982
 4753W        W20887   3.302   1.427  12.059 -0.1572  0.0735 -0.0490
 4754W        W20888   0.758   9.593  12.220  0.1614 -0.0442  0.1547
 4755W        W20889  15.211   4.987   2.584 -0.5043 -0.2975 -0.0835
 4756W        W20890   0.390   9.260  13.834  0.3647  0.3481 -0.0366
 4757W        W20891   6.616  12.396  12.900 -0.0803  0.0993  0.4796
 4758W        W20892  12.651  17.811   3.756 -0.0595 -0.2324 -0.1346
 4759W        W20893  10.863  13.717  12.981  0.0507 -0.0081  0.1874
 4760W        W20894  11.253  11.459   3.901 -0.1003  0.0315 -0.1412
 4761W        W20895   0.543  15.642  12.358  0.2036  0.6270  0.2070
 4762W        W20896  14.133  12.943   2.706 -0.1141 -0.0395 -0.1743
 4763W        W20897   9.002   6.557  15.035  0.1038  0.0926 -0.0683
 4764W        W20898   8.756   3.295   2.048 -0.1206  0.2594  0.1812
 4765W        W20899  11.066   2.193  11.281 -0.0913 -0.0923  0.1232
 4766W        W20900   3.142  16.240   1.340 -0.0879  0.1368  0.2263
 4767W        W20901   4.216   1.034   0.158  0.1167 -0.4113 -0.1265
 4768W        W20902  13.084   9.857  11.225 -0.1160 -0.3224 -0.2789
 4769W        W20903  13.196  10.995  12.535  0.1985  0.3070 -0.1030
 4770W        W20904  15.076  14.378   3.772 -0.0699  0.2232 -0.1560
 4771W        W20905   5.992   8.759   4.132 -0.4182 -0.0334  0.0010
 4772W        W20906   3.034   3.338  10.811 -0.0660 -0.2163 -0.1728
 4773W        W20907   4.441   4.270   1.576  0.2228  0.0345  0.0277
 4774W        W20908  16.086   3.660   2.848  0.0562  0.3825 -0.0305
 4775W        W20909  10.873   7.047  11.324 -0.0539 -0.1589 -0.2958
 4776W        W20910  11.984   1.501  14.792  0.1230  0.3586  0.1205
 4777W        W20911   2.115   9.404   5.026 -0.1037 -0.1866  0.1375
 4778W        W20912  10.741  11.534  14.983 -0.3986  0.1451 -0.0924
 4779W        W20913   8.945  10.184   2.027  0.1285 -0.2547  0.0876
 4780W        W20914   9.955   4.081  11.463  0.0694 -0.1330 -0.3221
 4781W        W20915  18.418  18.149   1.824 -0.3176  0.0732 -0.0223
 4782W        W20916   8.715  18.226   5.124  0.2696 -0.0127  0.2401
 4783W        W20917  17.618   2.035  12.255  0.1908  0.2393  0.1762
 4784W        W20918   7.632  13.766  14.204  0.1145  0.1950 -0.0646
 4785W        W20919   1.033   7.302   1.558 -0.0772 -0.2478 -0.0999
 4786W        W20920   9.250  10.032  12.293  0.1060 -0.1716  0.2455
 4787W        W20921   0.453   7.565   4.481  0.1129 -0.1147  0.0225
 4788W        W20922   5.998  10.059   5.020 -0.0527  0.0872 -0.0445
 4789W        W20923   4.491  10.425   4.159  0.4478  0.0948  0.0600
 4790W        W20924   2.492   7.821  14.438  0.1366  0.3418  0.1510
 4791W        W20925   2.264   7.253  13.235  0.1956  0.1565 -0.0446
 4792W        W20926   8.221  15.856  11.418 -0.1818  0.2100 -0.0223
 4793W        W20927   8.168   4.588   4.064  0.2503  0.0512  0.0764
 4794W        W20928  16.618   2.861   0.357  0.1893  0.4282  0.0845
 4795W        W20929  11.089  12.323  14.083 -0.0611  0.0913  0.0037
 4796W        W20930   3.851   6.763  10.854 -0.0319  0.2080  0.1383
 4797W        W20931   5.730  10.441  12.462 -0.2075 -0.1430 -0.1104
 4798W        W20932  15.001  18.446  10.864  0.0284 -0.3585 -0.0343
 4799W        W20933   5.172   7.135   9.258 -0.1557  0.2978  0.1099
 4800W        W20934  12.740  17.497  12.585  0.1878 -0.2111 -0.1888
 4801W        W20935  11.869   9.263   4.631  0.3102 -0.0379 -0.1209
 4802W        W20936  11.797   1.965  14.471 -0.3056 -0.0536  0.0635
 4803W        W20937   4.606   1.605  10.164  0.0964 -0.0922 -0.0762
 4804W        W20938   9.359   8.780   1.668  0.2382 -0.2541  0.0944
 4805W        W20939  13.585  16.804  11.560  0.0046 -0.1076 -0.0710
 4806W        W20940   4.567   4.137  12.314 -0.1245  0.0451 -0.1430
 4807W        W20941   0.462   5.798   4.077 -0.0966 -0.2050 -0.1184
 4808W        W20942  13.197  18.931  11.529  0.2168  0.2559  0.1895
 4809W        W20943   4.663   4.615   3.649  0.2162  0.0767 -0.2439
 4810W        W20944   2.370  15.430  11.758 -0.0301  0.2632  0.0501
 4811W        W20945  18.416   9.549   2.734 -0.0279  0.1265 -0.1917
 4812W        W20946  16.483   4.961   3.668 -0.0316  0.0660  0.2353
 4813W        W20947   6.057  17.519  11.455  0.2473 -0.2026  0.1022
 4814W        W20948   5.808  16.957  10.325  0.1147 -0.0861 -0.1321
 4815W        W20949   7.849  13.846  13.180 -0.2799 -0.3146  0.1870
 4816W        W20950   3.935  15.898   2.264  0.1317  0.1951 -0.1874
 4817W        W20951  15.257   9.251   0.287 -0.0216 -0.0686 -0.0715
 4818W        W20952   6.146  16.134   0.198 -0.1629  0.0842  0.0089
 4819W        W20953   0.433   5.531  13.840 -0.0989  0.4511  0.4159
 4820W        W20954   2.623  14.541  14.583 -0.0346  0.0768 -0.2132
 4821W        W20955   1.894  18.616   2.254 -0.1810  0.1659  0.0301
 4822W        W20956   3.048  14.832  14.118 -0.2188  0.0023 -0.0086
 4823W        W20957   8.271  13.166   2.790  0.0383 -0.0012  0.2910
 4824W        W20958   9.273   5.097   4.749 -0.1937  0.0325  0.3440
 4825W        W20959  10.501  10.948   3.984 -0.1456 -0.1271  0.1382
 4826W        W20960   6.926  17.464  12.895 -0.1209 -0.0580  0.1424
 4827W        W20961  17.867   5.014   3.458 -0.0775 -0.5038  0.0080
 4828W        W20962  14.339   7.877  14.065 -0.0929 -0.0095  0.0954
 4829W        W20963  14.489   0.392  11.871 -0.0503  0.0806  0.1621
 4830W        W20964   6.856   7.183   3.735 -0.1401  0.0444 -0.0103
 4831W        W20965   0.075  10.068  11.098  0.2260  0.0369  0.3563
 4832W        W20966  15.315   3.153   3.904 -0.2119 -0.1258 -0.1620
 4833W        W20967   9.198   3.903   3.842 -0.3816  0.0806  0.1612
 4834W        W20968  12.218   9.066   3.579 -0.2534 -0.1570 -0.1906
 4835W        W20969   1.201  18.760   5.951 -0.1507  0.0843  0.1717
 4836W        W20970  14.336  16.096   3.460  0.2875  0.0051 -0.1335
 4837W        W20971  14.824   8.082   1.755 -0.0169  0.0347 -0.0927
 4838W        W20972  12.606   2.105  13.178  0.0771 -0.0320  0.1819
 4839W        W20973  16.832   6.779  10.626 -0.1776  0.0830 -0.1456
 4840W        W20974   2.972   4.036  13.018 -0.2501 -0.2252 -0.0195
 4841W        W20975  10.668   6.330   4.036  0.1917  0.0756 -0.1224
 4842W        W20976  10.695   7.869   3.492  0.0310  0.0155  0.0872
 4843W        W20977   4.968  18.484   1.795  0.4555  0.0761  0.0082
 4844W        W20978  13.911  10.767   4.563  0.1434 -0.1431 -0.1194
 4845W        W20979  10.699  13.261  14.937  0.0563  0.0169 -0.0298
 4846W        W20980  16.699  16.458   0.131  0.2438 -0.0928  0.1875
 4847W        W20981   9.743   7.159  14.442  0.0607 -0.0736  0.0187
 4848W        W20982   2.744   3.090   1.799  0.0950  0.0431 -0.1155
 4849W        W20983  16.947  12.867  12.088 -0.0247  0.0514  0.1467
 4850W        W20984  12.427   7.471   2.805 -0.1252  0.2528  0.2808
 4851W        W20985  14.729  18.270   0.059 -0.0969  0.1255 -0.4605
 4852W        W20986  19.025  11.098  13.869  0.0543  0.0174  0.0000
 4853W        W20987   4.227  15.351   3.310 -0.0632 -0.0601 -0.1875
 4854W        W20988  10.061   7.542   1.576 -0.1294 -0.2496 -0.1542
 4855W        W20989  14.537   7.922  13.607 -0.4480 -0.1979 -0.0822
 4856W        W20990   9.058   8.036   9.139 -0.2089 -0.0331  0.1213
 4857W        W20991   9.218  16.251  12.632  0.1366  0.2595 -0.0513
 4858W        W20992  14.431   0.169  13.851 -0.0798 -0.1521  0.3564
 4859W        W20993   0.884  11.748   2.664  0.2699 -0.2729 -0.0310
 4860W        W20994  13.368   1.288  12.489  0.2110 -0.1049 -0.2186
 4861W        W20995  13.907   9.815  12.988 -0.0203 -0.0018 -0.1174
 4862W        W20996  14.963  14.934  10.739 -0.0014 -0.2494 -0.0664
 4863W        W20997   5.080  12.930   3.376 -0.3052 -0.0410  0.0932
 4864W        W20998  12.837  18.128  10.967  0.1121  0.1184  0.1146
 4865W        W20999   9.622  10.550   3.522  0.1478  0.1696 -0.2827
 4866W        W21000   7.215   6.678   2.655 -0.0746 -0.0991 -0.1928
 4867W        W21001   5.635  11.656  12.896 -0.2944  0.1761 -0.0342
 4868W        W21002   9.156   5.697  12.356  0.1106 -0.1669 -0.1915
 4869W        W21003  16.998   5.703   2.810 -0.1297 -0.3301  0.2365
 4870W        W21004   0.968  12.349  14.735  0.4110  0.1791 -0.0798
 4871W        W21005  14.558   4.907   4.638 -0.0400 -0.0189 -0.1596
 4872W        W21006  17.344  15.355   4.107  0.2559  0.0554 -0.0886
 4873W        W21007   9.751  13.995   0.192 -0.0194 -0.2094 -0.1562
 4874W        W21008   0.492   0.025   2.048  0.1046  0.0031 -0.3676
 4875W        W21009  17.307  16.454   0.511 -0.2209  0.0900 -0.0979
 4876W        W21010   4.379  18.292   4.901  0.2156 -0.0509 -0.0485
 4877W        W21011  17.551  14.696   5.120  0.2692 -0.0297  0.0920
 4878W        W21012   4.484   7.624   0.794  0.4642 -0.1197  0.0271
 4879W        W21013   3.297   2.252  14.852 -0.0144 -0.1127 -0.0665
 4880W        W21014   9.048   5.522   2.244  0.2154 -0.0305  0.0234
 4881W        W21015  11.872   2.466  11.592 -0.0721 -0.0322 -0.1156
 4882W        W21016   5.771  13.939   5.816 -0.0977 -0.1463  0.0708
 4883W        W21017   1.276   6.463   5.029  0.4345 -0.1373 -0.0035
 4884W        W21018   1.077  12.793   4.237 -0.0569 -0.1264 -0.0883
 4885W        W21019   7.721  10.167  13.212  0.0365 -0.1442 -0.3671
 4886W        W21020  17.951  14.542  12.354  0.1311  0.2030  0.1001
 4887W        W21021  18.625  15.800  11.455  0.3128 -0.0365  0.0906
 4888W        W21022  13.660  11.266   1.980 -0.0855 -0.1181 -0.0597
 4889W        W21023  13.767  11.221  12.943 -0.2181 -0.1003  0.2624
 4890W        W21024   7.818  11.757   0.768 -0.0641  0.0825  0.0153
 4891W        W21025   6.626   2.652   2.686  0.0964  0.0408  0.0164
 4892W        W21026   7.211  17.735   4.088 -0.4513  0.0483 -0.0438
 4893W        W21027  12.198  12.763   4.646  0.0648  0.2075  0.2051
 4894W        W21028  16.015  15.039   1.155 -0.0663 -0.2063 -0.0211
 4895W        W21029  14.215  15.235  11.291 -0.1809  0.0216  0.0404
 4896W        W21030  18.487  15.578  13.103  0.0820 -0.0206 -0.0941
 4897W        W21031   9.090  11.418  13.643 -0.1225 -0.3874  0.1653
 4898W        W21032   7.378  18.596   3.337  0.0546 -0.1632 -0.0915
 4899W        W21033  13.249   5.336   9.812 -0.1977 -0.1256  0.0385
 4900W        W21034   2.953  16.846  12.546 -0.1470  0.5047 -0.2445
 4901W        W21035  13.144  18.767  14.005 -0.1298  0.1769  0.1563
 4902W        W21036   3.468  18.136   1.890  0.0794  0.2619  0.1865
 4903W        W21037   5.284   4.781   2.037 -0.1536 -0.0691 -0.2125
 4904W        W21038   0.018  16.341  11.381 -0.1191 -0.1384  0.0920
 4905W        W21039   3.240  17.380   5.318 -0.0269 -0.1344 -0.0417
 4906W        W21040  18.365  10.756   3.884 -0.1358  0.3012 -0.0134
 4907W        W21041  17.994  15.191  11.703  0.2655  0.1841 -0.3236
 4908W        W21042   9.907   0.949   3.125 -0.0968  0.0596 -0.0997
 4909W        W21043   1.979   3.546  10.553  0.0680 -0.3097  0.2853
 4910W        W21044   3.103   2.812   2.586  0.1063 -0.1727  0.1005
 4911W        W21045  11.744   3.736  13.563  0.3280  0.1822 -0.1748
 4912W        W21046  12.454   3.921   3.523 -0.0527  0.1089  0.0601
 4913W        W21047  17.437   5.032   1.816 -0.1582 -0.0178 -0.0649
 4914W        W21048  14.261   7.977  12.672  0.1452 -0.0513 -0.1401
 4915W        W21049  11.503  13.964   2.308 -0.2272  0.0814  0.0305
 4916W        W21050   6.702   2.143   0.802  0.2592 -0.1555  0.2233
 4917W        W21051   5.819   4.182   2.287 -0.5978 -0.1050 -0.0042
 4918W        W21052   0.989   0.596   4.500  0.1611 -0.0308  0.4273
 4919W        W21053  13.559   1.534   1.123 -0.0056  0.0740  0.1317
 4920W        W21054  12.995   9.922  13.828  0.0354 -0.0871  0.3030
 4921W        W21055   3.991   6.059  10.366  0.0632 -0.1659 -0.1777
 4922W        W21056   1.632   1.115  13.203 -0.0571  0.1199 -0.0784
 4923W        W21057  10.579   3.380  14.108  0.1735 -0.0998  0.0014
 4924W        W21058  16.131   5.038   1.497  0.2403  0.1557 -0.0937
 4925W        W21059  16.531   1.964   4.301 -0.2779 -0.2016  0.1130
 4926W        W21060  12.631  12.481   1.417 -0.1536 -0.2914  0.1136
 4927W        W21061  18.822   7.052   2.485  0.2409 -0.1387 -0.1578
 4928W        W21062  18.996   4.794   1.681  0.1104 -0.0388  0.0904
 4929W        W21063   3.450  13.416   2.316  0.1111  0.2536  0.2180
 4930W        W21064   9.805  13.269  11.318  0.1046  0.1881  0.2774
 4931W        W21065   2.269  16.975  13.327 -0.2218  0.0104 -0.2505
 4932W        W21066  16.080  11.696   2.336  0.0905 -0.1520  0.1825
 4933W        W21067  18.020   3.539  13.551  0.0647 -0.0048  0.0711
 4934W        W21068   0.733   4.747  10.993  0.0331 -0.0257  0.3567
 4935W        W21069   3.048  12.465  14.295  0.0375 -0.5146  0.0932
 4936W        W21070   5.147  13.360  14.518  0.0219 -0.1790 -0.0263
 4937W        W21071   4.443   3.199   3.352  0.0679  0.0022  0.0173
 4938W        W21072  12.906   7.547  14.170 -0.0456 -0.0557  0.1995
 4939W        W21073   4.198   6.503   4.603  0.3066  0.2381  0.2034
 4940W        W21074   0.196  12.672   4.108  0.1137  0.0500  0.0458
 4941W        W21075   0.998  13.677   5.121  0.1895 -0.1532  0.2407
 4942W        W21076   1.432  11.530   2.496  0.0220  0.2704  0.4242
 4943W        W21077  13.047  15.264  14.696  0.0643  0.1686  0.1535
 4944W        W21078  12.451  12.864   5.567 -0.1081  0.0884  0.0369
 4945W        W21079  17.680  15.280   5.814  0.0441  0.2293  0.0447
 4946W        W21080   6.169   7.692  14.854 -0.3530 -0.0993  0.0957
 4947W        W21081   5.906  12.047  11.713  0.0226  0.1642  0.4815
 4948W        W21082   3.176  11.639  12.044 -0.1555 -0.0802 -0.0912
 4949W        W21083   2.813  15.741   3.051 -0.1807 -0.5140 -0.1665
 4950W        W21084  13.726  19.100   4.252  0.4830 -0.0601  0.1746
 4951W        W21085  17.998  11.775   0.869  0.2151 -0.0161  0.4505
 4952W        W21086  16.018   9.048  12.292  0.1547 -0.0054  0.0078
 4953W        W21087  14.508  15.410   4.277  0.2069  0.0019  0.0586
 4954W        W21088   8.410   7.879  11.516  0.0668  0.0530 -0.1166
 4955W        W21089  14.103   8.647  10.361  0.1188 -0.0038 -0.0327
 4956W        W21090   7.461   2.274  12.018  0.2869  0.2111  0.1777
 4957W        W21091   4.578  10.289  14.640 -0.0938  0.0153  0.1009
 4958W        W21092   0.572  15.802   5.647 -0.1719  0.2610 -0.2200
 4959W        W21093   3.318  15.678   9.553  0.0158  0.0130  0.0325
 4960W        W21094  16.010  18.211  11.643 -0.2103 -0.1496 -0.0776
 4961W        W21095   0.077   4.090   1.261  0.4682 -0.1280  0.1176
 4962W        W21096  14.903   2.108  14.991 -0.4348 -0.1336  0.1000
 4963W        W21097  15.760   3.057   4.035  0.2062  0.2667  0.4041
 4964W        W21098   9.203  18.470   2.122 -0.1936 -0.0042  0.0690
 4965W        W21099  17.097  15.202   0.638 -0.1830 -0.2569  0.1056
 4966W        W21100  17.394  13.536  14.919 -0.2530  0.1001  0.0233
 4967W        W21101  11.016   7.288   4.141  0.1433  0.1775  0.1138
 4968W        W21102   8.362   7.243  14.098  0.1313  0.1089  0.4647
 4969W        W21103  11.316  10.248  10.790  0.1093 -0.1976 -0.0102
 4970W        W21104  14.963   2.930  12.208  0.2767  0.1065  0.2079
 4971W        W21105  12.178   6.035  12.725 -0.1582  0.0743 -0.2053
 4972W        W21106  13.486   1.939   4.789 -0.1163 -0.1727 -0.1245
 4973W        W21107   2.366  10.688   3.378 -0.0695 -0.0319  0.2225
 4974W        W21108   0.944  13.460   1.764  0.1225  0.1759 -0.0705
 4975W        W21109  16.765   3.519  10.504 -0.1601  0.1281  0.0964
 4976W        W21110  15.938   7.664  10.548 -0.4353  0.3348  0.0681
 4977W        W21111  11.694   8.463   0.794 -0.4470 -0.4799  0.2490
 4978W        W21112   7.825   0.781   4.859 -0.0205  0.1664 -0.0130
 4979W        W21113   7.984  17.270   1.471 -0.1890  0.3592 -0.0911
 4980W        W21114   6.436   8.988   1.109  0.1184 -0.2678  0.0274
 4981W        W21115  13.277  13.687   1.826  0.0008  0.4767  0.2483
 4982W        W21116  16.187  10.973   3.908 -0.1757  0.1598  0.0928
 4983W        W21117  10.665   0.494   0.090 -0.1030 -0.1058 -0.1528
 4984W        W21118   7.077  11.480   3.711  0.0554 -0.0294  0.0910
 4985W        W21119   1.231   7.570  14.011 -0.1364  0.1257 -0.1439
 4986W        W21120   9.893   5.148   2.220 -0.0537  0.2752 -0.1204
 4987W        W21121   2.621  13.325   1.779  0.1829 -0.1372 -0.5207
 4988W        W21122  18.144   5.009   2.477 -0.1999 -0.0753  0.3292
 4989W        W21123  17.942   0.845  11.486 -0.1864  0.2396 -0.1145
 4990W        W21124   7.183  14.840  13.313  0.0526 -0.1759 -0.2263
 4991W        W21125   4.647  10.207  10.783  0.2203  0.0788 -0.0479
 4992W        W21126   6.488   8.251  12.421  0.3154  0.0760 -0.0376
 4993W        W21127   8.101  17.148   2.037  0.1640 -0.1132 -0.0638
 4994W        W21128   8.301  10.315  13.416  0.3685 -0.1013 -0.2264
 4995W        W21129   3.640   5.212   4.881 -0.0420  0.1729 -0.3195
 4996W        W21130   1.592   9.556   4.814  0.1934 -0.0980 -0.2332
 4997W        W21131   6.497  16.736   5.202 -0.1286  0.0638 -0.2340
 4998W        W21132   1.266   6.166  13.884  0.2466 -0.0423  0.4250
 4999W        W21133  13.119  16.532  14.518 -0.2396  0.2973  0.0437
 5000W        W21134  13.222   3.253  14.085  0.1152  0.0196  0.0396
 5001W        W21135   4.463   0.885  12.185 -0.3302 -0.1853 -0.2849
 5002W        W21136   7.363  16.793   0.179 -0.2834  0.1521 -0.2324
 5003W        W21137   5.525   3.371   0.953 -0.1504 -0.0367 -0.3050
 5004W        W21138  12.951   7.162   2.125 -0.1297 -0.1886  0.0502
 5005W        W21139   5.602   2.599  13.619 -0.0767 -0.0556 -0.2001
 5006W        W21140  11.862   6.158   2.757  0.2912 -0.1687  0.4095
 5007W        W21141  10.274  19.075  13.154 -0.0816  0.3113  0.5063
 5008W        W21142   4.160  12.468   1.594 -0.0127  0.0489 -0.3352
 5009W        W21143   9.290   7.429  13.671  0.1017 -0.0050 -0.0753
 5010W        W21144   3.464   6.050   2.244  0.1707  0.0965  0.3535
 5011W        W21145   9.269   3.471  12.700 -0.0982  0.3246 -0.2909
 5012W        W21146  10.291   6.589   4.161 -0.0537 -0.2017 -0.1722
 5013W        W21147   2.964  11.520   1.176 -0.3429  0.2855  0.3406
 5014W        W21148  13.467  14.410   9.761  0.0883  0.1311 -0.1608
 5015W        W21149  15.281   2.640  14.050  0.1438  0.0736  0.1141
 5016W        W21150  14.599   9.928  14.523  0.3772  0.0074  0.4514
 5017W        W21151   7.297   1.196  11.499  0.0631  0.1486 -0.0982
 5018W        W21152   1.904  15.519  14.117 -0.0499 -0.0244  0.0147
 5019W        W21153  14.574  16.371   1.525 -0.2389 -0.3056 -0.1954
 5020W        W21154  10.851   3.954  10.060  0.0214  0.0054 -0.0777
 5021W        W21155   6.949   0.748  13.558 -0.3804 -0.1203  0.1339
 5022W        W21156   5.964  13.544  10.053  0.0664 -0.0475  0.1773
 5023W        W21157  16.732  13.992   4.237 -0.3492 -0.0428 -0.0679
 5024W        W21158  11.172  15.759   3.758  0.1295  0.2359  0.0494
 5025W        W21159   7.645  18.347  13.064  0.1254 -0.5418  0.0579
 5026W        W21160  14.096  16.412   4.924 -0.2047  0.1462 -0.4227
 5027W        W21161  16.384  12.618   3.496  0.1606  0.1106 -0.0039
 5028W        W21162   5.896  14.556   9.962  0.1388 -0.1924 -0.1584
 5029W        W21163  18.963  12.786   2.791 -0.1793 -0.3327  0.1248
 5030W        W21164   5.773   5.076   1.268  0.0352  0.0203 -0.3784
 5031W        W21165   1.091  11.189  14.254 -0.2971 -0.1740  0.0546
 5032W        W21166  11.200  14.549  11.952  0.1956  0.1438 -0.0106
 5033W        W21167   8.216  12.295   4.458  0.0931  0.2695 -0.0779
 5034W        W21168   1.811  10.173  13.005  0.2159 -0.2983  0.0041
 5035W        W21169   4.515  16.487  14.882  0.1471  0.1354  0.0885
 5036W        W21170   3.132   8.914   2.342 -0.0574  0.0081  0.0191
 5037W        W21171   8.260   5.514   3.980 -0.2132  0.1443 -0.1179
 5038W        W21172   8.146  11.224  11.155  0.2691 -0.0427 -0.2800
 5039W        W21173  14.842  14.955   4.265 -0.1495 -0.2107 -0.2526
 5040W        W21174  18.331   3.156   5.192  0.1215  0.4326  0.0193
 5041W        W21175   5.455   3.998   3.195  0.0105  0.0120 -0.1081
 5042W        W21176  18.576   5.232  10.476  0.2185 -0.0533 -0.3334
 5043W        W21177   8.312  11.899   1.264 -0.1918 -0.1685 -0.1859
 5044W        W21178   2.097  11.167  12.796 -0.3335 -0.1719  0.1502
 5045W        W21179   1.079   6.195  11.842 -0.0961 -0.0964 -0.1944
 5046W        W21180  16.643   7.102  10.291 -0.2411  0.1523  0.0088
 5047W        W21181   3.163   1.731   2.862  0.0028 -0.2021 -0.0709
 5048W        W21182   2.618   1.902   0.127 -0.3968  0.0690 -0.4150
 5049W        W21183   6.215   0.470  13.092  0.0858 -0.0298 -0.4990
 5050W        W21184   0.296   9.552  11.619  0.0575 -0.1840  0.1612
 5051W        W21185   3.533   5.255   2.352  0.2659  0.1945  0.1158
 5052W        W21186  12.298  13.384  13.701  0.0834 -0.0860 -0.0030
 5053W        W21187  13.696  12.179   2.183  0.0387 -0.1715  0.1343
 5054W        W21188   5.085  11.086   9.866  0.0900  0.0651  0.3166
 5055W        W21189   7.063   7.632  14.351  0.0859 -0.1020 -0.1355
 5056W        W21190  17.090   4.862   9.247  0.2131 -0.1460 -0.0152
 5057W        W21191   3.753   4.702  11.533 -0.0588  0.0420 -0.1365
 5058W        W21192  17.596  17.615   2.664 -0.2491  0.5364 -0.0925
 5059W        W21193  13.397  12.364   1.824 -0.0548 -0.2549  0.0151
 5060W        W21194   7.310   1.434  11.984  0.0080 -0.1232  0.0729
 5061W        W21195   6.147   9.338  13.311  0.0625  0.2241 -0.0087
 5062W        W21196   2.245   1.415   0.163 -0.0038  0.1854 -0.2235
 5063W        W21197   6.727  11.326   4.137  0.1534  0.0767 -0.0901
 5064W        W21198   3.223   9.370  13.911  0.2436  0.1477 -0.1566
 5065W        W21199  18.211  17.277   0.590  0.1009  0.2460  0.1337
 5066W        W21200  13.663  15.493   4.962  0.0705 -0.2177 -0.0327
 5067W        W21201  10.875  16.900   1.161  0.1263  0.0944  0.1309
 5068W        W21202   6.864   1.138  13.898 -0.2789  0.1229 -0.0859
 5069W        W21203  16.566  14.295   2.556 -0.1909  0.1441  0.2209
 5070W        W21204  14.300   2.577  14.407 -0.0067 -0.2408  0.1192
 5071W        W21205   0.847  13.101  11.300  0.1561  0.0292  0.2390
 5072W        W21206   1.942  11.837   3.994 -0.2633  0.2112  0.2617
 5073W        W21207  12.686  12.238   6.202 -0.1515 -0.2562  0.0201
 5074W        W21208   0.536  12.632  10.600 -0.1169  0.0771 -0.0135
 5075W        W21209  17.378  15.777   4.363  0.2372  0.2363 -0.2583
 5076W        W21210   9.038  17.877   5.299  0.2489  0.0095  0.1084
 5077W        W21211  11.224   2.448  10.848 -0.2214 -0.2200 -0.2544
 5078W        W21212   6.396   4.516  11.345  0.0410  0.2544  0.3310
 5079W        W21213   5.629   6.363   9.738  0.1917 -0.0948 -0.1555
 5080W        W21214   6.167   7.924   9.766 -0.2130 -0.0498  0.1302
 5081W        W21215  15.234  17.851  13.712  0.3066  0.1366 -0.1927
 5082W        W21216   6.284   2.796   3.062  0.0563 -0.0768 -0.3045
 5083W        W21217   4.643  13.163   3.219  0.1675  0.1801  0.1989
 5084W        W21218   5.836   8.745   3.533  0.1382 -0.1076 -0.0843
 5085W        W21219   2.262   6.528  14.964  0.1273  0.1406  0.3214
 5086W        W21220  15.012   5.072  13.086 -0.2040  0.1453 -0.0892
 5087W        W21221   2.885   4.528  11.673  0.0680 -0.1845 -0.0740
 5088W        W21222  10.596  13.407   1.678  0.0333  0.1747  0.1206
 5089W        W21223  19.019   5.661  12.660 -0.1192  0.1800  0.1086
 5090W        W21224   7.030   2.815   3.794  0.0832 -0.0361 -0.0077
 5091W        W21225   0.447   3.039   1.215  0.0036  0.2411 -0.1780
 5092W        W21226  15.270  16.534   5.023  0.2709 -0.0650 -0.1218
 5093W        W21227   2.649  12.196  11.270 -0.3203  0.0958 -0.0746
 5094W        W21228  14.391   3.226   2.958 -0.2187  0.0283  0.0409
 5095W        W21229  10.080   7.906  12.309 -0.0423 -0.0095 -0.0838
 5096W        W21230  19.058   5.655  12.157  0.3141  0.1537 -0.0187
 5097W        W21231  15.593  18.616   1.102 -0.0747 -0.0417  0.1174
 5098W        W21232  17.010   0.102  13.229 -0.2647 -0.1660 -0.0105
 5099W        W21233   0.513   0.927   3.915 -0.0168  0.3888  0.1281
 5100W        W21234  18.315  11.419   2.667  0.2765 -0.4854 -0.1034
 5101W        W21235  18.083   5.052   4.254 -0.1322  0.0035  0.0019
 5102W        W21236  12.458  17.650  13.391  0.0193  0.1532 -0.4272
 5103W        W21237   9.105  10.017   0.270 -0.0839 -0.2108  0.0739
 5104W        W21238   5.146   1.140   4.428  0.2172  0.1666  0.0481
 5105W        W21239  12.497  14.345  12.653  0.0371 -0.2278  0.0439
 5106W        W21240  11.906   6.851   2.570 -0.3245 -0.1591  0.2252
 5107W        W21241  15.488  16.773   5.501  0.7216  0.1140  0.0808
 5108W        W21242  12.603   3.136  11.884 -0.0356  0.1403  0.0320
 5109W        W21243   1.075  11.784  14.246 -0.2016  0.0978 -0.0265
 5110W        W21244  16.878   3.014  10.685 -0.0191  0.1302 -0.0172
 5111W        W21245   7.377   7.943  10.348 -0.1017 -0.4039 -0.0294
 5112W        W21246   4.088   3.916  12.142 -0.0352 -0.1570  0.1952
 5113W        W21247   5.806  13.125  10.909  0.0142  0.0520 -0.0536
 5114W        W21248  10.804  11.579   2.732  0.1240  0.0004 -0.1201
 5115W        W21249  15.916  19.039  11.689 -0.0040 -0.1491  0.0801
 5116W        W21250  17.707  17.118   2.165 -0.2728 -0.0195  0.0559
 5117W        W21251   7.225  17.962   1.441  0.3428 -0.1772  0.0394
 5118W        W21252   0.662  10.275   0.804  0.1761  0.2299 -0.1819
 5119W        W21253   7.301  13.446   0.759 -0.1160  0.1919 -0.1335
 5120W        W21254   8.638   9.864   2.535 -0.0441 -0.0509  0.1272
 5121W        W21255  15.249  15.704   3.222 -0.3352 -0.1411 -0.1085
 5122W        W21256   4.868   1.194  10.304  0.0413 -0.0756 -0.0890
 5123W        W21257   6.496  18.984  14.209 -0.0536 -0.0170  0.2786
 5124W        W21258   8.019   5.139   3.073 -0.3422 -0.4073 -0.2796
 5125W        W21259  11.720   2.487  10.815  0.0601  0.0119 -0.3925
 5126W        W21260   5.672   4.450  13.221  0.2390  0.2844  0.0781
 5127W        W21261   6.662  18.567   0.783 -0.1633  0.0174  0.1210
 5128W        W21262  18.263  18.637   3.497 -0.0444  0.0130  0.0076
 5129W        W21263   6.070   8.536  10.842  0.0266  0.1605  0.3380
 5130W        W21264   0.540   5.209   5.207 -0.0135 -0.2765 -0.1576
 5131W        W21265  16.049  13.486   2.784  0.0924  0.0938  0.0351
 5132W        W21266  11.260   9.181   3.003  0.0547  0.2569  0.0621
 5133W        W21267  14.750  14.650   4.648 -0.1835 -0.0398  0.3397
 5134W        W21268  18.187   2.483   0.026  0.0370 -0.1661  0.1471
 5135W        W21269  12.080  14.962  14.878 -0.0125 -0.2596 -0.2848
 5136W        W21270   2.233  10.213  12.023  0.1882  0.1465  0.0495
 5137W        W21271   2.235  11.589  11.901  0.4525 -0.0550  0.0450
 5138W        W21272   5.295   2.858  14.095 -0.4843 -0.0570  0.1084
 5139W        W21273   6.542   5.275  12.310  0.0405  0.1810 -0.2766
 5140W        W21274  10.062   2.517   0.671 -0.0789 -0.0816  0.1564
 5141W        W21275  16.203   5.527   3.054  0.0778  0.0568  0.2024
 5142W        W21276   1.207   1.282  13.956  0.4049  0.0112  0.1562
 5143W        W21277  14.813   7.692  13.224  0.0008 -0.2471 -0.1011
 5144W        W21278  12.080  14.990   3.548  0.2064 -0.5259  0.2200
 5145W        W21279   0.584   7.169  14.455 -0.2262 -0.0139 -0.3366
 5146W        W21280  12.073  11.039   0.139 -0.0491 -0.4383 -0.0246
 5147W        W21281  18.752  14.581   2.625 -0.1183  0.0894 -0.1104
 5148W        W21282   2.427  18.279  12.193 -0.0788 -0.1248 -0.3457
 5149W        W21283  17.226  12.715   1.104 -0.0233 -0.0623 -0.1028
 5150W        W21284   9.308   8.511   0.331 -0.2363 -0.1372 -0.0889
 5151W        W21285   6.846  14.042  13.387 -0.0763 -0.1077 -0.1767
 5152W        W21286  15.455   2.847  13.589 -0.2219 -0.0523 -0.1886
 5153W        W21287  18.807   6.234   1.222 -0.0861 -0.1153 -0.2060
 5154W        W21288  11.485   3.879   2.776  0.1517  0.0788  0.1184
 5155W        W21289   5.296   6.578   1.092  0.3878 -0.2153  0.0669
 5156W        W21290  15.331  17.923   3.755  0.0184  0.0134  0.2531
 5157W        W21291  18.005   7.086   3.812 -0.0257 -0.0463  0.2807
 5158W        W21292  12.813  16.987   3.336  0.0721  0.2735 -0.0361
 5159W        W21293  12.932  15.748  14.715 -0.1954  0.3724  0.1616
 5160W        W21294   2.612  16.633  11.218  0.3711 -0.1162  0.0851
 5161W        W21295   1.549  12.551   1.119 -0.1237 -0.0379  0.0503
 5162W        W21296  14.268   9.809   4.123 -0.1345 -0.1122 -0.1703
 5163W        W21297   8.103  16.307   0.048  0.1172 -0.0199  0.1234
 5164W        W21298   5.978   6.045  10.167 -0.2553  0.2093 -0.2476
 5165W        W21299  11.485  16.102   2.916 -0.2281 -0.1740  0.1670
 5166W        W21300   6.482  13.078   4.683 -0.0552 -0.0850 -0.2103
 5167W        W21301  17.561  19.141   3.035 -0.0172  0.2221 -0.1916
 5168W        W21302  18.612  18.055   3.149 -0.2152 -0.0395 -0.3952
 5169W        W21303  16.623  16.364   0.679  0.1847 -0.0541 -0.2468
 5170W        W21304  15.374  12.005  13.494 -0.0301 -0.1122 -0.1115
 5171W        W21305  14.778   8.115  12.366  0.0786 -0.0448  0.0821
 5172W        W21306   7.869  13.823   1.821  0.0927 -0.0106 -0.0525
 5173W        W21307   2.777   2.915   5.606 -0.0230  0.2578  0.0552
 5174W        W21308  19.211   3.893  14.952 -0.0591 -0.0454  0.0205
 5175W        W21309   1.375   4.193   1.335  0.2395 -0.7056  0.3181
 5176W        W21310  13.101   4.864   4.676 -0.3401 -0.2245 -0.2624
 5177W        W21311  10.896   3.877  11.130  0.0589 -0.1078  0.0020
 5178W        W21312  14.206   0.239   3.054 -0.2201 -0.1023  0.1854
 5179W        W21313   2.505   0.660  14.187  0.0338 -0.1681  0.0830
 5180W        W21314   6.473   5.856   3.474  0.1349  0.0172  0.1713
 5181W        W21315  19.170  14.956  11.583  0.0514  0.3814  0.1298
 5182W        W21316  14.771   8.609  13.511 -0.4026  0.3543  0.0335
 5183W        W21317  13.512  16.209   1.807  0.0851 -0.0249  0.1217
 5184W        W21318  16.627   7.509   3.668 -0.0178  0.3816  0.0873
 5185W        W21319   5.585  17.914   1.748 -0.2325 -0.0056 -0.1703
 5186W        W21320   1.137  13.492   4.633  0.0293  0.5149 -0.1187
 5187W        W21321   8.109  14.941   0.601  0.0450  0.1596  0.2240
 5188W        W21322   8.184  16.327   2.297  0.2387  0.2555  0.0666
 5189W        W21323  13.818  17.540  14.307  0.0320 -0.2746 -0.1783
 5190W        W21324  17.044  15.370  14.377  0.3002 -0.0948 -0.0578
 5191W        W21325   4.051   7.276   2.933  0.0280  0.0801 -0.0158
 5192W        W21326  13.840   1.019   2.743  0.0330 -0.0166  0.0094
 5193W        W21327  16.077   3.994   1.945 -0.1910  0.0331  0.3805
 5194W        W21328  15.639  12.026   3.781 -0.0940 -0.1126  0.1582
 5195W        W21329   2.709   6.695   1.240  0.1428 -0.0765 -0.0408
 5196W        W21330  12.290  13.185  10.465 -0.2252  0.0130 -0.0508
 5197W        W21331   2.213   7.845   5.707 -0.2262 -0.5775  0.2773
 5198W        W21332   0.379  18.585  15.001  0.3668  0.1455  0.0990
 5199W        W21333   8.252  16.629   1.899  0.3307  0.1153  0.3357
 5200W        W21334   1.608  12.377  12.201 -0.3171  0.0798  0.1495
 5201W        W21335  11.212  13.896   3.127 -0.0946 -0.3184 -0.1876
 5202W        W21336  18.634   4.588   2.446 -0.2036  0.1956 -0.0315
 5203W        W21337   3.568  12.413  14.272 -0.3997  0.0164  0.0531
 5204W        W21338  16.203  15.259  12.033 -0.1403 -0.0953 -0.1128
 5205W        W21339   5.080   9.755  11.933  0.1080 -0.0625 -0.1824
 5206W        W21340  16.113  19.117   0.282  0.1080 -0.3997 -0.2154
 5207W        W21341  14.499   6.292   9.896 -0.1287  0.1372  0.1213
 5208W        W21342   7.244  14.861   4.464  0.1291  0.3101 -0.2751
 5209W        W21343   7.712  18.956  13.880 -0.2615  0.3069  0.4019
 5210W        W21344  13.878   9.378  14.046 -0.2862 -0.2172  0.4994
 5211W        W21345   5.353  16.709  14.295 -0.0442  0.0720  0.0503
 5212W        W21346   0.203   4.859   4.499  0.3837 -0.2382 -0.2600
 5213W        W21347   9.129   9.885   5.244 -0.0367  0.0334  0.0125
 5214W        W21348   8.476   1.741   3.563  0.0162 -0.0653  0.3836
 5215W        W21349   4.941  14.005   6.111 -0.5186  0.0266  0.1994
 5216W        W21350  16.961   8.726   3.957  0.2930  0.2132  0.0064
 5217W        W21351   0.391  14.891   5.271  0.2447  0.0843  0.4123
 5218W        W21352  16.702  14.702   5.745 -0.0570  0.1551  0.1116
 5219W        W21353  15.535   3.106   1.841 -0.1685 -0.2845 -0.2701
 5220W        W21354   6.160  12.923   3.376  0.1546 -0.0456  0.0630
 5221W        W21355   4.247  12.827   1.944 -0.2155  0.1883 -0.0313
 5222W        W21356  12.507  16.472  12.648  0.1045 -0.4533 -0.0685
 5223W        W21357  10.971   3.043  11.617  0.3088  0.1251 -0.3847
 5224W        W21358   8.643   4.960  14.900 -0.2546  0.1074 -0.0533
 5225W        W21359  19.207   1.410   2.837  0.1394 -0.0412  0.2292
 5226W        W21360  14.465   3.747  12.039 -0.1636 -0.0047  0.1367
 5227W        W21361   0.367   6.798   0.126 -0.0841  0.0608 -0.0246
 5228W        W21362   6.052  18.249   2.519  0.0091 -0.0587  0.0683
 5229W        W21363  17.297  14.826   3.848  0.1709 -0.0866 -0.2963
 5230W        W21364   9.473   6.831  11.729 -0.0330 -0.0651 -0.2724
 5231W        W21365  10.769   5.886  11.042  0.0437  0.1102 -0.1405
 5232W        W21366   6.224   8.138  10.185  0.0334  0.1551 -0.4189
 5233W        W21367   7.732   8.602  13.934  0.0497 -0.2407 -0.0495
 5234W        W21368  12.633  18.926   4.904  0.1439 -0.1302 -0.2012
 5235W        W21369   1.221  17.606  10.562 -0.4070  0.0462 -0.0645
 5236W        W21370  14.643  16.338   6.040  0.2342  0.0950 -0.0158
 5237W        W21371  17.812   1.104  12.458 -0.0566 -0.0517  0.2048
 5238W        W21372  13.433  12.762   1.484 -0.5434  0.3760 -0.0187
 5239W        W21373  12.330   9.336  13.735  0.1716 -0.2172  0.2458
 5240W        W21374  11.799   7.497  10.558  0.1804 -0.3037 -0.1082
 5241W        W21375   7.560  15.409   2.063  0.1073 -0.1465  0.1974
 5242W        W21376   4.568  14.465   3.748 -0.0987  0.1721  0.0941
 5243W        W21377  10.917   3.775   9.167  0.0881 -0.2225 -0.2255
 5244W        W21378   5.048   3.986  10.546  0.0625 -0.0726  0.0195
 5245W        W21379   8.725   6.918  14.799  0.0077  0.3802  0.2892
 5246W        W21380   1.730   8.402   0.841 -0.2825  0.1760 -0.3027
 5247W        W21381  15.138  17.097  11.498  0.6093  0.0721 -0.1149
 5248W        W21382  14.105   0.179   4.162 -0.0116  0.0344  0.3050
 5249W        W21383   8.244  17.093  10.480 -0.0688 -0.0912 -0.1275
 5250W        W21384  11.948  12.372   0.830  0.4116  0.0398 -0.2014
 5251W        W21385   7.430  15.544   4.498  0.0290  0.1361 -0.3203
 5252W        W21386   3.682   2.957  13.741 -0.1590 -0.2904  0.0525
 5253W        W21387   0.755   5.770  10.072  0.1925 -0.0092  0.4022
 5254W        W21388   2.136  13.234  12.136 -0.1077  0.0365  0.2047
 5255W        W21389  16.468   9.765   1.721 -0.0873 -0.2672  0.4978
 5256W        W21390  15.385  18.109  10.520  0.2594  0.0600  0.2585
 5257W        W21391   9.508   6.192  12.443 -0.1578 -0.4410 -0.3559
 5258W        W21392   9.789  17.062   1.678  0.2533 -0.0303 -0.1257
 5259W        W21393   6.662   4.482   2.269  0.1515  0.1752  0.2216
 5260W        W21394   6.518   8.652  12.014  0.1235 -0.1362  0.2257
 5261W        W21395  16.409  13.421   4.630 -0.3415 -0.2097 -0.0786
 5262W        W21396   0.182  10.584   5.698 -0.1244  0.1489  0.0986
 5263W        W21397   1.633   6.480  14.721 -0.1784  0.0710 -0.1855
 5264W        W21398   8.938   0.119   3.821 -0.1804 -0.0712 -0.2486
 5265W        W21399   7.771  18.449  13.562  0.0975  0.2039 -0.0441
 5266W        W21400   4.225   0.109   4.684 -0.2236  0.0436 -0.1753
 5267W        W21401   6.833  13.214  14.503  0.1543 -0.1870  0.0907
 5268W        W21402   9.745  18.780  11.374  0.1964 -0.2666  0.1787
 5269W        W21403  12.192   2.957  14.141  0.0208  0.4498 -0.1668
 5270W        W21404  13.341   8.223  11.209 -0.1436  0.0121  0.1095
 5271W        W21405   9.478   5.142   0.060  0.0641  0.0849 -0.0626
 5272W        W21406   7.999   2.158   0.902  0.2717 -0.2583 -0.0657
 5273W        W21407   3.583  12.643   0.137  0.1543 -0.0261  0.2595
 5274W        W21408   9.919  12.998   3.025 -0.1271  0.0268  0.0891
 5275W        W21409   6.527   6.409   9.322  0.2415  0.0398  0.0943
 5276W        W21410   2.977  16.131  11.498 -0.4671 -0.0246 -0.2988
 5277W        W21411   2.952   1.224  12.899  0.0623 -0.1097 -0.2305
 5278W        W21412  13.789  19.033   0.745 -0.0609  0.2337 -0.0162
 5279W        W21413  15.525  16.932  12.852  0.1051 -0.1231  0.2619
 5280W        W21414   2.106  17.411  11.514 -0.0087 -0.2125 -0.1824
 5281W        W21415  13.519  15.255   3.453 -0.0919  0.2744  0.2564
 5282W        W21416  13.770  11.072   4.941 -0.3004 -0.0798  0.1630
 5283W        W21417   8.070   1.439  11.213  0.1263  0.2584  0.5712
 5284W        W21418   3.749   9.716  10.152  0.0722  0.1087  0.1954
 5285W        W21419   1.103  12.296   4.479  0.0671  0.1232 -0.1874
 5286W        W21420   1.604  10.588  14.090  0.0154 -0.0235  0.0319
 5287W        W21421   9.187  11.044  14.009 -0.1511 -0.0574  0.2437
 5288W        W21422  12.242   5.581  14.718  0.0360  0.1586 -0.0983
 5289W        W21423   8.662   2.886   4.609 -0.1298  0.0788 -0.0430
 5290W        W21424   0.594   3.524   5.328  0.1568 -0.0644 -0.0136
 5291W        W21425   2.789   6.240  11.722 -0.1281 -0.0155 -0.1102
 5292W        W21426   0.545  13.161   1.054 -0.0870 -0.1382  0.5855
 5293W        W21427  17.821  11.909   2.856  0.1367 -0.3406 -0.0141
 5294W        W21428  18.099   8.760   0.803 -0.2733  0.0487 -0.4473
 5295W        W21429   6.946  10.264  12.035  0.1336 -0.1555 -0.1333
 5296W        W21430   2.991   8.005   3.457 -0.0577 -0.2623 -0.0332
 5297W        W21431   6.269   9.159   1.821  0.0798  0.2780 -0.0795
 5298W        W21432  14.057   7.807  10.856 -0.1227 -0.0709 -0.1791
 5299W        W21433  18.823   8.106   4.518 -0.3812 -0.1024  0.0832
 5300W        W21434   2.430  13.414  12.544 -0.0433 -0.2547 -0.0067
 5301W        W21435  18.861  11.278   0.383 -0.1443 -0.0690 -0.0503
 5302W        W21436   1.175   7.189   5.658 -0.1783 -0.0152  0.0140
 5303W        W21437   3.757  18.846   1.163 -0.0493  0.0716 -0.2740
 5304W        W21438  17.554   0.060   4.279 -0.0041  0.0924  0.1456
 5305W        W21439  11.197   1.329  13.555  0.1030 -0.0187  0.0454
 5306W        W21440   5.910  14.935   3.343 -0.1072 -0.1340  0.1904
 5307W        W21441   5.557  17.847   9.836 -0.1095 -0.1683  0.2000
 5308W        W21442   7.252   9.498  13.802  0.1294  0.4012  0.1146
 5309W        W21443   0.053   8.321   1.727 -0.0252 -0.2682 -0.0958
 5310W        W21444  17.086   8.238   3.774  0.0878  0.1850  0.1043
 5311W        W21445  17.582   3.866  13.236  0.2716 -0.1394 -0.1902
 5312W        W21446   1.460   0.979   0.788 -0.2020  0.0339 -0.0967
 5313W        W21447   2.172   8.030  11.043  0.1603 -0.1939 -0.1014
 5314W        W21448  19.143   6.068  14.933 -0.1696  0.1708  0.4479
 5315W        W21449  16.836   0.092  13.880  0.1450  0.1795  0.1154
 5316W        W21450   9.633   3.108  13.567 -0.1929  0.0135 -0.1186
 5317W        W21451   3.213   9.731  13.508  0.2371 -0.1464  0.0322
 5318W        W21452   2.065  13.377   1.767 -0.0687  0.4842  0.2840
 5319W        W21453  16.498  10.679  12.850 -0.4086  0.1772  0.1221
 5320W        W21454   8.604   3.795   0.682  0.2381  0.1629 -0.0264
 5321W        W21455  16.848  10.428   2.538  0.1354  0.1984  0.0220
 5322W        W21456  13.164  16.286  11.704 -0.1796 -0.2372  0.1510
 5323W        W21457  17.146  18.247   0.664  0.0955 -0.0815 -0.1881
 5324W        W21458  12.947  10.195   0.538 -0.3352  0.0308  0.3304
 5325W        W21459   8.171  15.927   0.296  0.1137 -0.1753 -0.2342
 5326W        W21460  10.531  18.454   1.883 -0.1245  0.0859  0.1054
 5327W        W21461  13.833  15.231   3.047 -0.3122 -0.0895  0.0004
 5328W        W21462   4.168  14.168   3.917 -0.1929 -0.1182 -0.3112
 5329W        W21463  12.918  14.155   5.876 -0.1550  0.1495 -0.4008
 5330W        W21464   7.817  16.957   9.749 -0.0293 -0.1549 -0.1497
 5331W        W21465  11.970  10.491   2.572  0.1701  0.1733 -0.1207
 5332W        W21466   9.042   9.899  11.734 -0.0240 -0.3886  0.0327
 5333W        W21467   6.249  16.233   2.502 -0.2086  0.1676  0.2498
 5334W        W21468  14.417  16.927   3.167  0.2597  0.1131  0.2020
 5335W        W21469  12.443   9.412  14.949 -0.0564 -0.0895  0.2258
 5336W        W21470   3.107  16.231  13.199 -0.0510 -0.0535  0.0396
 5337W        W21471   9.850   6.874  11.131  0.0367  0.0132 -0.1835
 5338W        W21472   3.896   0.603  12.209 -0.0049  0.0303 -0.2252
 5339W        W21473  15.953   5.254   0.079 -0.2277 -0.2872 -0.0810
 5340W        W21474   0.916  18.049  13.906 -0.1848  0.0314 -0.0899
 5341W        W21475   2.824  17.055   1.811  0.0683 -0.1149  0.1990
 5342W        W21476   6.087   9.943   1.082 -0.0269 -0.0682 -0.0160
 5343W        W21477  19.080   2.490   0.201  0.1639 -0.0388  0.0522
 5344W        W21478  16.876  15.246   2.462  0.0787 -0.0027  0.1026
 5345W        W21479   7.638   6.743  11.949  0.0555  0.0925  0.2741
 5346W        W21480   0.452   8.126  14.173  0.2177 -0.2912  0.2487
 5347W        W21481  19.084   7.955  11.940 -0.1085 -0.0422 -0.2051
 5348W        W21482   7.927   9.376  11.596  0.1071  0.2205  0.1315
 5349W        W21483   4.357   9.729   3.691 -0.0142 -0.3272  0.0299
 5350W        W21484   1.651   4.823  13.493  0.0908  0.3467  0.0516
 5351W        W21485  16.025  15.200   5.431 -0.1313 -0.0572 -0.0144
 5352W        W21486  16.948  16.126  11.517  0.1878 -0.0310 -0.2621
 5353W        W21487  13.241   3.605   3.585 -0.0325  0.1608 -0.0199
 5354W        W21488  17.174  14.002   3.357 -0.1873  0.2825 -0.0365
 5355W        W21489   2.514  14.167   5.708  0.2126 -0.1492  0.1321
 5356W        W21490   8.712   4.542   2.604 -0.2383 -0.0486 -0.1946
 5357W        W21491  18.720   1.395   1.288 -0.1358 -0.2757 -0.1030
 5358W        W21492   8.773  11.050  10.378  0.1896  0.0396  0.2511
 5359W        W21493  16.602   1.597  11.234 -0.0768 -0.1833  0.3683
 5360W        W21494   9.265   7.946  12.741 -0.1728 -0.0410  0.0397
 5361W        W21495  14.595  17.931   1.909  0.1407 -0.3402  0.2598
 5362W        W21496   9.615   1.105  13.093 -0.1693 -0.1787 -0.4479
 5363W        W21497   8.137   8.407   3.706  0.2190 -0.0392 -0.0330
 5364W        W21498  13.524  15.025   2.713  0.1748 -0.0011  0.1429
 5365W        W21499   9.899   4.083   0.178  0.3182 -0.0279  0.0926
 5366W        W21500   7.457   4.397   2.094  0.3190 -0.1055 -0.2297
 5367W        W21501   8.517   8.289  12.293  0.1320 -0.0515 -0.0249
 5368W        W21502  13.317  16.826  14.166  0.1472 -0.0012 -0.1970
 5369W        W21503   6.220   1.263  12.066 -0.2721  0.1590  0.0010
 5370W        W21504  12.288  13.964  11.016 -0.2977  0.3182 -0.2048
 5371W        W21505   3.170  12.227   3.714 -0.3364 -0.1134 -0.2939
 5372W        W21506  11.726  10.329  14.865  0.1599  0.1186  0.0388
 5373W        W21507  13.722  12.883  12.420  0.0702  0.1362 -0.1921
 5374W        W21508   6.352   2.943   1.336  0.2306 -0.1514  0.1503
 5375W        W21509  10.635   4.865   4.078  0.1028 -0.2556  0.0335
 5376W        W21510   7.122  14.512  11.327  0.0509 -0.0205 -0.0573
 5377W        W21511  14.336   9.991  13.859  0.0097  0.0177  0.2576
 5378W        W21512   7.682   9.153   1.906  0.0263  0.0753 -0.1992
 5379W        W21513   5.946  15.969  13.904  0.1063 -0.2117  0.0640
 5380W        W21514   6.071  12.912   2.869 -0.2874 -0.6402  0.0273
 5381W        W21515  12.519   0.683  14.539  0.3095 -0.0761 -0.1120
 5382W        W21516  11.964  11.116   1.314  0.2059  0.0204 -0.2411
 5383W        W21517  18.386  15.544  12.584  0.2787 -0.2240 -0.0191
 5384W        W21518   4.139  13.756   3.546 -0.0259 -0.3221  0.5258
 5385W        W21519   0.681   4.201   0.722  0.2013  0.2230  0.0742
 5386W        W21520  12.562  19.205   3.428 -0.0610 -0.2027  0.0510
 5387W        W21521   3.379   1.415  13.206 -0.0762 -0.0279 -0.4908
 5388W        W21522  18.113   3.546   1.320 -0.1896 -0.1083 -0.1162
 5389W        W21523  10.880   9.661  14.783  0.2585  0.0240 -0.0604
 5390W        W21524  17.971   3.780   2.211 -0.4523  0.2481  0.0638
 5391W        W21525  10.361  17.792  11.593 -0.1520  0.1224 -0.2255
 5392W        W21526  11.971   5.627   2.651  0.0020  0.0155  0.1198
 5393W        W21527  15.764  18.326   3.787  0.1729  0.1735  0.2265
 5394W        W21528   6.297   7.742  12.258  0.1246  0.3515 -0.4530
 5395W        W21529  14.472  15.892   4.422  0.1990  0.0723 -0.3018
 5396W        W21530   4.867   0.324   0.566  0.2180 -0.1909 -0.0391
 5397W        W21531   3.838   8.940   4.013 -0.1609 -0.0372 -0.0345
 5398W        W21532   6.240   3.374  13.137 -0.0315  0.1459 -0.2587
 5399W        W21533  14.519  13.721  10.684  0.1383 -0.0975  0.2287
 5400W        W21534  10.644   1.600  12.601 -0.1101 -0.0567  0.0220
 5401W        W21535   4.185   9.356   1.483  0.2572 -0.0597 -0.1052
 5402W        W21536  11.841   4.402   9.790 -0.0048  0.0665 -0.2409
 5403W        W21537   9.914   3.872  13.043 -0.1283 -0.1673  0.2378
 5404W        W21538   1.887  11.557   0.471  0.2521 -0.1470 -0.3108
 5405W        W21539   7.647   8.444  11.181 -0.2240 -0.1201 -0.4039
 5406W        W21540   6.417  17.119   5.539  0.0377  0.1215  0.3947
 5407W        W21541  14.252  11.386   0.627 -0.2493 -0.0628 -0.0996
 5408W        W21542   3.800   9.949  12.738  0.1595 -0.2158 -0.2450
 5409W        W21543   7.020  18.034  10.524  0.1104 -0.2325 -0.3219
 5410W        W21544   5.564  14.294   9.495  0.1344 -0.0081  0.1066
 5411W        W21545   9.031   7.157   4.020 -0.1589 -0.1631 -0.4920
 5412W        W21546   1.869   8.477   5.068  0.0288  0.1796 -0.0506
 5413W        W21547  14.571   7.153  10.838 -0.0823  0.1291 -0.0329
 5414W        W21548   0.422  13.670   5.128  0.1544 -0.0467 -0.5834
 5415W        W21549   1.587   2.963   2.833  0.2911  0.0549 -0.0513
 5416W        W21550   2.469   3.959  13.056 -0.0805 -0.1182  0.0285
 5417W        W21551  16.683  17.331   0.707 -0.0715  0.2131 -0.2923
 5418W        W21552   1.365   7.952   3.058 -0.0498  0.0633 -0.0016
 5419W        W21553   4.715  17.437   1.260 -0.0928  0.3724  0.0019
 5420W        W21554  11.540  14.474  13.557 -0.4050  0.2054 -0.0015
 5421W        W21555  17.949   7.154   1.279 -0.1909  0.2389  0.3768
 5422W        W21556  16.643  17.506  14.302 -0.1533  0.0990  0.0779
 5423W        W21557  18.808  13.105  14.382  0.2087 -0.3288  0.1271
 5424W        W21558   2.330   4.152   0.194 -0.2385  0.1778 -0.4609
 5425W        W21559   1.108   7.909   5.243 -0.1510 -0.1141  0.2844
 5426W        W21560  11.619  16.596   0.062  0.2307  0.2459  0.1018
 5427W        W21561  17.247   8.798   0.963 -0.2864 -0.0841  0.1193
 5428W        W21562   0.349   7.641   2.714 -0.1948 -0.1990  0.3244
 5429W        W21563  11.849   9.913  11.615 -0.0643  0.4276  0.0142
 5430W        W21564   8.942   9.986  14.858  0.0625  0.1018 -0.2067
 5431W        W21565   5.588   4.498   3.178  0.0007  0.5582  0.0246
 5432W        W21566   9.368   5.024   4.276 -0.2868  0.3031  0.0555
 5433W        W21567   3.865   3.942   2.257  0.3701 -0.2409  0.0380
 5434W        W21568  12.092   9.806   1.108 -0.0176  0.0613  0.0369
 5435W        W21569   9.167   0.083   3.307 -0.1093 -0.2330  0.1092
 5436W        W21570   7.630   2.293   3.795 -0.1387  0.1119  0.2665
 5437W        W21571  11.134  15.230   0.202  0.1850  0.0173  0.3351
 5438W        W21572   7.707   9.194  10.456 -0.1733  0.1186 -0.1849
 5439W        W21573  15.922   5.170  11.867 -0.2776 -0.0804  0.3606
 5440W        W21574  13.873  10.852  14.811 -0.2141 -0.2939 -0.0083
 5441W        W21575  11.971   4.926  13.342 -0.0091  0.4576 -0.0618
 5442W        W21576   6.699  15.541  11.863 -0.1055 -0.0645 -0.0930
 5443W        W21577  12.082   3.829   0.346  0.1852 -0.0216 -0.0731
 5444W        W21578  10.426   5.417   5.183  0.1491 -0.0395 -0.1057
 5445W        W21579   7.262   1.309  13.515  0.4493 -0.3241 -0.0940
 5446W        W21580  14.652  16.550  11.563 -0.0550 -0.0406  0.2148
 5447W        W21581   4.828   4.681   4.287  0.2259 -0.2490  0.0336
 5448W        W21582   4.933  11.129  13.552 -0.3202  0.0902  0.2430
 5449W        W21583  13.631  17.562   0.341  0.0869 -0.1169  0.0261
 5450W        W21584  14.177  12.248   2.622  0.0463 -0.1035  0.0720
 5451W        W21585   3.380   6.553   4.029 -0.0790 -0.0946 -0.3563
 5452W        W21586  12.321  12.007  12.314  0.0389  0.1595  0.0236
 5453W        W21587  13.315   3.488  12.318  0.0101 -0.0553 -0.1768
 5454W        W21588  10.590  16.051   4.432 -0.0511  0.0127 -0.0787
 5455W        W21589  12.736   8.739   3.556  0.2242  0.0916 -0.3504
 5456W        W21590   1.509   2.274   0.801  0.1435  0.1785 -0.0174
 5457W        W21591  13.147  10.376   3.782  0.2106 -0.2610 -0.1054
 5458W        W21592  13.559  14.018   3.136  0.4292 -0.0984 -0.1742
 5459W        W21593  11.095   4.980   3.629  0.2373 -0.2335 -0.3599
 5460W        W21594   9.592   7.048   3.001 -0.4922  0.1889  0.0555
 5461W        W21595   3.178  14.552  10.717 -0.1058  0.0233  0.3259
 5462W        W21596  11.242   0.833   4.727  0.0362  0.1153  0.1279
 5463W        W21597  19.208   2.969  11.736  0.0522 -0.1621  0.1248
 5464W        W21598  16.660  18.828   4.140 -0.1417  0.2164  0.1061
 5465W        W21599  17.442   3.557   4.080 -0.2284  0.2047  0.1118
 5466W        W21600   5.660  11.985   2.662  0.1038  0.1017 -0.1243
 5467W        W21601  11.294  17.733   2.030 -0.1242 -0.0122 -0.1378
 5468W        W21602  10.300  13.331  11.013 -0.0232  0.3311  0.0040
 5469W        W21603   6.682   7.879  14.585 -0.0805 -0.2000  0.2180
 5470W        W21604  12.433  18.814   3.720  0.2246 -0.2653 -0.1749
 5471W        W21605   2.368   8.877  10.513  0.4735  0.0324  0.0264
 5472W        W21606   3.869   5.353  13.949 -0.1320 -0.1345  0.0490
 5473W        W21607  16.915  11.279   3.562  0.0566 -0.0261 -0.1175
 5474W        W21608   9.110   9.013  10.071  0.0641 -0.3152 -0.2400
 5475W        W21609  17.919   3.031  13.433  0.4122 -0.0032  0.0752
 5476W        W21610  10.763  14.578   2.563 -0.1435 -0.0569 -0.0422
 5477W        W21611   3.793   7.664  14.836  0.0855  0.1170 -0.1116
 5478W        W21612  12.065  18.496   3.541  0.0603  0.0737  0.1150
 5479W        W21613   9.410   6.646   0.313 -0.0439  0.3102 -0.1442
 5480W        W21614   6.480  18.645   2.348  0.0480  0.0501 -0.0210
 5481W        W21615  15.049   1.167   0.934  0.0768 -0.2191 -0.2385
 5482W        W21616  12.688  12.858   2.589 -0.4150  0.1122  0.0337
 5483W        W21617  15.368  14.264   0.665  0.0026  0.4196  0.0473
 5484W        W21618  18.696  11.067  11.782 -0.2275 -0.0910  0.2802
 5485W        W21619   5.716  17.008   0.571 -0.5886 -0.1017  0.0491
 5486W        W21620   2.878   7.222  11.459  0.1660 -0.0601 -0.2196
 5487W        W21621  13.994  18.032  14.238 -0.0679  0.4145  0.0942
 5488W        W21622   8.170   1.953  14.445  0.0319  0.0685 -0.0895
 5489W        W21623   9.174   6.224   3.398  0.2986  0.2873 -0.1760
 5490W        W21624  13.543   9.388   2.475 -0.4484  0.1388 -0.1276
 5491W        W21625   1.902  18.245  11.219  0.1158 -0.1566 -0.1324
 5492W        W21626   7.269  16.861  10.769  0.0869 -0.1458 -0.0324
 5493W        W21627  17.600   3.573  10.952 -0.1966  0.0658  0.2843
 5494W        W21628  16.276  16.870  11.719 -0.1519  0.0847 -0.0062
 5495W        W21629   7.310  17.071  11.269 -0.1149  0.0802 -0.0213
 5496W        W21630  10.929   1.693   4.317  0.1379  0.1927 -0.1137
 5497W        W21631  10.428   3.441   1.539 -0.0104  0.0712 -0.0547
 5498W        W21632   3.236   5.550   2.782 -0.0933  0.1595 -0.1800
 5499W        W21633   2.437  15.304   0.115  0.0191 -0.0457  0.0186
 5500W        W21634   8.240  16.522  13.643  0.1275 -0.0082  0.2969
 5501W        W21635   4.693  10.953   3.746  0.0756 -0.1473 -0.2290
 5502W        W21636  17.439  18.196  12.766 -0.1659 -0.0262 -0.0485
 5503W        W21637  13.939   8.918  12.235 -0.5412  0.0209  0.1210
 5504W        W21638  10.822  11.063  14.768  0.0339  0.2158  0.0738
 5505W        W21639  11.281   3.937   0.564  0.2583  0.3835  0.2837
 5506W        W21640  10.809   7.783  14.585 -0.0407  0.2432  0.0351
 5507W        W21641  14.562   3.498  14.797 -0.0707  0.0603 -0.0816
 5508W        W21642   3.951  16.397  13.282  0.1784 -0.3243 -0.1635
 5509W        W21643   2.175   2.288  12.940 -0.2547 -0.0106 -0.0405
 5510W        W21644   7.405  14.964   1.773 -0.0221 -0.1005 -0.0682
 5511W        W21645   9.743   0.187   1.645  0.2132  0.0381 -0.2208
 5512W        W21646   8.499   5.055   3.848 -0.2442 -0.2720 -0.0116
 5513W        W21647  11.015   5.687   0.710 -0.2905  0.2566  0.2856
 5514W        W21648   3.869  16.526   2.839 -0.0818 -0.2829  0.1850
 5515W        W21649   3.269   0.396  13.110  0.1038 -0.0406 -0.2177
 5516W        W21650  16.896  15.946   4.549 -0.0005  0.0174  0.0482
 5517W        W21651  15.919  10.281  13.252 -0.2069 -0.0002  0.0283
 5518W        W21652  16.707  11.223   5.054  0.1691  0.4372 -0.1779
 5519W        W21653   3.668   0.203  11.143  0.0689  0.0011  0.3724
 5520W        W21654   6.701  10.753   3.509  0.2132 -0.1177 -0.0089
 5521W        W21655   3.918   7.218   4.375  0.2367  0.2970 -0.3159
 5522W        W21656   8.005   4.114  10.743  0.2485  0.2508  0.0752
 5523W        W21657   3.712  13.618  10.781  0.0874  0.0080  0.0142
 5524W        W21658   8.521   5.033  11.615 -0.2539 -0.0097 -0.2722
 5525W        W21659   0.009   9.875  14.654  0.0309  0.0090 -0.0671
 5526W        W21660   2.456  16.960  10.625  0.2265  0.0767 -0.1784
 5527W        W21661  19.089   7.616  14.929 -0.2828 -0.1678 -0.1732
 5528W        W21662   2.786  16.019   4.854  0.1762  0.1730 -0.4446
 5529W        W21663   0.539  12.874  14.605 -0.1473 -0.1021  0.0392
 5530W        W21664  12.812   9.704   0.578  0.0842  0.0345 -0.1729
 5531W        W21665  18.578   4.085   5.323  0.0787  0.2208  0.0162
 5532W        W21666   2.932   0.886  14.304  0.1623 -0.0433 -0.0551
 5533W        W21667   6.152   9.828  14.274  0.2511  0.1414 -0.2599
 5534W        W21668   5.503   5.677   0.283 -0.0118 -0.2587  0.0285
 5535W        W21669   6.384  17.333   4.036 -0.2031  0.2320 -0.1748
 5536W        W21670  11.598   0.492   2.676  0.0136 -0.2929  0.1517
 5537W        W21671  11.723   4.270  14.659 -0.0305  0.3197  0.0599
 5538W        W21672   4.191  13.864  13.265 -0.1268  0.0382  0.4208
 5539W        W21673  18.264  16.644  11.767 -0.1724  0.0439  0.1497
 5540W        W21674   1.937  18.248  14.734 -0.5826  0.0197 -0.3596
 5541W        W21675  14.830  11.146  11.791  0.2160 -0.3628 -0.1091
 5542W        W21676  17.830  14.584   1.590  0.2146  0.0156 -0.2828
 5543W        W21677   3.184  15.502   0.991  0.0604 -0.0542  0.2586
 5544W        W21678   1.272   0.301  13.568 -0.0869 -0.3070  0.1189
 5545W        W21679   9.424   3.751  10.800 -0.2924 -0.2208  0.1676
 5546W        W21680  10.685   2.890  14.071  0.1763 -0.1262 -0.5755
 5547W        W21681   9.826   5.518   1.332  0.0468 -0.1156 -0.2263
 5548W        W21682   0.979   9.031   5.402 -0.0083 -0.1692  0.1323
 5549W        W21683   9.298  18.774  14.213 -0.0589 -0.1863 -0.2102
 5550W        W21684   7.082   7.943   0.347 -0.1109  0.1244 -0.0777
 5551W        W21685   5.954   7.049   0.124 -0.5132 -0.4349  0.2096
 5552W        W21686  17.096   1.262   9.804  0.0363 -0.1528 -0.1551
 5553W        W21687  11.286  14.021  12.207 -0.2145 -0.3209  0.0241
 5554W        W21688  16.011  16.466  11.467 -0.1507  0.2174  0.3242
 5555W        W21689   2.459   9.649   0.768 -0.1305  0.0325 -0.3070
 5556W        W21690   4.680  13.733   3.268 -0.0454  0.0159 -0.2460
 5557W        W21691  17.149   3.293  13.923  0.2153 -0.1006  0.1117
 5558W        W21692  19.145  13.331  12.995 -0.3937 -0.1951 -0.1243
 5559W        W21693   4.758  10.075  11.708 -0.1560 -0.0894  0.1526
 5560W        W21694   5.532  13.595   1.211 -0.0649  0.2356 -0.0413
 5561W        W21695   9.163   7.019  14.447  0.0120 -0.0339  0.4404
 5562W        W21696  11.085   7.259   3.191  0.0736  0.0380  0.1616
 5563W        W21697   2.312   7.679  15.039  0.0755  0.3332  0.1396
 5564W        W21698   2.434  15.558   0.651 -0.0607 -0.4360 -0.0669
 5565W        W21699   2.708  10.500  10.204  0.0462 -0.0851 -0.0920
 5566W        W21700   0.641   8.481  12.091 -0.1294 -0.0711  0.1040
 5567W        W21701   4.846  13.354  14.125  0.0029 -0.3424  0.0226
 5568W        W21702  15.782  17.317  10.857  0.3708 -0.0469  0.3343
 5569W        W21703  10.527  13.195   3.047  0.1393 -0.2602 -0.4671
 5570W        W21704  13.688  18.491  12.570  0.1747  0.1222  0.1470
 5571W        W21705   1.344   8.943   1.351 -0.0132 -0.0823 -0.1394
 5572W        W21706   6.084   3.483   1.030 -0.3307  0.1928 -0.3559
 5573W        W21707   4.703  12.920  12.496 -0.3515  0.0539  0.0877
 5574W        W21708   6.854  16.418   3.841  0.2352  0.1854 -0.0500
 5575W        W21709   5.861   6.663  13.735 -0.0782 -0.3013 -0.2026
 5576W        W21710  12.310  10.967   4.645  0.2221 -0.1020  0.0948
 5577W        W21711   9.946   0.545   0.806  0.1346 -0.0774 -0.1327
 5578W        W21712   8.838   0.908  11.874  0.2817  0.0328 -0.3790
 5579W        W21713  14.023  15.560  14.478  0.2471  0.2229  0.2797
 5580W        W21714  17.614  13.785  11.430 -0.2415 -0.2201 -0.0171
 5581W        W21715   2.431  10.438   0.888  0.2273 -0.2880 -0.3107
 5582W        W21716   1.541   7.699  10.546 -0.1167 -0.1179 -0.0672
 5583W        W21717   6.833   6.354  14.339 -0.4616  0.0158  0.1054
 5584W        W21718  16.752   7.736  10.697  0.3208  0.1213 -0.0574
 5585W        W21719   9.751  14.478  14.555  0.1165  0.0391  0.1371
 5586W        W21720   6.240   5.957  11.830  0.1257 -0.0286 -0.3654
 5587W        W21721  16.785   4.515   1.530  0.2624  0.1476 -0.3793
 5588W        W21722  15.349  11.614   3.294 -0.3408 -0.2115  0.2659
 5589W        W21723  16.974  16.494   4.781  0.1689  0.0592 -0.1480
 5590W        W21724   6.615  14.380  11.024  0.2216  0.0788 -0.1444
 5591W        W21725   3.873  16.370  12.216 -0.0090 -0.1933 -0.2864
 5592W        W21726   8.774   3.797   4.067 -0.3370  0.0370  0.0538
 5593W        W21727  15.491   9.288   4.368  0.3124  0.2680  0.0105
 5594W        W21728   0.207   4.768  10.677 -0.0777  0.1339  0.1805
 5595W        W21729  10.833  10.247   1.296  0.0522 -0.0252 -0.0954
 5596W        W21730   8.031   3.643   3.054 -0.1939  0.1560 -0.1383
 5597W        W21731   2.051  15.473   1.009 -0.1177 -0.1496  0.0636
 5598W        W21732   4.382  17.622  12.502  0.0614  0.0750 -0.0641
 5599W        W21733  13.875  16.673  12.827 -0.3817 -0.0055  0.2577
 5600W        W21734  17.281  15.715  11.238  0.1314 -0.0548 -0.0891
 5601W        W21735   0.106  16.143   3.485  0.0735  0.0911  0.0400
 5602W        W21736  10.305  16.825   1.201 -0.1712  0.2474 -0.0328
 5603W        W21737  13.159  13.348  14.510 -0.1858  0.0066 -0.1517
 5604W        W21738  16.096  16.430  11.939 -0.1994 -0.1402 -0.0304
 5605W        W21739   1.953  15.361  13.291 -0.1575  0.0528  0.1329
 5606W        W21740  18.611  11.667   1.552 -0.1491  0.4866 -0.2040
 5607W        W21741   6.465   4.175  14.138 -0.3358  0.3420  0.2572
 5608W        W21742   3.684  15.639   0.829 -0.1408  0.1667  0.0332
 5609W        W21743   7.172  16.693   4.817  0.0045 -0.0907  0.0122
 5610W        W21744  16.287   7.630  10.936  0.0166 -0.1785  0.0093
 5611W        W21745   5.527   7.232  11.226 -0.0130  0.0794 -0.0962
 5612W        W21746   8.492  12.464   2.288 -0.1697 -0.0508  0.0786
 5613W        W21747  17.728  17.300   3.232 -0.0474  0.1504 -0.0053
 5614W        W21748  14.410   4.718  14.102  0.2595 -0.2199 -0.0098
 5615W        W21749  12.232  12.483  12.488  0.1884 -0.1281  0.1490
 5616W        W21750  10.185   3.838  13.517 -0.4375 -0.3810 -0.1121
 5617W        W21751   3.370   2.940   4.866 -0.1163 -0.2883  0.1654
 5618W        W21752   1.554   8.375  12.045  0.0847  0.2505  0.3366
 5619W        W21753  10.305   0.963  10.291 -0.0151 -0.3737 -0.2241
 5620W        W21754  12.215  10.260  14.033  0.3943 -0.1422 -0.1077
 5621W        W21755   1.714  11.727  14.817 -0.0105  0.1815 -0.4309
 5622W        W21756  18.819   8.720  10.408  0.0550  0.3593 -0.0857
 5623W        W21757  13.510  11.966  11.255 -0.2696 -0.2173  0.0210
 5624W        W21758   6.836  16.138  12.362  0.0411  0.0249 -0.0477
 5625W        W21759   6.007   9.508  10.467  0.3091  0.1221 -0.2281
 5626W        W21760   2.287  15.137  12.869 -0.0261 -0.1809 -0.1347
 5627W        W21761  13.972   9.107  14.869 -0.0474  0.0428 -0.2367
 5628W        W21762   8.346  15.084  13.911 -0.3120 -0.3135  0.1396
 5629W        W21763  14.113  15.362   1.137 -0.1010  0.2192  0.0501
 5630W        W21764   7.970   9.154  14.088 -0.1729 -0.1511  0.3125
 5631W        W21765  14.076   6.605  13.932 -0.0988  0.1775 -0.2783
 5632W        W21766  16.635   7.594  11.344 -0.0977 -0.0524  0.0600
 5633W        W21767   8.417  10.880   2.109  0.1115 -0.3623 -0.1918
 5634W        W21768   6.218   8.639  13.167  0.2016 -0.1115  0.1168
 5635W        W21769   7.265   9.336   2.327 -0.0946  0.0605 -0.0890
 5636W        W21770   0.943  17.479  14.021  0.3979 -0.1224  0.0481
 5637W        W21771  18.471   4.865   2.916 -0.2698 -0.1746 -0.3437
 5638W        W21772   1.309   1.485   0.167  0.0064  0.3300 -0.1219
 5639W        W21773   2.776  10.056   2.641  0.0485  0.2460  0.1579
 5640W        W21774   1.591  14.621   4.501  0.0335 -0.4278 -0.1210
 5641W        W21775  11.788  18.195  12.288 -0.0466  0.3517  0.0611
 5642W        W21776   0.515   0.599  10.641 -0.1094 -0.1601  0.1945
 5643W        W21777  17.854   1.490  13.588  0.2393  0.0065  0.0363
 5644W        W21778  10.169   5.794   3.282  0.0818 -0.3088 -0.0442
 5645W        W21779   1.193   6.783  11.092  0.1711  0.2056 -0.0901
 5646W        W21780   0.533  13.497  13.393  0.1354 -0.0407 -0.2918
 5647W        W21781   5.725  10.922  12.246 -0.1167 -0.2252 -0.0935
 5648W        W21782  16.685   7.045  13.827  0.1805 -0.1640 -0.4294
 5649W        W21783  17.459   2.545  13.918  0.0495 -0.0444  0.2383
 5650W        W21784   2.343  16.820   1.720  0.0885 -0.0310 -0.1642
 5651W        W21785   6.095   2.875  12.502 -0.0005  0.1765  0.1619
 5652W        W21786  12.214  14.496   2.220 -0.1363 -0.0130 -0.4174
 5653W        W21787   1.305   6.306  12.244  0.0099  0.0637 -0.2202
 5654W        W21788  17.897  14.056  13.578  0.0950 -0.0385  0.1740
 5655W        W21789  11.998  10.363  11.400  0.0487 -0.1233  0.1279
 5656W        W21790  15.576  18.002   2.866  0.0608 -0.1706 -0.1290
 5657W        W21791   0.951   0.753  13.971  0.1041  0.1315  0.0316
 5658W        W21792  16.037   0.929   3.401 -0.2348 -0.1742  0.0192
 5659W        W21793   5.002  15.888  12.562  0.2185 -0.4106 -0.2598
 5660W        W21794   2.604  10.491   9.339 -0.1443  0.1874  0.4482
 5661W        W21795   3.490  15.054  12.697  0.0502 -0.1419  0.0156
 5662W        W21796  17.153  17.739   3.553  0.0318 -0.2349 -0.1413
 5663W        W21797   1.361  14.048   3.715  0.0373  0.2139 -0.3856
 5664W        W21798   0.506   5.630   0.554  0.2169 -0.1789 -0.0079
 5665W        W21799  19.237  16.189  14.524 -0.2669 -0.0290 -0.1369
 5666W        W21800  12.085   7.898   2.738  0.0485 -0.0129  0.1604
 5667W        W21801   3.880  13.881   2.088 -0.1226  0.0055 -0.2805
 5668W        W21802   6.394  17.276  13.337  0.1631  0.0834  0.1853
 5669W        W21803  12.562   0.866  12.115  0.0911  0.2645 -0.0086
 5670W        W21804   5.651  16.535   4.108 -0.1961 -0.0778 -0.0375
 5671W        W21805  13.630  10.754   1.821  0.0716  0.0454  0.2487
 5672W        W21806   1.606  17.863  10.726  0.1178  0.0073 -0.0010
 5673W        W21807  18.736   5.303   1.268  0.0736 -0.1921 -0.0563
 5674W        W21808  18.839   9.580  12.758  0.3571 -0.1482 -0.0201
 5675W        W21809   0.847   3.205  11.339  0.1343 -0.0268  0.0178
 5676W        W21810   3.488  12.344  14.733  0.0113 -0.1694 -0.0532
 5677W        W21811   7.055  10.574   3.219 -0.1770  0.1145 -0.2487
 5678W        W21812  16.744   3.109  14.226 -0.2186 -0.1918 -0.0289
 5679W        W21813   3.142  15.721  11.225 -0.1878 -0.1207  0.1797
 5680W        W21814  10.731   4.226  13.102 -0.1198  0.0447  0.0480
 5681W        W21815   5.060  17.739  14.570 -0.1430 -0.2625  0.0830
 5682W        W21816  11.184   0.027  10.511 -0.2821  0.1665 -0.3460
 5683W        W21817   8.883   3.582  13.848  0.1815  0.0630  0.0225
 5684W        W21818  16.877  15.806  14.171  0.1798 -0.0644 -0.0489
 5685W        W21819   2.497   1.257   1.662  0.2554  0.1740  0.1328
 5686W        W21820  14.439   9.242   1.152  0.3388  0.3191  0.1836
 5687W        W21821  11.862   0.098  12.937  0.0209 -0.2556  0.0951
 5688W        W21822  14.241   4.713   3.764 -0.2512 -0.0406 -0.1075
 5689W        W21823   0.837  15.249  11.616  0.4011  0.0449 -0.2324
 5690W        W21824  18.215  11.736   4.277 -0.2707 -0.0513 -0.0561
 5691W        W21825   2.022   1.476  14.596  0.1076  0.3186 -0.2543
 5692W        W21826   1.875   4.370  12.117 -0.1429  0.1889  0.1138
 5693W        W21827   5.683   7.056  10.729  0.2480  0.0868  0.1706
 5694W        W21828  15.202  17.240   0.403 -0.0158 -0.0261 -0.1093
 5695W        W21829   9.293   7.805  10.825 -0.1798  0.0549 -0.0949
 5696W        W21830  11.497   5.499   1.481 -0.1671 -0.1159 -0.0695
 5697W        W21831   8.914  11.508   1.544 -0.1910  0.1142 -0.1882
 5698W        W21832  11.748   2.801  12.394  0.0162  0.0041  0.2388
 5699W        W21833   0.521   4.592   0.410  0.0593  0.3897 -0.1175
 5700W        W21834  18.531   1.308  10.241  0.1779  0.1347  0.2050
 5701W        W21835  12.498  10.797   3.320  0.1693  0.3044 -0.2129
 5702W        W21836  14.517  19.124   3.892  0.0670  0.1060  0.0941
 5703W        W21837  12.652   3.796  13.110  0.1621  0.2933  0.1566
 5704W        W21838   5.084  15.302  12.005 -0.0537  0.0986  0.3577
 5705W        W21839   9.609   4.034   4.389 -0.1270  0.0424  0.0395
 5706W        W21840   8.997   0.436  12.979 -0.0548 -0.3023  0.1219
 5707W        W21841   7.363  15.249   2.777  0.2376  0.1651 -0.1542
 5708W        W21842  14.818   2.710  11.685  0.0624 -0.1621  0.0830
 5709W        W21843  14.335   6.434  12.702  0.0835  0.0643 -0.2244
 5710W        W21844  11.254  11.690   5.177 -0.0737 -0.0075  0.1963
 5711W        W21845  17.311  10.084  11.770 -0.1098 -0.2784  0.1113
 5712W        W21846   7.412   8.787   4.263 -0.2236 -0.2176 -0.0036
 5713W        W21847   9.130   6.154  14.197  0.1226  0.0996 -0.2081
 5714W        W21848  10.674   0.553   1.942  0.0472  0.1178 -0.1874
 5715W        W21849   8.360   4.388  11.467  0.2652  0.1819  0.2941
 5716W        W21850  14.015  14.804  13.967 -0.0536  0.2358  0.2957
 5717W        W21851   2.954  14.455   0.969  0.1639 -0.0122 -0.2785
 5718W        W21852   2.460   0.032  13.118  0.1713  0.1932  0.0633
 5719W        W21853   6.545   0.692   3.484 -0.1614 -0.0181  0.4049
 5720W        W21854  11.697  16.269   4.481  0.0312 -0.0682 -0.1533
 5721W        W21855   3.266   5.519  14.913  0.2678 -0.0188  0.6532
 5722W        W21856   1.956   9.935  11.695 -0.1624  0.0355 -0.0367
 5723W        W21857   9.329   2.460  13.309  0.0434 -0.3283 -0.0823
 5724W        W21858  14.527   4.809   9.906 -0.0658 -0.2802 -0.1434
 5725W        W21859   0.482   6.803   4.287 -0.0339  0.3695 -0.0833
 5726W        W21860   9.450   5.604  10.404 -0.0062 -0.1346 -0.2586
 5727W        W21861   3.559   3.005   3.888 -0.1241  0.1800 -0.4076
 5728W        W21862   5.327   5.225   2.946 -0.0055  0.0722  0.2593
 5729W        W21863   5.696  14.147   2.706 -0.2542  0.0323  0.0603
 5730W        W21864  12.676   8.189   0.656  0.1685 -0.3404 -0.0999
 5731W        W21865  10.462   6.790   0.491 -0.1257  0.2898  0.0945
 5732W        W21866   5.516  13.832  11.268 -0.4694  0.3377 -0.0668
 5733W        W21867   6.210   0.843  10.386 -0.1022 -0.0400  0.1503
 5734W        W21868  16.739  17.431  14.799  0.0489  0.4619  0.1096
 5735W        W21869  14.857   5.496  12.656  0.1165  0.1834  0.2844
 5736W        W21870   6.586   0.703  11.717  0.0408 -0.0847 -0.1592
 5737W        W21871   6.766  12.262  12.188  0.4165 -0.0885  0.0974
 5738W        W21872  13.305  16.392   3.602 -0.0538 -0.0868 -0.3912
 5739W        W21873   5.430  10.292  12.937 -0.2301  0.1296 -0.2353
 5740W        W21874   6.642   1.260   0.838  0.0118  0.0424 -0.0230
 5741W        W21875   2.262  11.078   2.214 -0.1727 -0.0815  0.2500
 5742W        W21876  17.702  10.654  14.313 -0.0492 -0.0249 -0.1386
 5743W        W21877   8.219  15.957  12.605 -0.1684 -0.2560  0.0871
 5744W        W21878  12.676  17.728   1.166  0.1901 -0.1931  0.0886
 5745W        W21879   4.334  10.753  14.281  0.0198  0.0478  0.0530
 5746W        W21880  19.000   6.527  14.714  0.0687  0.0462  0.0439
 5747W        W21881   2.485  13.413   0.115  0.1428  0.0196  0.1465
 5748W        W21882   0.379  11.887   4.860  0.0064  0.0829 -0.1374
 5749W        W21883  10.309  15.455   3.080 -0.0674 -0.1405 -0.1853
 5750W        W21884   1.515  12.950   5.636 -0.2907  0.1363 -0.2754
 5751W        W21885  17.839  10.842  13.424  0.0751 -0.0971  0.4344
 5752W        W21886   5.938  18.124  11.468  0.4157 -0.1534 -0.0552
 5753W        W21887   8.061   1.727  12.256  0.1248 -0.2398 -0.5324
 5754W        W21888   4.953   0.011   0.150  0.0145  0.3288  0.0334
 5755W        W21889  15.741   5.666  11.903 -0.1610 -0.1096 -0.0413
 5756W        W21890  16.616  12.013  14.671 -0.2661 -0.3876  0.0562
 5757W        W21891  17.922   3.588  15.003 -0.2054 -0.0665  0.1635
 5758W        W21892  14.928   2.406   2.739 -0.3247  0.2439  0.0060
 5759W        W21893   0.044   4.472   0.535  0.0611 -0.0120 -0.4563
 5760W        W21894  19.102   3.154  11.284  0.2316 -0.0056 -0.3294
 5761W        W21895  16.721   6.321   1.379 -0.0138  0.2246  0.2050
 5762W        W21896   8.296   0.527   2.150  0.1796  0.0312 -0.1444
 5763W        W21897  15.411   3.577  10.398  0.3889 -0.1996  0.1754
 5764W        W21898   8.602  15.163   4.776 -0.0651  0.1823 -0.1292
 5765W        W21899   0.021  14.098   5.339  0.0530 -0.1902  0.5849
 5766W        W21900  13.417   6.411   2.789  0.2779  0.1076  0.1091
 5767W        W21901   7.143  17.447  14.451 -0.1012  0.0804 -0.0320
 5768W        W21902   2.029   2.775   4.587 -0.0350 -0.1776  0.0621
 5769W        W21903  12.791  18.669   0.940  0.0313  0.2320  0.1098
 5770W        W21904   2.356  14.852   4.297 -0.0117  0.1525 -0.0662
 5771W        W21905   8.664   2.477   1.377 -0.1840 -0.4337  0.1142
 5772W        W21906   4.127   9.908   0.653 -0.0143  0.0529  0.0358
 5773W        W21907  17.971  19.235   1.363 -0.1839 -0.0778 -0.1363
 5774W        W21908   1.121  18.317  14.299  0.1201  0.1937  0.1251
 5775W        W21909   0.864   5.557   1.259  0.0088 -0.3097  0.2231
 5776W        W21910   1.985  10.633   0.814  0.0392  0.0860  0.2520
 5777W        W21911   8.840  10.196  11.142 -0.0479 -0.1789 -0.0425
 5778W        W21912  16.295   8.013  10.650 -0.0422  0.1632 -0.1339
 5779W        W21913   5.763   0.137  10.660 -0.0959  0.0484  0.4945
 5780W        W21914   6.436   0.064   4.169  0.1447  0.1423 -0.1101
 5781W        W21915  13.152   5.007   1.076 -0.0347  0.4069 -0.1756
 5782W        W21916  12.342   7.206  11.650  0.1243 -0.2014 -0.1634
 5783W        W21917  17.640  11.225  12.664  0.0230 -0.0765  0.0586
 5784W        W21918   7.052  15.270   4.231 -0.1244 -0.3494 -0.0625
 5785W        W21919   0.535  10.988   4.877 -0.1522  0.1358  0.0920
 5786W        W21920  17.030   3.281   0.447 -0.1471 -0.2024  0.2337
 5787W        W21921   2.269  12.238   0.512  0.0499 -0.1858  0.0697
 5788W        W21922   4.399  13.211  14.952  0.0371 -0.1640  0.1827
 5789W        W21923   3.767  14.303   0.537  0.1696  0.0055 -0.0734
 5790W        W21924  14.616  17.591  10.520  0.2086 -0.1088 -0.4900
 5791W        W21925  14.377  11.651   1.045  0.0043 -0.0435 -0.2193
 5792W        W21926   4.285   4.544  13.019  0.2014  0.2455 -0.3309
 5793W        W21927   4.026   5.411   3.186  0.0983 -0.1696  0.2948
 5794W        W21928   9.190  16.817  13.685  0.0727 -0.1810 -0.3669
 5795W        W21929  18.510  12.492  11.535  0.2228 -0.2318  0.0468
 5796W        W21930  14.653  15.160   2.610 -0.3126  0.4322 -0.1058
 5797W        W21931   8.079   2.297  10.700 -0.0008  0.1721  0.0730
 5798W        W21932   8.149  11.610   2.849  0.2098 -0.2493 -0.2576
 5799W        W21933   2.476   3.605  14.478 -0.1483  0.3049 -0.0213
 5800W        W21934  10.878  13.512   1.303 -0.0998 -0.0273  0.1297
 5801W        W21935   8.248   1.354  14.104 -0.1020 -0.0981 -0.3964
 5802W        W21936   2.582  15.026  14.579  0.1291 -0.1585 -0.2173
 5803W        W21937   6.590  11.201   3.688  0.1393 -0.0635  0.1672
 5804W        W21938  18.655  17.648  14.345 -0.1839  0.0455 -0.0152
 5805W        W21939  17.611  12.751   4.484  0.2280  0.0701  0.0235
 5806W        W21940   1.498   9.256   4.444 -0.2829  0.0105  0.0465
 5807W        W21941  13.648  12.746  14.647 -0.0203  0.0057  0.3315
 5808W        W21942  13.685   6.598   0.071  0.1584  0.0214  0.1029
 5809W        W21943  16.419   2.436   0.606 -0.0726 -0.0326  0.0227
 5810W        W21944  13.116   8.629  13.091 -0.3030  0.0722 -0.2734
 5811W        W21945   0.649  19.240   1.127 -0.0865  0.2403  0.0334
 5812W        W21946  13.104  11.311   5.536  0.1043  0.0439  0.1310
 5813W        W21947  14.466   1.815   3.323  0.0833 -0.1119 -0.1134
 5814W        W21948   9.859  13.732  12.765 -0.3391 -0.1130  0.0817
 5815W        W21949   5.971   2.551  12.917 -0.3557 -0.4771 -0.2163
 5816W        W21950   5.835  15.208   1.949  0.1456 -0.1348  0.2461
 5817W        W21951  18.833   6.445  11.826  0.2062  0.2109  0.0041
 5818W        W21952  16.698   0.002   3.895 -0.1788 -0.0935  0.1194
 5819W        W21953   6.217   8.253  12.864  0.1882  0.0587 -0.1117
 5820W        W21954  18.298  10.793   1.385  0.6702 -0.1978 -0.1251
 5821W        W21955   2.948   4.789  11.250  0.0351 -0.0443  0.0276
 5822W        W21956  14.490  16.200  10.345  0.0079 -0.1116 -0.1896
 5823W        W21957  18.883  12.644  14.589 -0.6135  0.1718  0.0297
 5824W        W21958  16.503  15.217  10.604 -0.1082  0.0753 -0.0834
 5825W        W21959   6.153   0.064  11.032 -0.1356 -0.1233 -0.1361
 5826W        W21960   3.128  11.778   0.260 -0.0897  0.1432 -0.4039
 5827W        W21961   5.690  18.105  10.242 -0.0119 -0.2417  0.0975
 5828W        W21962   3.315   8.334  14.850  0.1758 -0.4808  0.0371
 5829W        W21963   5.225  14.079  14.926  0.0620  0.1422  0.2654
 5830W        W21964   6.934  14.247   1.476  0.3045 -0.2877 -0.0640
 5831W        W21965   1.310   1.816   3.065  0.2763  0.0702  0.2301
 5832W        W21966   3.430   6.393   0.021 -0.4983 -0.0276  0.0151
 5833W        W21967   4.452   3.355   1.185  0.2285 -0.0053 -0.0761
 5834W        W21968  11.269  14.272   4.299  0.2670  0.0281 -0.2668
 5835W        W21969  15.962   8.459   2.151  0.0850  0.2648 -0.1612
 5836W        W21970  14.974  18.892  14.070  0.2000  0.0219  0.0059
 5837W        W21971   3.170   5.021  13.347  0.1208  0.0171 -0.0369
 5838W        W21972   6.502  12.770   5.468  0.1873  0.0055  0.2329
 5839W        W21973  12.486   7.027  14.677  0.0116 -0.0199 -0.0567
 5840W        W21974  12.750  11.617   1.666 -0.0090 -0.0939 -0.2640
 5841W        W21975  16.326   0.732   4.212 -0.0516 -0.1953 -0.0652
 5842W        W21976   3.409   0.617   2.676  0.0588  0.0784  0.0145
 5843W        W21977   0.255   2.178   0.028  0.1887 -0.2279 -0.0083
 5844W        W21978   8.574   4.528   3.089 -0.0633 -0.1565  0.2617
 5845W        W21979   4.340   9.235  10.443 -0.1759  0.0294 -0.1316
 5846W        W21980  15.265  17.369  13.017  0.1284 -0.0473 -0.1309
 5847W        W21981  15.703   1.548   2.752  0.1203 -0.0799  0.1807
 5848W        W21982  17.429   9.728  12.053  0.0989 -0.0200 -0.1742
 5849W        W21983   8.221   1.105   4.914 -0.0696  0.1421  0.1608
 5850W        W21984   9.640   6.439  11.415  0.0588 -0.3382 -0.2188
 5851W        W21985   2.687   4.768   1.426 -0.1020 -0.0038 -0.1511
 5852W        W21986  12.697  16.459   3.574 -0.1230  0.1552  0.0929
 5853W        W21987   2.390   5.980   2.760 -0.0716 -0.0102  0.0491
 5854W        W21988  14.615  13.002   2.910 -0.0857 -0.3069 -0.1247
 5855W        W21989   5.332   1.575   0.972 -0.0827 -0.2537 -0.4291
 5856W        W21990   0.562   7.332   0.210 -0.3097 -0.2209  0.2553
 5857W        W21991  18.929  18.180   2.803 -0.2404  0.2422  0.2061
 5858W        W21992   6.470   1.869  13.870 -0.1969  0.0189  0.2490
 5859W        W21993   2.454   6.416   3.196 -0.1575  0.1558  0.0855
 5860W        W21994   5.569   6.890   3.930  0.0342 -0.0891  0.1256
 5861W        W21995  14.716  17.715  11.101  0.0129 -0.0311  0.1040
 5862W        W21996  17.410   9.912   3.083  0.0249  0.0625  0.0010
 5863W        W21997   2.984   9.118  13.459  0.0455  0.1309  0.0268
 5864W        W21998   3.881   8.780   2.080  0.0554  0.1986 -0.0663
 5865W        W21999   6.614  14.752   2.180 -0.0651  0.0143  0.4489
 5866W        W22000  18.054  17.905   0.053  0.2675 -0.2392  0.0204
 5867W        W22001   7.212   5.069   4.681 -0.0317 -0.3667 -0.1900
 5868W        W22002   3.132   5.328   0.788 -0.1125 -0.0275  0.2457
 5869W        W22003  16.931   3.556   3.144 -0.1186 -0.0351 -0.3812
 5870W        W22004  10.756  16.325   0.349  0.3009 -0.1218 -0.0459
 5871W        W22005   7.929  13.924  13.766 -0.1941  0.0535  0.4554
 5872W        W22006   1.990  10.863   1.781 -0.4025  0.4344 -0.0841
 5873W        W22007  14.256   9.861   3.595 -0.1019 -0.1762  0.2616
 5874W        W22008  19.161   9.326  12.366  0.0542 -0.4751  0.1475
 5875W        W22009   7.738  13.421  10.287 -0.0753  0.2489  0.0415
 5876W        W22010  18.421   0.909  11.115 -0.3280 -0.5096  0.0852
 5877W        W22011  14.356   2.213   3.578  0.0958 -0.0243 -0.0023
 5878W        W22012  12.905  15.976   2.867  0.0630 -0.3329  0.1026
 5879W        W22013  14.898  13.235  13.715  0.0307 -0.1332 -0.0622
 5880W        W22014  18.770  15.592   1.196  0.4299 -0.2519 -0.0508
 5881W        W22015   3.902  17.671   0.148 -0.1878  0.1534 -0.2291
 5882W        W22016   5.421  16.162   0.828 -0.0517 -0.0288  0.1190
 5883W        W22017  18.989   8.796   2.640 -0.1086  0.1319 -0.1026
 5884W        W22018   7.822   0.080  10.781 -0.2220  0.1472  0.0852
 5885W        W22019  13.871   4.469   3.504 -0.1086 -0.0454  0.0760
 5886W        W22020   2.929   9.184  11.169  0.3679 -0.0103 -0.1609
 5887W        W22021  11.634  17.739  12.134  0.2660 -0.0957  0.1305
 5888W        W22022  10.542  11.901  14.669 -0.2931 -0.2916 -0.1936
 5889W        W22023   0.431  18.839   5.229  0.0953  0.0217 -0.1449
 5890W        W22024   5.613  18.514   3.444 -0.1500 -0.1355 -0.1722
 5891W        W22025  16.868   8.747  13.406 -0.3812  0.1365  0.1262
 5892W        W22026   6.018   8.800   2.472 -0.3509 -0.0806 -0.1729
 5893W        W22027  18.472  12.798   2.984  0.0177  0.0843 -0.2433
 5894W        W22028  14.472  14.062   2.252 -0.2239 -0.2052 -0.1825
 5895W        W22029  17.027   3.553  14.340 -0.3335  0.2163 -0.1103
 5896W        W22030  14.249   8.418  10.815 -0.0326 -0.1946  0.0789
 5897W        W22031   9.486  10.331   1.283  0.2958  0.1802 -0.2212
 5898W        W22032  18.698   5.613   0.757 -0.1148  0.2404  0.0331
 5899W        W22033  12.066  18.294   5.247  0.1692 -0.3688 -0.0931
 5900W        W22034  18.804  16.313  11.089 -0.0106 -0.1086 -0.1079
 5901W        W22035   8.408  15.470   4.485 -0.1243  0.1762  0.0895
 5902W        W22036   7.616  13.391   0.384 -0.0731 -0.3067 -0.0003
 5903W        W22037  16.511  12.233  13.994 -0.1108  0.2068  0.1816
 5904W        W22038  14.844  15.869   4.733 -0.1346  0.0087 -0.1587
 5905W        W22039   5.817   6.518   4.126 -0.3451 -0.4235  0.1773
 5906W        W22040   1.685   7.440   4.397 -0.2443  0.0535  0.0836
 5907W        W22041   9.836  17.673  13.368  0.3132  0.0762  0.3167
 5908W        W22042   6.374  16.861   4.634  0.0348 -0.3042 -0.0435
 5909W        W22043  10.329   0.529   3.851 -0.4013  0.3677  0.1601
 5910W        W22044  13.516  11.565   5.207  0.1347 -0.0894  0.1286
 5911W        W22045   8.412   2.884  13.105  0.0193  0.2126 -0.1372
 5912W        W22046   3.335  18.088  11.941 -0.2273 -0.1318  0.1509
 5913W        W22047   9.180  18.752   1.122  0.0876 -0.0017  0.2573
 5914W        W22048   8.829  14.467   2.221  0.2749  0.2769 -0.0310
 5915W        W22049  14.892   9.101   3.058 -0.0901  0.3912 -0.1914
 5916W        W22050   1.935   2.227   1.062 -0.1010 -0.1592  0.0845
 5917W        W22051   3.163   6.052   0.223  0.1398 -0.0007 -0.0546
 5918W        W22052   2.340   8.558  12.335 -0.3360  0.2145  0.1604
 5919W        W22053  18.157   4.963  10.615 -0.0038 -0.0696  0.1976
 5920W        W22054  14.600   3.632   0.277  0.0380 -0.0603  0.2533
 5921W        W22055   0.424   7.648  14.337 -0.0747  0.0807  0.0516
 5922W        W22056   6.254   5.946  13.771 -0.0274 -0.1486  0.2166
 5923W        W22057   8.917  18.481  14.100  0.0280  0.0330  0.2592
 5924W        W22058   4.375  17.530  10.567 -0.0694 -0.0913 -0.0351
 5925W        W22059   0.990  12.525  11.791 -0.1184  0.1815  0.0214
 5926W        W22060  15.782  14.069   4.189 -0.1726 -0.4505 -0.3206
 5927W        W22061   2.749   8.747  10.843  0.1443  0.1816  0.1803
 5928W        W22062  13.864  15.435  10.599  0.0938 -0.2548 -0.3305
 5929W        W22063   4.686  16.244   3.773 -0.2264 -0.0485  0.2290
 5930W        W22064   2.535  14.745  14.035  0.1154  0.0011  0.1521
 5931W        W22065   9.654   4.122  12.218  0.1296 -0.1434 -0.1524
 5932W        W22066   4.191   8.356   1.913  0.1666 -0.2907 -0.0021
 5933W        W22067  17.206  13.720   2.905  0.1070 -0.1221  0.0504
 5934W        W22068  15.246   2.678  10.877  0.0269 -0.1633  0.2956
 5935W        W22069   9.909   0.919  14.596  0.3009  0.0707 -0.3008
 5936W        W22070   9.340  13.643   3.002 -0.0493  0.4400 -0.1763
 5937W        W22071  12.179   5.047   1.283  0.0420  0.1408  0.3374
 5938W        W22072   7.011  14.458  12.366  0.0081 -0.1242 -0.0182
 5939W        W22073   5.217   5.429  10.965  0.0493  0.2439 -0.1277
 5940W        W22074   9.821   5.205  12.088 -0.0595 -0.1168  0.1144
 5941W        W22075   5.019   3.362   1.124 -0.0370  0.0317  0.0590
 5942W        W22076  15.264   7.904  11.921  0.1666 -0.1481  0.1722
 5943W        W22077   6.798   9.972  11.658  0.0639 -0.1491  0.1595
 5944W        W22078   1.214  16.266  13.822 -0.1970 -0.0070 -0.0319
 5945W        W22079   3.303  13.705   4.136  0.4976 -0.1030 -0.0810
 5946W        W22080   4.309  18.118   2.560 -0.0349  0.1160 -0.2934
 5947W        W22081   5.134  10.954   4.067  0.2703 -0.1168  0.3311
 5948W        W22082  16.879   3.085   1.055 -0.0213 -0.0918  0.0216
 5949W        W22083  13.686  14.051   3.869 -0.0707  0.2533  0.3015
 5950W        W22084  13.254   8.312   2.432 -0.0738  0.0279 -0.1054
 5951W        W22085  17.939   4.506   1.067 -0.4986 -0.1180  0.2055
 5952W        W22086  11.381   8.907   4.705  0.0215  0.2887  0.2050
 5953W        W22087  11.451  10.521   2.522 -0.1127  0.0468 -0.0690
 5954W        W22088  13.396   0.234   4.802 -0.1505  0.3046 -0.1266
 5955W        W22089   2.222   7.701   4.898 -0.1988 -0.0459 -0.1548
 5956W        W22090  17.441  10.698  12.600 -0.0287  0.0573  0.2041
 5957W        W22091  10.255  16.433   4.971 -0.0031  0.0568 -0.0764
 5958W        W22092  12.863   3.586  14.304  0.0629 -0.0936  0.2423
 5959W        W22093   9.562  12.252  13.248 -0.1324 -0.1545 -0.1377
 5960W        W22094   6.444  10.625  13.643 -0.0205  0.2904 -0.3164
 5961W        W22095   5.446  11.849   1.159  0.4073  0.0372  0.0647
 5962W        W22096   9.469  19.182   5.251 -0.1960  0.1995 -0.1874
 5963W        W22097   5.934  18.048   9.145 -0.1101 -0.0097 -0.2970
 5964W        W22098  17.969  12.896   2.762 -0.0590 -0.0919 -0.0938
 5965W        W22099   6.951   6.968  10.123  0.0725 -0.0046 -0.1163
 5966W        W22100  15.463   6.755  12.337 -0.1524  0.0294 -0.0027
 5967W        W22101  11.653  14.742  10.880  0.0757  0.0270  0.3691
 5968W        W22102  14.360   7.693  12.239  0.1490 -0.2679  0.0048
 5969W        W22103   9.089  12.216  12.415  0.2818  0.1808  0.0103
 5970W        W22104   5.221   0.098  13.526  0.2199 -0.0913  0.2294
 5971W        W22105   2.522  15.353   4.219 -0.1126 -0.0967  0.3959
 5972W        W22106  11.400  15.590   1.003 -0.0513 -0.1442  0.0431
 5973W        W22107  13.944  17.866   3.910  0.1438 -0.0676  0.0663
 5974W        W22108   7.782   7.973  11.098  0.1299 -0.0009 -0.2056
 5975W        W22109   7.823   8.172  10.663  0.1150 -0.2596  0.6190
 5976W        W22110   1.836  10.883   3.733  0.1658 -0.0191 -0.2097
 5977W        W22111  16.659   4.077   3.702  0.0610 -0.1058 -0.0223
 5978W        W22112   6.516   3.789  11.294 -0.1387  0.0480  0.2017
 5979W        W22113   6.694   2.504  12.063 -0.1200 -0.3160  0.0747
 5980W        W22114  11.877   3.540   4.430  0.0419 -0.4347  0.2116
 5981W        W22115  18.525  13.331  11.773 -0.0978 -0.0741  0.2008
 5982W        W22116  17.111  14.510  12.107  0.1147  0.2050  0.0085
 5983W        W22117  11.414   4.629  13.676  0.0614 -0.2047  0.5610
 5984W        W22118  16.005  19.085   4.866  0.1366 -0.1225 -0.0064
 5985W        W22119  17.022  19.188   4.300  0.1683 -0.4585  0.0412
 5986W        W22120   3.690   1.595   2.043  0.0533 -0.1578  0.0995
 5987W        W22121  13.388   1.257  15.026  0.0794 -0.2189 -0.0548
 5988W        W22122  10.059   6.878  11.595 -0.0788  0.1970 -0.0304
 5989W        W22123   0.251  10.477   5.202 -0.4818 -0.4851  0.4116
 5990W        W22124  13.678   9.103  14.447 -0.1601 -0.2768 -0.0744
 5991W        W22125  10.255   4.373  12.862  0.3246 -0.1130 -0.0940
 5992W        W22126   1.358  12.392   2.531  0.0070  0.2395  0.5819
 5993W        W22127  16.881  19.237   2.194 -0.0469  0.0400  0.2067
 5994W        W22128  15.233  18.777   2.801 -0.1427  0.2551  0.0796
 5995W        W22129  18.612  11.693  13.566 -0.3529 -0.0763 -0.0774
 5996W        W22130   0.690  18.133   4.409  0.0054  0.1529 -0.2537
 5997W        W22131   2.968  13.209  10.857  0.0169  0.0721  0.0789
 5998W        W22132   2.287  10.255  14.402  0.0733  0.1344  0.1311
 5999W        W22133  17.252  19.202   1.251 -0.3329  0.0671 -0.0106
 6000W        W22134  10.933  13.157   3.385  0.3753  0.2356  0.1577
 6001W        W22135   4.697   8.802  14.365 -0.2407 -0.2862 -0.3777
 6002W        W22136   3.669   3.551  14.822 -0.3157 -0.2595 -0.2379
 6003W        W22137   5.812  15.083   1.154  0.0056  0.1848  0.0692
 6004W        W22138   1.615  14.801   5.201 -0.0113 -0.3352 -0.0360
 6005W        W22139  14.104   8.646   0.185 -0.0787  0.1809 -0.1902
 6006W        W22140  18.258  16.187  11.483 -0.0052 -0.1400 -0.3623
 6007W        W22141   4.303   1.023  14.228  0.0270  0.0413  0.0094
 6008W        W22142  14.282  15.882  11.345 -0.2386  0.0640 -0.1602
 6009W        W22143   7.331  11.902   3.612  0.0756 -0.1635  0.0924
 6010W        W22144   6.160   7.953  14.373 -0.0448 -0.0897  0.1575
 6011W        W22145   4.618  15.081  12.805 -0.2460  0.0001  0.1778
 6012W        W22146  13.428   9.607   3.154  0.3617 -0.4442 -0.0947
 6013W        W22147   6.242   5.687   0.989  0.1482 -0.0113  0.2598
 6014W        W22148  18.510  14.069  11.037  0.3196 -0.1044 -0.0989
 6015W        W22149  18.686   4.029  14.136  0.4436  0.1958  0.0583
 6016W        W22150   8.205   4.792   1.895  0.0111 -0.4171  0.1389
 6017W        W22151  18.655  12.804  10.706  0.0461  0.3543 -0.3143
 6018W        W22152   6.077   8.970   9.659  0.1250 -0.1574 -0.2527
 6019W        W22153   4.312  12.796   4.873 -0.1934 -0.1598  0.0545
 6020W        W22154  17.294  10.391   4.783 -0.0311 -0.3031  0.0357
 6021W        W22155   4.830   0.969  14.820  0.1661 -0.0043 -0.1251
 6022W        W22156   0.999  17.092   4.174  0.0539  0.1063 -0.1368
 6023W        W22157   5.016  18.398   3.486  0.2224 -0.0539  0.4136
 6024W        W22158  17.586  15.600   5.430  0.0066  0.0619 -0.2070
 6025W        W22159  15.670   9.603   3.695 -0.0216 -0.1999  0.0603
 6026W        W22160   7.110   0.623   3.612  0.1878  0.1455  0.3104
 6027W        W22161   7.018  13.457   1.921  0.1301 -0.2997 -0.1378
 6028W        W22162   7.552  15.607  11.991 -0.3093 -0.0911 -0.0450
 6029W        W22163   1.701  11.462   4.257 -0.0211  0.0108 -0.0848
 6030W        W22164   3.983   0.678  13.073 -0.2536  0.3280  0.0427
 6031W        W22165  15.578  10.839  14.722 -0.1120 -0.1856  0.1937
 6032W        W22166   4.964   1.919   2.225  0.2514  0.3109 -0.0986
 6033W        W22167  14.911   3.035   0.966 -0.0509  0.0994  0.2171
 6034W        W22168  17.830   9.960  13.714 -0.3534 -0.1160 -0.1583
 6035W        W22169   8.652  14.386  10.355 -0.2465 -0.2107 -0.0116
 6036W        W22170   3.681  18.719   0.153 -0.0651  0.3458  0.1571
 6037W        W22171  15.794  14.764  13.493  0.2634 -0.0138  0.1356
 6038W        W22172  13.709   7.133   3.523 -0.3756  0.0117  0.0658
 6039W        W22173  10.231   2.877  13.808  0.2250  0.1301 -0.1656
 6040W        W22174  12.485   2.547  10.054 -0.1035  0.3079  0.0763
 6041W        W22175  17.585  13.565   1.113  0.0169 -0.0448 -0.1811
 6042W        W22176   5.857  13.229  14.045  0.0142 -0.2782 -0.2569
 6043W        W22177  17.200   6.766   2.975 -0.1983 -0.1079  0.0706
 6044W        W22178   6.543   6.078  12.308  0.0936  0.1878  0.2417
 6045W        W22179   5.101  13.654   1.505 -0.0151 -0.0603  0.1960
 6046W        W22180   0.373  14.859   0.108 -0.1644 -0.0681 -0.0818
 6047W        W22181  15.977  14.549   5.221 -0.1472 -0.0089  0.2204
 6048W        W22182  18.459  17.000   5.256  0.0607  0.0145  0.2126
 6049W        W22183   0.807   0.440  14.847 -0.0994 -0.1203 -0.1154
 6050W        W22184   6.887  15.698  14.934 -0.2860 -0.2819  0.2088
 6051W        W22185  19.061  17.178   0.585 -0.0244  0.1374  0.2056
 6052W        W22186   7.099   7.261   1.004 -0.3076 -0.0120  0.0752
 6053W        W22187   3.505   7.314  12.311  0.0563 -0.0511 -0.0318
 6054W        W22188  13.487   5.058  14.357  0.3997  0.3219 -0.1472
 6055W        W22189  17.341   2.376  15.027  0.3456  0.5904  0.0233
 6056W        W22190  14.902  12.948  11.077 -0.0189 -0.2198 -0.0385
 6057W        W22191  17.507  17.684  12.832 -0.2227 -0.0694  0.0194
 6058W        W22192  16.406   3.195  13.841 -0.2669  0.1721 -0.1342
 6059W        W22193  17.538  13.738   4.593 -0.1703  0.0192  0.1228
 6060W        W22194   6.955  12.864   4.081  0.0204  0.2326 -0.0173
 6061W        W22195  11.844  18.934   0.192 -0.0913  0.2545  0.3614
 6062W        W22196   5.539  14.467  14.670 -0.0312  0.0782 -0.3718
 6063W        W22197   2.956   3.722  11.636 -0.1267 -0.0018 -0.0282
 6064W        W22198  12.956   5.088  14.493  0.1081 -0.1500  0.0816
 6065W        W22199   6.701  12.637  11.193 -0.4986 -0.2704 -0.4591
 6066W        W22200   6.513  13.208  12.373  0.0651 -0.1337  0.2322
 6067W        W22201   3.744  18.176   3.442 -0.1111  0.0427 -0.0707
 6068W        W22202   9.439  12.688   3.074 -0.3963  0.1412  0.0546
 6069W        W22203  18.881  16.548  12.931  0.1776  0.1413 -0.0751
 6070W        W22204   0.091   6.406  14.399  0.1314 -0.2323  0.2304
 6071W        W22205   6.278   6.955  13.935 -0.0305  0.3110  0.1055
 6072W        W22206  11.769  15.071   4.691  0.0440 -0.2119 -0.1576
 6073W        W22207   2.708  12.280  12.053 -0.1287 -0.0525  0.0886
 6074W        W22208  18.862   8.794   0.641  0.3478  0.2469  0.2214
 6075W        W22209   0.556  11.334  12.196  0.1746  0.1324  0.3210
 6076W        W22210  13.726   6.935  11.353 -0.0952 -0.1873 -0.2179
 6077W        W22211  16.843   9.306   1.594  0.0862 -0.2013 -0.0101
 6078W        W22212  10.380  14.266  13.374 -0.0330 -0.0356  0.2233
 6079W        W22213  18.838  14.546  14.695  0.1376  0.0849 -0.2315
 6080W        W22214  18.524   3.500  13.313  0.0428  0.0608  0.2636
 6081W        W22215  18.992  15.651  13.010  0.0282 -0.0314  0.1226
 6082W        W22216  16.559   4.609   4.432  0.0376 -0.0964  0.3473
 6083W        W22217   6.198  12.412   5.228 -0.2261 -0.0954 -0.0585
 6084W        W22218   5.534   7.100   1.602 -0.1611  0.1498 -0.0322
 6085W        W22219  15.640   8.116   3.836  0.0529  0.1995 -0.0175
 6086W        W22220  18.107   8.530  12.724  0.0186  0.3188 -0.3090
 6087W        W22221   6.897  17.911  14.457 -0.0321  0.1881  0.0010
 6088W        W22222  14.725   3.208  13.096 -0.3569  0.0096 -0.1299
 6089W        W22223  15.124  17.600  11.820 -0.0287  0.0813 -0.3152
 6090W        W22224   8.157   2.406  14.341  0.0876  0.0870  0.2115
 6091W        W22225  18.175  18.021   4.829 -0.0288 -0.0804  0.3028
 6092W        W22226   9.583  18.524  13.218 -0.1396 -0.0556 -0.0427
 6093W        W22227  15.371   6.371   2.303  0.0619 -0.1478  0.2591
 6094W        W22228   7.751  16.627   5.456  0.0576  0.3613 -0.0524
 6095W        W22229   6.260   4.074  13.587 -0.1437 -0.2465  0.2233
 6096W        W22230  11.807   4.163   3.018  0.0857  0.3748 -0.1236
 6097W        W22231   8.268  16.529   1.326  0.2446 -0.3126  0.2161
 6098W        W22232   0.774   0.528  12.645 -0.1135 -0.3884 -0.1203
 6099W        W22233  17.926  10.092   3.185  0.0878  0.2529 -0.0089
 6100W        W22234  17.232  13.075   2.229  0.1872 -0.0039  0.1438
 6101W        W22235   0.179  13.170   3.759 -0.0558 -0.0085 -0.1604
 6102W        W22236   9.358   4.057   3.287 -0.1951  0.1637 -0.0964
 6103W        W22237   4.749  18.553  14.188  0.3148 -0.0355 -0.3082
 6104W        W22238   2.515   3.681  13.957  0.3079 -0.0382  0.4715
 6105W        W22239   8.906  14.931   5.552 -0.4560  0.1474  0.1768
 6106W        W22240  12.191   4.762   0.460  0.2535  0.3056 -0.1064
 6107W        W22241  13.494   0.975  12.859 -0.0205  0.0474  0.0574
 6108W        W22242   3.500  16.925  14.811 -0.0435 -0.1422  0.1850
 6109W        W22243  12.916  10.868   1.131 -0.2475  0.0916 -0.3455
 6110W        W22244  10.930   3.586  11.761 -0.2695 -0.3109 -0.2366
 6111W        W22245  13.844   8.995   3.955 -0.1543 -0.3699  0.4539
 6112W        W22246   3.967  16.941   3.161  0.1107 -0.0291  0.2134
 6113W        W22247   2.295   2.870   5.864 -0.1426 -0.3298  0.0849
 6114W        W22248   8.976  15.872  13.482  0.0555  0.0466 -0.0471
 6115W        W22249   3.822   0.868  14.418  0.0315 -0.0769  0.2053
 6116W        W22250   3.276  12.339   5.055 -0.1194  0.0096  0.0345
 6117W        W22251  10.365   3.751   0.480  0.2755  0.0156  0.3376
 6118W        W22252   2.326   9.602   3.490 -0.2516  0.0252  0.1070
 6119W        W22253  13.726   7.002   9.059 -0.1117 -0.2564  0.1355
 6120W        W22254  14.699   4.084  12.901  0.2539  0.0779  0.0440
 6121W        W22255   5.707  11.012   5.506  0.1961  0.1102 -0.2145
 6122W        W22256  11.474   3.696  12.643  0.0659 -0.0964 -0.0675
 6123W        W22257  17.639   5.236   4.427 -0.0084  0.5127 -0.0135
 6124W        W22258  11.703   0.805   5.101  0.2105 -0.1615 -0.1529
 6125W        W22259   7.664  18.004   4.146  0.2147 -0.1558 -0.1709
 6126W        W22260  17.759  14.937   1.157 -0.0833  0.2314  0.4133
 6127W        W22261  17.490  13.322  11.483  0.0107  0.2478 -0.1942
 6128W        W22262   8.117  16.267  10.836  0.0256 -0.0452 -0.1897
 6129W        W22263   5.504  13.233  11.287  0.1912  0.0674 -0.1257
 6130W        W22264   6.893  17.142   2.777  0.0464  0.0700  0.3764
 6131W        W22265   8.324   3.688   4.313 -0.3609 -0.1165 -0.0287
 6132W        W22266  12.581   9.907   5.094 -0.1558  0.1349 -0.1760
 6133W        W22267  17.455   6.306   2.159 -0.5311  0.3691 -0.3502
 6134W        W22268   4.979   6.589   2.955 -0.0096 -0.0586 -0.0952
 6135W        W22269  18.085   9.300  10.646 -0.1675  0.2823 -0.0859
 6136W        W22270  12.494   4.419   9.182 -0.1629  0.2344  0.5178
 6137W        W22271  11.618  16.720   0.688 -0.0860  0.0824  0.0886
 6138W        W22272   4.514  11.950   3.546 -0.1168 -0.0037  0.2818
 6139W        W22273   3.070   8.464   1.715 -0.4488 -0.1688 -0.0109
 6140W        W22274   8.311  18.838  11.430 -0.1774  0.0117  0.0162
 6141W        W22275   6.935   5.074  14.647  0.2259  0.1258  0.0350
 6142W        W22276  10.285  15.166   2.635  0.0831 -0.3903 -0.3034
 6143W        W22277  13.420  10.653   4.775 -0.3072  0.2179 -0.4017
 6144W        W22278  11.476  18.579   0.230  0.0618  0.2334  0.0814
 6145W        W22279   8.252  18.826   2.251 -0.5509 -0.0409 -0.1435
 6146W        W22280  18.075   3.866  14.552  0.2439  0.3796 -0.0576
 6147W        W22281   0.449   6.628  10.527  0.1553  0.1495 -0.2325
 6148W        W22282   8.999   8.446  13.422  0.2698 -0.0121  0.0086
 6149W        W22283  15.738  16.488   5.119  0.2725  0.1126  0.0351
 6150W        W22284   6.472   6.525  12.507 -0.2942  0.1445  0.0461
 6151W        W22285  10.301   8.193  10.370  0.1516 -0.1043  0.0324
 6152W        W22286  13.445   8.545   1.594 -0.0768  0.1644  0.0046
 6153W        W22287   4.609  17.881  13.375 -0.1337  0.1987 -0.3768
 6154W        W22288   3.713  17.531   5.509  0.1725 -0.0113  0.3031
 6155W        W22289   0.102   0.038   1.732  0.0160  0.1202  0.1689
 6156W        W22290  11.072   6.570  11.764  0.0640 -0.1835 -0.7150
 6157W        W22291  15.595   4.276   4.738  0.5852  0.1176 -0.3264
 6158W        W22292  10.383  18.306   4.214  0.0810  0.2099  0.2522
 6159W        W22293   7.798   4.246  13.690 -0.1982  0.1613  0.0867
 6160W        W22294   2.676  16.842   3.238 -0.2472  0.1175 -0.1843
 6161W        W22295   1.546  18.295   2.416  0.1758  0.1654 -0.2158
 6162W        W22296  16.524  16.286  11.721 -0.4730 -0.0154 -0.0914
 6163W        W22297   1.680  15.843   0.013 -0.1038  0.1849  0.3313
 6164W        W22298   5.323   3.734  12.158  0.0258  0.1647  0.0760
 6165W        W22299  11.752  18.793   3.872 -0.2247  0.2520 -0.1298
 6166W        W22300  11.755   0.895   2.932 -0.2358  0.3308 -0.1142
 6167W        W22301   0.862  17.414  12.231 -0.4751  0.2414  0.1098
 6168W        W22302   2.490  17.654   3.955 -0.0389  0.3417 -0.3253
 6169W        W22303  10.598   8.858   3.412  0.2315 -0.0312 -0.1880
 6170W        W22304   2.963  15.635   0.442 -0.1600 -0.0343 -0.3367
 6171W        W22305  16.707   2.581  10.415 -0.3711 -0.0666  0.1594
 6172W        W22306   7.231  13.079   1.372 -0.0206 -0.1007 -0.1924
 6173W        W22307   5.854   7.735  13.504  0.0083  0.1057  0.1375
 6174W        W22308   5.830  17.987  13.420 -0.1073 -0.0049  0.0554
 6175W        W22309   2.067  17.343   1.318  0.0756 -0.0948 -0.1546
 6176W        W22310   4.467  14.536   2.613 -0.1531  0.3858  0.0481
 6177W        W22311   4.460   2.177   9.426 -0.0542 -0.2716  0.2921
 6178W        W22312  12.713   1.333  10.722  0.0291 -0.1161 -0.1674
 6179W        W22313  14.822   1.595  13.199 -0.1830  0.3572  0.0118
 6180W        W22314   9.613  12.688  12.965 -0.3257  0.0890 -0.1859
 6181W        W22315  13.413   1.871   2.409  0.1636 -0.4830  0.1326
 6182W        W22316   0.288  12.704  11.036  0.4679  0.2012  0.1322
 6183W        W22317  10.269  16.259  13.684 -0.3041  0.0524  0.1066
 6184W        W22318   0.962  11.013   4.679 -0.2709  0.2287 -0.3256
 6185W        W22319   0.394   2.217  13.310  0.1075  0.1684 -0.0895
 6186W        W22320   3.595  13.369   5.063  0.0516 -0.2139 -0.0540
 6187W        W22321   8.091   6.071   2.640  0.1765  0.0041  0.0913
 6188W        W22322   1.993  11.770   4.528  0.0022  0.0792 -0.1173
 6189W        W22323   7.310   7.313   3.387 -0.1499  0.2778 -0.0437
 6190W        W22324   5.857  17.654  14.188 -0.0979  0.0324  0.1223
 6191W        W22325  12.848  16.086  14.389  0.0559 -0.2568 -0.0985
 6192W        W22326  10.634  10.639   0.505 -0.2282  0.4339 -0.2199
 6193W        W22327  12.817   7.126   2.683 -0.4694 -0.0031  0.0597
 6194W        W22328  18.992   2.754  12.785 -0.5310 -0.0406 -0.1299
 6195W        W22329  10.345  18.702  14.149  0.1265 -0.1010 -0.1192
 6196W        W22330  12.715   4.298   3.357 -0.0022 -0.1257 -0.1244
 6197W        W22331   1.975   0.431  11.704 -0.1712  0.1008 -0.1342
 6198W        W22332   1.561   9.583  14.021  0.1936  0.0976  0.1002
 6199W        W22333  17.497  19.086  14.912  0.0438  0.1775 -0.1726
 6200W        W22334  18.360   0.788   3.404 -0.0103 -0.1302  0.0313
 6201W        W22335  19.034   6.879  14.317 -0.1479  0.1073 -0.0156
 6202W        W22336   2.870  11.684   2.008  0.1112 -0.4580 -0.1212
 6203W        W22337  14.601   5.607  13.849 -0.0836  0.3974  0.2722
 6204W        W22338   7.599   7.059  13.856 -0.2236  0.5263 -0.0758
 6205W        W22339  12.514   9.575   1.525 -0.2866 -0.2250  0.0173
 6206W        W22340   0.377  17.148   3.671  0.2461 -0.0425 -0.1592
 6207W        W22341   6.025   9.572   1.547  0.0394 -0.1603  0.2024
 6208W        W22342  13.180   8.736  12.024  0.1149 -0.0208  0.1847
 6209W        W22343   5.674  16.366  10.161  0.0952  0.3337  0.2854
 6210W        W22344   1.819   7.213   0.561  0.2544 -0.2326  0.2292
 6211W        W22345   2.230   2.466   4.254  0.2294 -0.1265 -0.0492
 6212W        W22346  13.792   8.904  10.629  0.0690 -0.1871 -0.1564
 6213W        W22347  16.517   3.858  14.370  0.0638 -0.2205 -0.0602
 6214W        W22348   0.380  11.715  11.908 -0.2904 -0.0200 -0.0417
 6215W        W22349   4.536  19.003  14.476  0.1220 -0.0530 -0.0772
 6216W        W22350   1.897  11.412   2.663 -0.0975 -0.0222  0.2941
 6217W        W22351  19.207  11.566  14.137  0.0878 -0.2916 -0.1457
 6218W        W22352   1.799   6.809  10.868  0.0756 -0.0991 -0.1122
 6219W        W22353   2.276  17.858  11.655  0.0086  0.1313 -0.2144
 6220W        W22354  11.255  16.855   4.550  0.1200  0.1691  0.2308
 6221W        W22355   4.006  19.206   9.637  0.3207 -0.0945 -0.1230
 6222W        W22356   9.860   7.766   9.360  0.1132 -0.3284 -0.1007
 6223W        W22357  11.155   9.176   3.469 -0.2912 -0.3093 -0.0701
 6224W        W22358  10.043  17.023  13.667  0.0923  0.0683 -0.1681
 6225W        W22359   8.448   2.588   0.097 -0.0356 -0.2874  0.2615
 6226W        W22360   4.684  10.587   1.066 -0.2437  0.0332  0.2176
 6227W        W22361  11.727  10.088   2.737  0.0434  0.2074 -0.0674
 6228W        W22362   4.191  12.921  11.694 -0.5336 -0.1063  0.1171
 6229W        W22363  12.876  10.705   4.739 -0.1243 -0.1305  0.2032
 6230W        W22364   9.410  13.114  11.948  0.0395 -0.3075  0.2366
 6231W        W22365   3.184   0.697   1.731  0.2649  0.2423  0.2695
 6232W        W22366  11.618   6.632   0.811 -0.1482 -0.0768  0.1502
 6233W        W22367   1.280  14.978  13.051 -0.0725 -0.1231  0.0072
 6234W        W22368   5.040   1.805  12.774  0.0114 -0.0527  0.3369
 6235W        W22369  13.673  14.839   3.780 -0.4498  0.1384  0.1067
 6236W        W22370   6.772   9.365   4.052  0.2312 -0.1419  0.2837
 6237W        W22371   3.493   6.246   4.778 -0.1690 -0.3049 -0.0787
 6238W        W22372  17.618  18.614  14.845 -0.0670 -0.1826  0.1943
 6239W        W22373  14.091  11.243   1.080 -0.1994 -0.2389 -0.4962
 6240W        W22374  10.470  16.294   2.875 -0.0460 -0.4672  0.2533
 6241W        W22375  19.011   6.958   3.230 -0.1702  0.2264  0.1630
 6242W        W22376   6.409  15.912  12.265 -0.1317 -0.0746  0.3348
 6243W        W22377  14.801   2.380   3.748 -0.1532 -0.1231 -0.2762
 6244W        W22378  16.721  12.395   5.727 -0.3457  0.3009 -0.1927
 6245W        W22379  13.256   4.775   5.155  0.0378 -0.0437  0.2353
 6246W        W22380  10.723  16.175  11.029 -0.0038  0.2210  0.0425
 6247W        W22381   7.796   7.498   1.577 -0.0484  0.1368 -0.3376
 6248W        W22382  16.569   8.349   4.304  0.2510 -0.2120  0.0848
 6249W        W22383   1.783  19.125   2.914 -0.3283  0.0037  0.0871
 6250W        W22384  16.993   7.254  10.685  0.0456 -0.1788  0.3404
 6251W        W22385  14.683   7.802   2.575 -0.0256  0.2925 -0.1312
 6252W        W22386  12.247  10.796  12.784 -0.0324 -0.0575  0.0989
 6253W        W22387   1.589   6.714  12.225  0.1494 -0.0619  0.3700
 6254W        W22388   7.953   7.248  11.689  0.3324 -0.0909  0.0773
 6255W        W22389   5.636   8.811  12.493 -0.1345  0.2442 -0.1320
 6256W        W22390  11.487  18.827  11.391  0.0964 -0.0281  0.0059
 6257W        W22391   3.295  10.943   4.539  0.0432  0.1147  0.1473
 6258W        W22392   7.980   6.500   0.494 -0.0324  0.2630  0.1688
 6259W        W22393  11.183  17.880  13.232 -0.0589 -0.2447 -0.2728
 6260W        W22394  15.291  15.241   4.202 -0.0614 -0.0598 -0.0102
 6261W        W22395  18.371   8.336  14.243  0.1985 -0.0554  0.4883
 6262W        W22396   3.190   8.099  10.899 -0.0568  0.1474 -0.0050
 6263W        W22397  14.977   2.731  14.503  0.3679  0.3182  0.3022
 6264W        W22398  11.013  17.799   4.243 -0.1576  0.0713 -0.3283
 6265W        W22399   8.168   9.894  14.568 -0.1379 -0.1299  0.0288
 6266W        W22400  11.413   3.855  13.223 -0.1765 -0.2277  0.2860
 6267W        W22401  16.917  16.666  13.183 -0.2881  0.1628  0.0254
 6268W        W22402  14.363  15.899   1.294  0.0124  0.2794  0.0803
 6269W        W22403  12.930   5.243   4.351 -0.0533 -0.1805  0.2475
 6270W        W22404  16.319  17.886   1.967 -0.0697  0.2662 -0.0940
 6271W        W22405  18.638   6.236   2.920  0.0381 -0.1034  0.1240
 6272W        W22406  12.215  15.630  14.300 -0.0910 -0.3392  0.0588
 6273W        W22407  17.595  15.340  11.983  0.2877 -0.0322 -0.0688
 6274W        W22408   0.844   2.642  13.902 -0.1521  0.3734 -0.0164
 6275W        W22409   7.422  14.034  11.192 -0.0148 -0.0026  0.2523
 6276W        W22410   2.919  15.363  10.973  0.1637  0.2559 -0.0854
 6277W        W22411  10.279  16.018   5.325 -0.2357  0.1356  0.1839
 6278W        W22412   1.539  12.234  10.076 -0.2414  0.0365  0.0773
 6279W        W22413   4.975   2.737   0.659 -0.0988 -0.3910  0.0753
 6280W        W22414   3.438  19.151   0.140 -0.5332 -0.0912  0.0894
 6281W        W22415  18.261  13.561   9.438 -0.2190 -0.3674 -0.2499
 6282W        W22416   0.842  16.438  12.365 -0.0340 -0.2476  0.1463
 6283W        W22417   6.988   5.624  11.529 -0.1149 -0.0093  0.0737
 6284W        W22418  12.893   4.615   1.293  0.1301 -0.1592 -0.0881
 6285W        W22419   9.200  14.183  13.826  0.1519  0.0942  0.4464
 6286W        W22420  13.444   3.075   0.341 -0.0553 -0.3337  0.0854
 6287W        W22421  14.297   6.378   4.450 -0.0105  0.0761  0.1308
 6288W        W22422   7.631  14.526   5.294  0.1107  0.4419  0.0442
 6289W        W22423  16.399  18.319  11.880 -0.2980 -0.0843 -0.0555
 6290W        W22424  10.263  14.317   3.039  0.0486  0.3572 -0.1278
 6291W        W22425   2.568  18.889   4.779  0.1864 -0.0815  0.1265
 6292W        W22426  13.720  18.541   4.158 -0.3881 -0.1821  0.1718
 6293W        W22427  18.541  16.013   0.244 -0.1257 -0.0827  0.0388
 6294W        W22428  15.313   1.970  12.336  0.1981  0.1194  0.2689
 6295W        W22429   1.878  14.937   4.240  0.1513  0.0215  0.1621
 6296W        W22430  16.115   0.749  11.902 -0.0145 -0.1486  0.1786
 6297W        W22431  10.279  17.139   0.525  0.1873 -0.0255  0.0573
 6298W        W22432   5.901   6.072   2.864 -0.1167 -0.1431 -0.2034
 6299W        W22433  12.588  10.463  12.240  0.0518 -0.0768 -0.0284
 6300W        W22434   8.965  16.547  10.597  0.1917 -0.0828 -0.2265
 6301W        W22435  16.780   3.587   1.817  0.1091 -0.1139 -0.4851
 6302W        W22436  11.352   5.313   3.258  0.0292 -0.0625 -0.0350
 6303W        W22437  17.992   9.786  12.666 -0.1374  0.1652 -0.0859
 6304W        W22438   0.816  11.315   1.872  0.1788 -0.5366 -0.0494
 6305W        W22439   9.646   1.391   3.274 -0.1030 -0.1067  0.0869
 6306W        W22440   3.081   7.234   0.532  0.0084 -0.2305  0.1088
 6307W        W22441  17.701   3.294   1.238 -0.1895  0.4319 -0.1462
 6308W        W22442   3.479   4.381  13.983 -0.0728 -0.1343 -0.2226
 6309W        W22443  10.031   5.169   5.306  0.2611 -0.0097  0.1513
 6310W        W22444  15.810   2.555   3.260  0.1328 -0.0948 -0.4087
 6311W        W22445   3.949  14.693  12.568  0.4332  0.0197  0.2581
 6312W        W22446  10.540   6.285   2.168  0.1181  0.2625 -0.1729
 6313W        W22447  14.137  18.761  12.367 -0.3530  0.1294 -0.0674
 6314W        W22448   5.758   2.462  10.668  0.0924 -0.1327 -0.1091
 6315W        W22449   4.301   5.646  13.716 -0.3175 -0.0248  0.0046
 6316W        W22450  11.670   8.807  13.291 -0.4046 -0.1444  0.1552
 6317W        W22451  13.774  15.879   4.413 -0.3090  0.1525  0.0458
 6318W        W22452  15.932   8.293  10.698 -0.0658 -0.2525  0.1637
 6319W        W22453  15.688  11.686   4.277 -0.2070 -0.3333 -0.4502
 6320W        W22454  15.161   6.801   0.389 -0.0939  0.2246  0.0812
 6321W        W22455   2.078  12.617   0.151  0.2891 -0.0298 -0.2646
 6322W        W22456   1.695  19.097   3.512  0.1306 -0.0968  0.3061
 6323W        W22457   2.896   8.636  11.329  0.1222 -0.2451  0.2760
 6324W        W22458   5.367   9.754  10.964 -0.1491 -0.0995  0.2069
 6325W        W22459   9.865   1.260   1.846  0.0740 -0.0133 -0.0105
 6326W        W22460  15.083  10.594   4.896 -0.3039 -0.1209 -0.1724
 6327W        W22461  11.419   5.887   0.354  0.2595  0.2658 -0.3341
 6328W        W22462   8.294   1.438  14.697 -0.2575 -0.2541  0.1039
 6329W        W22463  17.312   7.625  10.625  0.1441 -0.1078 -0.0990
 6330W        W22464  18.974   1.646   4.787 -0.1041 -0.0825 -0.1030
 6331W        W22465  13.639  13.413   5.955 -0.0417  0.0949  0.0993
 6332W        W22466  10.078  10.939   4.304 -0.0883  0.0057 -0.0385
 6333W        W22467   9.771  17.315  12.382  0.1152 -0.5406 -0.2430
 6334W        W22468   1.853   1.925  13.152  0.0124 -0.1564  0.0231
 6335W        W22469  15.804   1.048  11.298 -0.0500  0.0382  0.1426
 6336W        W22470   8.959  14.064   1.487 -0.2553 -0.2939 -0.1112
 6337W        W22471  18.354  13.835   9.863 -0.0706 -0.0425  0.0254
 6338W        W22472   5.458   7.968  13.710  0.1103 -0.2050 -0.0161
 6339W        W22473   4.722   1.380   4.198 -0.0796  0.0005 -0.1184
 6340W        W22474  12.862  12.158   0.511  0.1762 -0.1247  0.1512
 6341W        W22475   1.081   8.371  14.628 -0.1032  0.1701 -0.1419
 6342W        W22476   7.571   9.210   4.487 -0.1640  0.0597  0.5357
 6343W        W22477  16.720   7.279   0.962 -0.2463  0.0492 -0.1106
 6344W        W22478   9.802   6.601   1.277  0.0362 -0.1957 -0.0182
 6345W        W22479   4.105   0.962  11.831 -0.1525  0.0444  0.1235
 6346W        W22480  12.144  17.533  13.824  0.2785 -0.0123 -0.0594
 6347W        W22481  17.192  15.870   1.180 -0.4155  0.0863 -0.0831
 6348W        W22482  15.687  10.214   0.933 -0.1440 -0.1081 -0.1614
 6349W        W22483   8.772   3.844  14.449 -0.0188 -0.0014 -0.1556
 6350W        W22484   6.626   4.533  14.490  0.0557 -0.1147  0.4385
 6351W        W22485   1.083   5.492   2.530 -0.1030 -0.1294  0.3798
 6352W        W22486  17.382  15.933  13.283 -0.0921  0.0429 -0.2918
 6353W        W22487   9.067   4.117   1.666 -0.1083 -0.0437  0.0328
 6354W        W22488  13.993   3.353   4.687 -0.3198  0.0634  0.0816
 6355W        W22489  16.889   9.474  12.745  0.0201  0.3865  0.1220
 6356W        W22490  17.572   7.649  11.032 -0.0133  0.2052 -0.2892
 6357W        W22491  12.275  13.780   6.145  0.1710 -0.2765  0.0910
 6358W        W22492  14.200   1.893  13.846 -0.2563  0.0101  0.0700
 6359W        W22493  17.946  15.491  12.388  0.0469  0.3209 -0.1725
 6360W        W22494   4.390   6.378  15.012  0.0703  0.0201  0.0182
 6361W        W22495   1.204  18.796   2.637 -0.0646  0.0418 -0.3471
 6362W        W22496   8.931  17.003  14.523  0.0574 -0.2722 -0.0549
 6363W        W22497  17.632   8.446   0.807  0.3961  0.2218  0.1715
 6364W        W22498  15.499   5.821  12.358 -0.0699 -0.0782 -0.0946
 6365W        W22499   9.694  12.121  11.389  0.1069  0.0292  0.1030
 6366W        W22500   4.718  11.462   2.314 -0.0530 -0.1882 -0.0391
 6367W        W22501   3.435   5.904  11.009 -0.1649  0.1291  0.1080
 6368W        W22502  18.650   5.273  11.929 -0.2357 -0.2099  0.1530
 6369W        W22503  11.142  14.380   3.512  0.1903  0.2514 -0.1488
 6370W        W22504   4.951  12.065  14.469 -0.3763 -0.1684 -0.0702
 6371W        W22505   3.386   3.682   5.442 -0.1532  0.0250  0.1745
 6372W        W22506   0.897   5.310  13.908  0.3183 -0.3147  0.1439
 6373W        W22507  15.642  15.489   1.106  0.4392 -0.0774  0.1452
 6374W        W22508  12.533  12.574  11.510  0.0234 -0.1620  0.0899
 6375W        W22509   4.826   3.955   1.399  0.1142 -0.1766  0.1221
 6376W        W22510   8.179   1.078   2.176 -0.1626 -0.2243  0.0723
 6377W        W22511  16.594  14.063   2.090  0.2281 -0.2000 -0.0773
 6378W        W22512  15.559  18.175   1.520 -0.0607 -0.1042  0.0637
 6379W        W22513   5.354  13.628  10.570  0.2965  0.2417  0.0417
 6380W        W22514   6.446  13.983   1.383 -0.0209 -0.1552 -0.0204
 6381W        W22515   5.791  12.427  14.532 -0.1639 -0.0731 -0.0076
 6382W        W22516   3.349   8.835   3.831  0.1892 -0.1123  0.2568
 6383W        W22517  13.632   9.382  11.380 -0.0925  0.0794 -0.0711
 6384W        W22518  11.708   7.019  10.384 -0.0079 -0.1254  0.1162
 6385W        W22519  15.714  17.687   1.391 -0.4750  0.1443 -0.1834
 6386W        W22520   3.303   6.407  11.942  0.1377  0.1916  0.0615
 6387W        W22521  15.897   7.691  13.788  0.0476  0.1953 -0.1980
 6388W        W22522  10.959  13.153  12.779 -0.1797  0.2023  0.2395
 6389W        W22523   5.864   9.673   3.260 -0.3884  0.0530  0.1536
 6390W        W22524  12.431  15.671   4.609 -0.0567 -0.1836 -0.0018
 6391W        W22525  17.368   1.753   5.749 -0.0225 -0.1266 -0.1838
 6392W        W22526   2.274   8.356  14.336 -0.1191  0.3684  0.0653
 6393W        W22527   4.039  15.458  12.103  0.1957  0.3548 -0.1295
 6394W        W22528  12.649   6.572  10.966 -0.4821 -0.1041  0.0917
 6395W        W22529   6.847   8.675   1.964  0.0725 -0.2968 -0.1840
 6396W        W22530  18.643  12.483   3.912  0.0198 -0.0183 -0.0237
 6397W        W22531   4.800   1.108  12.557  0.1046  0.0694 -0.1687
 6398W        W22532   1.895   8.175  14.915 -0.0714 -0.0622 -0.2416
 6399W        W22533   7.840  12.988  11.189 -0.0462  0.0646 -0.2499
 6400W        W22534   4.805  12.333  14.077  0.0798 -0.3022 -0.2869
 6401W        W22535   8.779   8.982   2.913 -0.1181 -0.0272 -0.0128
 6402W        W22536  18.900  11.282  14.345 -0.0364 -0.2045 -0.2150
 6403W        W22537  14.253  14.062  15.028  0.1333 -0.2390 -0.5386
 6404W        W22538   1.829   5.462  12.373  0.1876  0.1153 -0.1125
 6405W        W22539   7.635   1.689  12.604  0.5585  0.0844 -0.1452
 6406W        W22540   5.493  15.226  14.349  0.2329 -0.0164 -0.0815
 6407W        W22541  12.714   7.998  12.023 -0.1447 -0.2207 -0.0173
 6408W        W22542  11.859  17.346  11.381 -0.0799 -0.3843 -0.1250
 6409W        W22543   2.428  14.668   0.943  0.3233 -0.4055  0.0625
 6410W        W22544   8.465  17.862  13.581  0.2705 -0.1844  0.1930
 6411W        W22545   3.396   5.883   9.546 -0.2178  0.0916 -0.1604
 6412W        W22546  15.433   2.076  11.372  0.0953 -0.1081  0.0803
 6413W        W22547  11.094   0.812   0.352 -0.0472 -0.1682 -0.0478
 6414W        W22548  13.599   0.428  14.107  0.1448  0.0664  0.0515
 6415W        W22549   7.827  16.689   4.127 -0.2857 -0.0630  0.0438
 6416W        W22550  13.403   0.769   1.782  0.3422  0.1045  0.2842
 6417W        W22551   9.779  18.497   4.730  0.4148  0.1256 -0.3476
 6418W        W22552  15.875  10.872  11.783 -0.0248  0.1176 -0.2908
 6419W        W22553  18.553   6.099   4.846 -0.0823  0.0244  0.1388
 6420W        W22554   0.411   2.340   2.440  0.1198  0.0514 -0.0854
 6421W        W22555  11.446   6.420   1.308 -0.1829  0.2014  0.2127
 6422W        W22556  11.631   1.493  12.207 -0.1022  0.0330  0.0108
 6423W        W22557   8.615  16.513   4.461  0.0693  0.1389 -0.2178
 6424W        W22558   3.732   9.140   4.973 -0.0295  0.0617 -0.0401
 6425W        W22559  14.747  16.396   4.294 -0.0243  0.2624 -0.0786
 6426W        W22560   9.368   5.731   2.657 -0.1410 -0.0526 -0.0094
 6427W        W22561   1.979   1.439   4.110  0.1016  0.1417 -0.1919
 6428W        W22562   3.252  12.646  10.922 -0.2019 -0.0353 -0.3192
 6429W        W22563   8.414   8.729   2.014 -0.1116  0.0473  0.0441
 6430W        W22564   7.910  17.601  10.502  0.4942 -0.1187  0.3001
 6431W        W22565  14.922   0.221   3.538 -0.2722 -0.0933 -0.0686
 6432W        W22566  16.300  11.903   3.251 -0.0676 -0.0313  0.0338
 6433W        W22567  11.471   1.093   0.489  0.1128 -0.1479 -0.3866
 6434W        W22568  14.016   3.998  10.495 -0.0038 -0.0037 -0.2500
 6435W        W22569  14.749   7.906   4.531  0.0621 -0.2490  0.2552
 6436W        W22570  16.442  12.411  14.815  0.0279  0.1740  0.0101
 6437W        W22571  10.489  19.176   0.691 -0.0264  0.0885 -0.0435
 6438W        W22572   0.331  12.316   2.643 -0.2420  0.0605 -0.1101
 6439W        W22573   3.054  12.267   4.199  0.1484  0.0740 -0.2851
 6440W        W22574  10.018   1.149  12.797  0.1422  0.0093 -0.4081
 6441W        W22575   1.755  18.631   3.712 -0.0761  0.1675  0.0653
 6442W        W22576  14.524   7.210  13.994  0.3436  0.1783  0.0391
 6443W        W22577   1.815  17.760   1.043 -0.0119  0.0328  0.1257
 6444W        W22578   0.157  14.036  11.141 -0.2020  0.0367 -0.1633
 6445W        W22579   4.179   3.210  10.409 -0.0551 -0.0451  0.1266
 6446W        W22580  12.334   1.544  13.707  0.0907  0.1656 -0.0723
 6447W        W22581   4.346   4.647   0.220  0.0895  0.2248 -0.1951
 6448W        W22582   0.808  11.275   2.645  0.1841 -0.0682  0.0147
 6449W        W22583  13.151   7.633  10.423 -0.1985 -0.1265 -0.1259
 6450W        W22584   4.094   4.687   9.904  0.0183  0.0578 -0.0182
 6451W        W22585  12.763   2.284   2.837 -0.2741 -0.0714  0.1787
 6452W        W22586   6.355  16.442   4.353  0.0667 -0.3022 -0.1008
 6453W        W22587  10.863   8.650  13.910  0.3706  0.0336  0.1019
 6454W        W22588  14.327   7.632   4.556  0.0986  0.1349  0.2825
 6455W        W22589   8.600  10.650  11.135  0.0910  0.0964  0.1244
 6456W        W22590  12.423   2.969   9.819  0.2267  0.3035  0.0705
 6457W        W22591   0.602  14.048  13.029 -0.0101 -0.1883 -0.0475
 6458W        W22592  16.306   7.313   1.223  0.0788 -0.0019  0.0696
 6459W        W22593  15.670   6.340   1.746 -0.1666  0.3273  0.0366
 6460W        W22594   2.895   8.155   0.560  0.0641  0.3366  0.1002
 6461W        W22595   5.050  15.618  11.199 -0.0118 -0.2738 -0.1679
 6462W        W22596  10.446  15.546  11.225 -0.0393  0.0742  0.2964
 6463W        W22597   6.532   7.721  13.482  0.1237  0.1434  0.1586
 6464W        W22598  17.330  14.530   2.292  0.0468 -0.1637  0.2211
 6465W        W22599   3.933   4.840   3.089 -0.0537 -0.1523  0.0420
 6466W        W22600  13.668  17.186   4.752 -0.0333  0.0773 -0.0517
 6467W        W22601  13.362   1.087   0.886 -0.1079  0.1722  0.5851
 6468W        W22602   9.808   5.987   2.672  0.0162  0.1822  0.1279
 6469W        W22603   6.040   0.345   0.887  0.2805 -0.1193 -0.3116
 6470W        W22604   9.823   4.272  12.674  0.0277  0.2404  0.3388
 6471W        W22605   2.911  17.360   3.876 -0.0225  0.0341 -0.1778
 6472W        W22606  18.609  14.773  13.619 -0.2498 -0.2247 -0.0615
 6473W        W22607  12.632  16.426   2.489 -0.0951  0.0759  0.3047
 6474W        W22608   4.208   7.891   4.656  0.1713  0.0081 -0.1255
 6475W        W22609   8.299   2.976  14.727  0.0219  0.1381  0.4893
 6476W        W22610  15.837   3.050   5.040 -0.0308  0.0639  0.2377
 6477W        W22611   1.948   0.757   2.462  0.3144  0.1515 -0.1702
 6478W        W22612   0.431   5.500   3.683  0.2715 -0.1812  0.1105
 6479W        W22613   4.715  10.356  11.302  0.0742 -0.1254 -0.0186
 6480W        W22614   1.939  11.502  12.444  0.1348  0.2865  0.0470
 6481W        W22615  12.230   4.806   1.865 -0.1303  0.1100 -0.1589
 6482W        W22616   8.114  10.330   1.180  0.0501  0.2687  0.2036
 6483W        W22617   8.517  17.863   2.512  0.2577  0.4002 -0.3124
 6484W        W22618   9.957  16.836  12.259  0.0997  0.0182 -0.2485
 6485W        W22619  15.805  12.791  15.028  0.2827 -0.2051 -0.0515
 6486W        W22620  16.749  15.186   4.930 -0.1804 -0.2498  0.3339
 6487W        W22621   6.827  17.302   1.865 -0.1283  0.5040  0.0573
 6488W        W22622   1.231  14.465   1.228 -0.2150 -0.2458 -0.2701
 6489W        W22623  16.010   1.123  13.287  0.0354 -0.1098 -0.1009
 6490W        W22624  15.598  10.631   3.235  0.1227  0.1984 -0.1195
 6491W        W22625   5.882  14.714  12.298  0.2451  0.0939 -0.0198
 6492W        W22626  15.562   4.550   4.333  0.0900  0.2506  0.0634
 6493W        W22627   9.176   4.212  10.923 -0.0253  0.0051  0.0362
 6494W        W22628  13.889  14.074  13.360 -0.2735  0.2257 -0.1045
 6495W        W22629   1.865  15.877  14.548  0.1659  0.0716  0.0858
 6496W        W22630  17.018  12.232  13.897 -0.0550 -0.3346  0.1755
 6497W        W22631   7.964  14.728   2.263  0.1913 -0.0518  0.0156
 6498W        W22632   0.275  18.588   2.447  0.2230 -0.2499  0.1395
 6499W        W22633   7.345   9.598   4.138  0.1079 -0.1123  0.3741
 6500W        W22634  17.845  14.081   4.374  0.0099  0.3832  0.0969
 6501W        W22635   0.755   9.155   0.670 -0.0876  0.2357 -0.2352
 6502W        W22636  10.444   0.799  14.115  0.0047 -0.3699  0.0504
 6503W        W22637  17.043  12.253   4.573  0.3868  0.2660  0.1023
 6504W        W22638  12.727  12.659   3.919 -0.0590  0.0574 -0.3643
 6505W        W22639  15.285  15.987   2.549 -0.2883 -0.4233 -0.0684
 6506W        W22640   1.980  11.963   0.155  0.1575 -0.0564 -0.0843
 6507W        W22641   5.827  17.224  13.187 -0.0813  0.1764 -0.2395
 6508W        W22642   7.994  16.281  12.246 -0.0482  0.0234  0.2910
 6509W        W22643   2.902   0.419  11.744  0.2788  0.1621  0.3389
 6510W        W22644  10.645  14.541  14.401 -0.2118  0.2220 -0.1576
 6511W        W22645  16.180   8.567  11.605 -0.1794  0.1204  0.0768
 6512W        W22646   7.026   4.170   3.607  0.4027  0.1314  0.2473
 6513W        W22647   6.276   8.066   0.844 -0.2537 -0.0143  0.1802
 6514W        W22648  15.602  13.204   2.492  0.1274 -0.2508 -0.1263
 6515W        W22649  16.940  18.031   1.061 -0.0014  0.0103 -0.2430
 6516W        W22650  15.308   8.970   1.698  0.1622 -0.0921 -0.1323
 6517W        W22651   4.303  11.360   5.391 -0.0341  0.2461  0.0738
 6518W        W22652  17.478   3.281   0.707 -0.1313 -0.0193  0.0840
 6519W        W22653  15.656   8.644  12.394 -0.0754  0.0888  0.0217
 6520W        W22654   4.714   0.210  14.290  0.0159  0.0041  0.4329
 6521W        W22655   2.998  17.019   1.098 -0.1865 -0.0010 -0.1189
 6522W        W22656  17.357  14.946  10.828 -0.0758  0.0823  0.0771
 6523W        W22657   9.114  12.790  11.051 -0.0869  0.0221  0.2466
 6524W        W22658  13.861  15.638  10.011  0.0589 -0.0978 -0.4804
 6525W        W22659   0.001   5.102   1.205  0.0371  0.0104 -0.1943
 6526W        W22660  15.626  11.348  13.274 -0.3526  0.0785 -0.1001
 6527W        W22661  10.515   4.251   0.577  0.2511  0.1554 -0.0556
 6528W        W22662   6.862  11.769  10.955  0.0046  0.0922  0.0728
 6529W        W22663  12.115   7.098   4.942  0.1803 -0.2026 -0.0114
 6530W        W22664  14.861  12.229   0.649 -0.1057  0.1977 -0.2887
 6531W        W22665   8.416   3.107   9.595  0.0245  0.3091 -0.1616
 6532W        W22666   5.616  13.445   4.557 -0.1239 -0.4006  0.1284
 6533W        W22667  11.036  11.396  13.602 -0.0567 -0.1210  0.1462
 6534W        W22668   3.220  18.451  12.358  0.1270 -0.1727 -0.0199
 6535W        W22669   7.077  15.993   5.416  0.0961  0.5196 -0.0560
 6536W        W22670  15.414   6.092  14.847 -0.1107  0.1644  0.0253
 6537W        W22671  18.240   0.479  11.781  0.1273 -0.0156  0.0140
 6538W        W22672  12.361  17.386   4.076  0.0501 -0.0457 -0.1954
 6539W        W22673  16.496  11.951  13.577  0.2355  0.0656 -0.4240
 6540W        W22674   1.233  13.220  13.005  0.1281 -0.2141  0.2262
 6541W        W22675   7.748  13.936  12.032 -0.0250 -0.0954  0.1985
 6542W        W22676  11.456  17.088  12.074  0.1371 -0.2634  0.1512
 6543W        W22677  11.032   1.945  12.519 -0.0314  0.0449  0.1431
 6544W        W22678   9.933   9.937  14.863  0.0412  0.2441 -0.0674
 6545W        W22679   1.813   8.216  10.624  0.0722  0.3422 -0.0342
 6546W        W22680   5.105  11.552  13.799  0.0009 -0.0255  0.2032
 6547W        W22681  15.762   6.077   2.313 -0.1095 -0.1110  0.0995
 6548W        W22682  16.220   6.354   1.429 -0.2099 -0.0888 -0.3109
 6549W        W22683   7.831  17.364  10.006  0.1001 -0.1493  0.2325
 6550W        W22684  14.434  13.063  13.488  0.0887  0.2005 -0.1313
 6551W        W22685   4.553  11.464  13.634  0.3486 -0.0287 -0.0580
 6552W        W22686   4.714  11.816  11.740 -0.1055  0.1035  0.1864
 6553W        W22687  17.694  10.696  14.849 -0.2471  0.2699  0.0102
 6554W        W22688  15.462   1.395  14.832 -0.0625 -0.0129 -0.0287
 6555W        W22689  17.703   8.595  13.598  0.2709  0.1214  0.0157
 6556W        W22690   6.918  15.458   2.820  0.0996  0.3737  0.2173
 6557W        W22691  10.643  10.484  11.397 -0.0058 -0.1425  0.0679
 6558W        W22692   2.048   7.277  14.659  0.0277 -0.2064 -0.1256
 6559W        W22693  12.275  10.314   2.225  0.0077  0.3612 -0.6015
 6560W        W22694  17.061   5.333   3.106  0.2142  0.0213 -0.1520
 6561W        W22695   4.157  11.517   1.724  0.1732  0.0854 -0.0551
 6562W        W22696  18.153  14.298  11.950  0.0873 -0.0299 -0.2872
 6563W        W22697   2.707  11.069   1.918 -0.2380 -0.1528  0.1752
 6564W        W22698  10.628   7.279   4.808  0.0638 -0.0952  0.4122
 6565W        W22699  17.888   8.382   2.489  0.0250  0.4100  0.0498
 6566W        W22700   1.981  18.753   1.672  0.1827 -0.0962  0.0240
 6567W        W22701  13.154  18.098  14.671  0.1903 -0.1652 -0.0230
 6568W        W22702  18.951  17.491   0.117  0.1197  0.2039 -0.0987
 6569W        W22703  16.182   4.907  14.535 -0.1844  0.1434 -0.0671
 6570W        W22704  19.128  12.615   1.783 -0.1118 -0.1776 -0.1056
 6571W        W22705  12.193   3.998   9.284  0.1177 -0.2354  0.2874
 6572W        W22706  16.414   4.306   0.928 -0.1621  0.2818 -0.0441
 6573W        W22707  10.003   8.976   2.272 -0.0595  0.0314 -0.2945
 6574W        W22708  15.107   6.175   4.585  0.3401  0.1196  0.2868
 6575W        W22709  17.201  14.622  11.225  0.0640  0.0544  0.2650
 6576W        W22710   7.085   3.740  11.075  0.0722 -0.2473  0.2091
 6577W        W22711  10.155  14.752   0.480 -0.2733  0.3106  0.0283
 6578W        W22712   4.946   4.614  13.505  0.0062  0.1638 -0.0797
 6579W        W22713  16.411  13.271  14.803  0.1159  0.1245  0.2283
 6580W        W22714  17.930   6.835  10.365 -0.1003 -0.1354 -0.1056
 6581W        W22715  10.992   4.589  12.640 -0.1832 -0.0708  0.2818
 6582W        W22716  16.411  10.363   1.652  0.2237  0.1315 -0.2422
 6583W        W22717  14.611  15.498   5.039  0.3609 -0.0324 -0.1914
 6584W        W22718  17.337  11.816   3.208  0.1164  0.0815  0.1461
 6585W        W22719   5.830   6.283  11.679  0.1728  0.1089 -0.3051
 6586W        W22720  12.092   8.125  12.167 -0.0276 -0.1708  0.2311
 6587W        W22721   6.318  16.950  14.752 -0.0407  0.0150  0.0248
 6588W        W22722  13.186   2.937  14.895 -0.0186 -0.2110 -0.0521
 6589W        W22723   4.967  11.207  10.389 -0.0854 -0.5884  0.1438
 6590W        W22724   4.417   1.903   1.336  0.3965  0.0186 -0.0655
 6591W        W22725  15.537   9.063  13.511 -0.1255  0.1332 -0.2561
 6592W        W22726   2.891   8.125   1.213  0.1117 -0.2657 -0.5107
 6593W        W22727  10.200   4.453   1.025 -0.1575  0.0605 -0.0542
 6594W        W22728  18.708  12.557   0.076 -0.0140  0.1838  0.1023
 6595W        W22729  18.827   2.830   3.214  0.1959  0.1064 -0.0486
 6596W        W22730  13.851   6.335   3.048 -0.0225  0.2164 -0.0537
 6597W        W22731  13.794   1.869   2.752 -0.1358 -0.0168 -0.0435
 6598W        W22732   4.276   5.005  13.309 -0.1003 -0.1970  0.0297
 6599W        W22733  10.289   6.607   3.412 -0.0495 -0.3475 -0.4169
 6600W        W22734   7.923   7.952  14.734  0.0676  0.0850 -0.2881
 6601W        W22735  16.124   9.709  14.096 -0.2813  0.1063  0.4238
 6602W        W22736  16.110   8.412  12.086  0.0851  0.1027 -0.1906
 6603W        W22737   4.162   5.385   4.174  0.0401  0.0596 -0.2194
 6604W        W22738   4.036   2.230   0.553 -0.3611  0.2036  0.0487
 6605W        W22739   4.584   7.677   1.714 -0.0266 -0.0391 -0.0249
 6606W        W22740   9.809   7.919   4.555 -0.1422  0.1738 -0.2173
 6607W        W22741   7.626  16.570   9.483  0.0985  0.2055  0.1824
 6608W        W22742  16.282   3.240  14.325 -0.0158  0.1468 -0.0097
 6609W        W22743  15.136   7.495   2.852 -0.2096  0.3360  0.0875
 6610W        W22744  13.755  16.269  13.154  0.0836  0.2133 -0.1069
 6611W        W22745  17.217   4.907  11.679  0.1382  0.0475  0.0154
 6612W        W22746   3.064   3.045  13.420  0.2065  0.3518  0.0875
 6613W        W22747  10.112   2.921  10.366 -0.3654 -0.0353  0.1810
 6614W        W22748   1.573   7.544  14.391 -0.0719 -0.1385  0.0042
 6615W        W22749  11.779  10.946  12.632 -0.1118 -0.2802  0.2579
 6616W        W22750  14.167  18.086  11.115  0.0189 -0.1832 -0.1113
 6617W        W22751  17.083  11.656   1.284  0.0434  0.0946  0.0104
 6618W        W22752   1.605  13.596  12.905 -0.2434  0.0658 -0.3649
 6619W        W22753   9.721   2.272   2.709 -0.2653 -0.0867  0.0378
 6620W        W22754  12.789   7.548   3.495 -0.0728  0.1041 -0.0610
 6621W        W22755   9.924  11.189   1.524  0.4100 -0.1238 -0.0086
 6622W        W22756  18.216   0.700   0.799 -0.0053  0.2223 -0.0044
 6623W        W22757  13.658   9.907  10.675  0.0250  0.2614  0.2700
 6624W        W22758   4.073  18.110  11.272 -0.5627 -0.0829 -0.1283
 6625W        W22759  12.343  16.954   0.222 -0.3330 -0.0250  0.3795
 6626W        W22760   1.058   3.483  14.482 -0.0092 -0.0902  0.0194
 6627W        W22761  12.432  18.277  12.417 -0.4365  0.0336 -0.0888
 6628W        W22762  11.138   8.537  10.467  0.2159  0.0315  0.1946
 6629W        W22763  15.517   6.153  11.689  0.0417 -0.0755 -0.2739
 6630W        W22764   4.007   7.753   5.124  0.1738 -0.2150  0.2819
 6631W        W22765   0.308   3.045  10.860  0.0736 -0.5120  0.0352
 6632W        W22766  16.845   2.626  15.009 -0.1012 -0.0541  0.2159
 6633W        W22767  10.940  15.966  12.480  0.0922  0.0165 -0.0613
 6634W        W22768   9.935  11.260   2.848 -0.1154 -0.2088 -0.0763
 6635W        W22769   3.980   1.599   0.901 -0.0391 -0.4839 -0.1198
 6636W        W22770   9.568   7.308   4.429  0.0288  0.2880 -0.3450
 6637W        W22771   6.308  15.868   2.200 -0.1393 -0.2260  0.0468
 6638W        W22772   0.518   6.588   1.615 -0.0664 -0.3603 -0.2427
 6639W        W22773   7.586   6.699   2.243  0.0463  0.2431 -0.5233
 6640W        W22774  15.263   1.501   2.901 -0.0356 -0.1505 -0.0294
 6641W        W22775   9.325  15.917  12.253  0.1236  0.0254 -0.0437
 6642W        W22776  11.832  13.155   2.834  0.0905 -0.0469 -0.0139
 6643W        W22777   3.168  18.935  12.601 -0.1942 -0.1903 -0.1998
 6644W        W22778   3.889  10.260   0.278  0.1722  0.2138 -0.0256
 6645W        W22779   9.150   9.824   2.332  0.2388  0.0391  0.3659
 6646W        W22780  15.618  18.054  13.899  0.3238 -0.2738 -0.0409
 6647W        W22781  14.176   6.255  14.326  0.1363  0.1003 -0.1779
 6648W        W22782   9.837  17.937   0.052 -0.0798 -0.0072  0.0546
 6649W        W22783  10.531  14.501  15.026 -0.3310  0.1232  0.0388
 6650W        W22784   4.592   9.969   0.476  0.2952  0.1797  0.0521
 6651W        W22785  10.653   7.843   0.930  0.2612 -0.0586 -0.0354
 6652W        W22786  18.438  10.887   2.757 -0.1987 -0.0210 -0.1562
 6653W        W22787  17.725  19.151   3.810  0.0318  0.1863  0.2030
 6654W        W22788  19.205  15.545   1.749 -0.0577  0.0691  0.0366
 6655W        W22789   5.295  11.751   3.922  0.0118 -0.0465 -0.3252
 6656W        W22790  18.085  16.052  14.999  0.2552  0.5426  0.0165
 6657W        W22791   2.856   7.997  14.768 -0.0033  0.1013  0.0029
 6658W        W22792  18.915  14.127   2.234  0.3462  0.2525  0.0391
 6659W        W22793  16.317  10.381   2.625 -0.4238  0.1563 -0.0537
 6660W        W22794  17.097   8.063   1.283  0.0924  0.2307 -0.1475
 6661W        W22795  14.313   1.376  12.136  0.1742 -0.2868  0.0153
 6662W        W22796  16.266  10.566   4.751 -0.1664  0.0499  0.0928
 6663W        W22797  16.672  10.209  12.498  0.2082 -0.1061  0.1098
 6664W        W22798   9.349   0.252  11.831  0.0016  0.1005 -0.1905
 6665W        W22799  12.335  11.582   3.832  0.0011 -0.1425  0.2356
 6666W        W22800   0.513  17.651   2.904 -0.1271 -0.0101  0.0112
 6667W        W22801   7.762   6.069  12.885  0.0356 -0.0952 -0.2695
 6668W        W22802  11.114   7.965  14.264 -0.1245 -0.1364 -0.1273
 6669W        W22803  12.952  15.502  10.193  0.1283 -0.0631  0.0146
 6670W        W22804   4.593  16.025   4.408 -0.1748 -0.1169  0.0602
 6671W        W22805  18.725   9.977   1.318  0.1894 -0.0244  0.3054
 6672W        W22806   5.739   9.311   1.178 -0.4510 -0.2142  0.0986
 6673W        W22807   9.827  18.994   4.973  0.1509  0.2520 -0.0549
 6674W        W22808   4.740  15.539   1.802  0.0629 -0.2964 -0.3060
 6675W        W22809   0.587   5.537  14.852 -0.1063  0.1245 -0.1256
 6676W        W22810  13.152   1.149   3.504  0.1484 -0.4287  0.0103
 6677W        W22811  15.720   0.788   1.516 -0.3641 -0.0943  0.1945
 6678W        W22812   5.487   0.270   4.404  0.3863 -0.1521 -0.2833
 6679W        W22813  12.337   9.530  10.958 -0.0998  0.1791  0.0053
 6680W        W22814  18.841  19.005   2.817  0.0263 -0.0391 -0.0212
 6681W        W22815   6.699  13.779  14.258 -0.3898 -0.0520  0.0140
 6682W        W22816  18.581  16.837   2.228 -0.2930  0.1311  0.0973
 6683W        W22817  10.645   1.216   2.214 -0.3345  0.2601 -0.1047
 6684W        W22818   7.925   7.118   2.334  0.1292  0.0172  0.1222
 6685W        W22819  10.611   5.075   3.637 -0.1630  0.2692  0.0012
 6686W        W22820   8.788   8.104   3.652 -0.3800  0.1475 -0.0288
 6687W        W22821   5.741   8.191  14.100  0.2222 -0.1503  0.4016
 6688W        W22822  15.279   7.727  13.480  0.0238 -0.2024  0.1837
 6689W        W22823  15.182  11.823  11.041  0.3785  0.0255  0.0693
 6690W        W22824   5.153  18.784   0.946 -0.1204 -0.3454 -0.1110
 6691W        W22825   5.773   0.750  13.117  0.2412 -0.0326  0.3619
 6692W        W22826   3.543  16.048   9.801 -0.0390  0.2989 -0.1943
 6693W        W22827  18.278   6.222   3.310 -0.0279 -0.3043 -0.1100
 6694W        W22828  18.299  13.375   4.081  0.1462  0.1082  0.2215
 6695W        W22829   4.635   3.739  10.919 -0.2123 -0.3933  0.1128
 6696W        W22830   9.828  11.961  13.544 -0.0742 -0.0427 -0.0622
 6697W        W22831  10.103  13.912  10.346  0.0179 -0.3226 -0.3683
 6698W        W22832  10.861   3.250  12.108 -0.0197 -0.2769  0.1808
 6699W        W22833  14.963   2.526  10.259 -0.2264  0.0145  0.6159
 6700W        W22834   7.555  14.984  14.910 -0.1368 -0.0397  0.1601
 6701W        W22835   3.895  14.840   0.932  0.3000  0.2043 -0.0526
 6702W        W22836   4.967  11.440  11.628 -0.3330 -0.0467  0.0788
 6703W        W22837   2.662   7.406  10.462 -0.3929 -0.1213 -0.0188
 6704W        W22838   7.994  13.531   1.481  0.0287 -0.0391  0.2874
 6705W        W22839  10.647   2.051  10.559 -0.3072  0.3501  0.0526
 6706W        W22840  16.221  18.335  12.940  0.1077  0.1565  0.0926
 6707W        W22841   6.151   7.560   9.419 -0.0180 -0.0301 -0.0779
 6708W        W22842  12.670   5.348  12.390 -0.1877 -0.5226 -0.1320
 6709W        W22843   2.785  10.150  13.693 -0.1027 -0.1660  0.0572
 6710W        W22844  10.561  15.776  10.803  0.1469 -0.0819  0.3217
 6711W        W22845   1.155  13.484   0.171  0.2467 -0.1541 -0.0061
 6712W        W22846   5.568   7.742   3.744 -0.1175 -0.3998 -0.2144
 6713W        W22847  17.790   4.884  12.351 -0.0695  0.0459  0.1583
 6714W        W22848  12.631  11.667  14.085 -0.0051 -0.0587 -0.0795
 6715W        W22849   0.249  10.892  13.830  0.4898  0.3778 -0.1270
 6716W        W22850  15.663   2.132  14.097 -0.0042 -0.4288  0.1551
 6717W        W22851   8.388  17.554   3.360  0.3364 -0.0952 -0.2161
 6718W        W22852  12.654   1.381   4.800 -0.4254  0.0309 -0.0533
 6719W        W22853   5.032   3.822  11.554 -0.1277 -0.1221  0.0003
 6720W        W22854   9.286   1.614  12.201  0.0106  0.0676 -0.0514
 6721W        W22855   6.720   6.695  14.828 -0.0995  0.1957  0.2828
 6722W        W22856  14.291  13.465  14.392 -0.3245 -0.2172  0.0282
 6723W        W22857   5.200  14.386   1.995 -0.0232  0.2947  0.1761
 6724W        W22858   3.692  18.454  14.416 -0.1955 -0.2542 -0.0112
 6725W        W22859  13.462  18.718  11.116 -0.1581  0.3384  0.5177
 6726W        W22860  17.138  18.293  14.568  0.2630 -0.0099 -0.0658
 6727W        W22861   2.338  16.341  14.175 -0.1475 -0.2425 -0.0216
 6728W        W22862   8.940  19.222   5.766 -0.3164  0.0648  0.1427
 6729W        W22863  14.195  14.540   2.349  0.1105  0.0020 -0.2371
 6730W        W22864   9.635  16.651   3.403 -0.0651 -0.2225  0.1227
 6731W        W22865  16.730  18.265  13.103 -0.2566 -0.0007 -0.0629
 6732W        W22866   1.148  14.913   2.171  0.1078 -0.1823  0.0827
 6733W        W22867   5.344   2.460  14.983  0.0384  0.1315  0.3749
 6734W        W22868   4.872  11.436  14.571  0.1520  0.3967 -0.1083
 6735W        W22869   1.292   7.067   0.329  0.0124 -0.2038  0.0364
 6736W        W22870   9.833  14.183   4.061 -0.1514  0.0352  0.3948
 6737W        W22871   3.783  17.349  13.062 -0.0953 -0.1922  0.1323
 6738W        W22872  18.699   3.779   9.418 -0.1004 -0.1797  0.0764
 6739W        W22873   4.128  14.253   1.451 -0.2783 -0.1774 -0.2135
 6740W        W22874  18.077  16.882   3.559  0.0492 -0.0685  0.0665
 6741W        W22875   2.507   3.297   3.718 -0.0411  0.2492 -0.3828
 6742W        W22876  11.010   2.323   4.815  0.0163  0.0944  0.0218
 6743W        W22877  14.141   2.044   0.142 -0.0128  0.1094 -0.0892
 6744W        W22878   1.207   7.769   5.711  0.3115  0.2877 -0.1938
 6745W        W22879   9.623  13.114   4.928 -0.1036 -0.4955  0.2773
 6746W        W22880  17.456  14.234  11.164  0.2488 -0.1459 -0.2254
 6747W        W22881  18.894   0.864  12.536 -0.2214  0.1035 -0.2665
 6748W        W22882  13.448  11.157  15.002 -0.0004 -0.0910  0.0813
 6749W        W22883   5.328   6.140  14.635 -0.1651 -0.1128 -0.2697
 6750W        W22884   1.411   9.526   3.172 -0.4100  0.0399 -0.0390
 6751W        W22885   7.075   5.348  13.715  0.0043  0.0814  0.0467
 6752W        W22886   3.870  16.929   0.736 -0.0225  0.1851 -0.5043
 6753W        W22887  11.989  14.393  14.304  0.1050  0.2531  0.4045
 6754W        W22888  19.178   4.333  11.445  0.1893  0.0888  0.1172
 6755W        W22889  12.834  13.181   3.979  0.0511  0.3522  0.0626
 6756W        W22890  16.657   6.660   4.311 -0.1890  0.3084 -0.1569
 6757W        W22891   2.822  18.052   0.274  0.0528 -0.0767 -0.2522
 6758W        W22892  11.110   8.203  12.199 -0.4095 -0.1077  0.0892
 6759W        W22893   8.895  14.688   3.987  0.1684 -0.0268 -0.4202
 6760W        W22894   9.697  16.055   3.003  0.1511 -0.1222  0.0883
 6761W        W22895  17.579  14.304  11.999  0.3187  0.1778  0.0532
 6762W        W22896   8.848   3.167  14.198 -0.0580  0.2180  0.1528
 6763W        W22897  18.477  16.781  12.777 -0.1967  0.2598  0.0420
 6764W        W22898  16.057  14.128   2.087  0.1465  0.0617  0.2583
 6765W        W22899   5.562   1.759   4.510 -0.1554  0.1093  0.3334
 6766W        W22900   3.557  11.316  14.325 -0.0761 -0.1154 -0.1024
 6767W        W22901   0.969   6.021   4.134  0.0731  0.0076  0.3109
 6768W        W22902   5.187  13.846  12.400 -0.0780 -0.2300  0.3514
 6769W        W22903  16.330  13.146  10.924  0.3231 -0.3633  0.2288
 6770W        W22904   9.913  13.669  13.285 -0.0213  0.2091 -0.1939
 6771W        W22905  16.124   2.431  14.274  0.1969 -0.1374  0.4286
 6772W        W22906   8.988   3.808  10.075  0.1869 -0.1764 -0.0107
 6773W        W22907  14.071  14.925  13.017  0.0041 -0.1197 -0.0725
 6774W        W22908  14.638   1.516  14.084  0.1547  0.1640  0.1630
 6775W        W22909  11.193  18.423   3.371  0.2624  0.1020  0.2606
 6776W        W22910   8.438  16.673   0.204  0.0584  0.2247 -0.2447
 6777W        W22911   8.027  13.327  13.320 -0.0318 -0.0822  0.1089
 6778W        W22912   3.191   4.077   5.088 -0.0782  0.0243  0.1353
 6779W        W22913  18.263  14.240  13.210 -0.4504 -0.1549 -0.1530
 6780W        W22914   2.519   6.840  10.376 -0.2403  0.5054  0.0964
 6781W        W22915   2.439   7.716  13.270  0.3644 -0.2381  0.1336
 6782W        W22916  15.504  17.889  14.931  0.0823 -0.1099  0.0943
 6783W        W22917   0.080  10.838   4.895 -0.0053  0.0911  0.0125
 6784W        W22918  15.638  12.479   0.345 -0.5031 -0.2322  0.1479
 6785W        W22919   2.192   2.794  10.878 -0.1051  0.1732  0.2465
 6786W        W22920  13.216  15.086  14.234 -0.0521  0.1926 -0.0667
 6787W        W22921   3.268   6.917  12.106 -0.1988 -0.3421 -0.1456
 6788W        W22922  12.007  12.296  14.184 -0.1080  0.0072 -0.0513
 6789W        W22923   9.078   1.131   4.048 -0.1797  0.1765 -0.0532
 6790W        W22924  10.697   5.777   2.126  0.4095  0.2733 -0.4161
 6791W        W22925   3.706  11.198   0.766  0.1254  0.0892  0.2331
 6792W        W22926   2.239   1.931   0.477  0.0333 -0.1805 -0.0669
 6793W        W22927   6.340   5.534   9.924  0.1246 -0.1565  0.2203
 6794W        W22928  14.416   6.453  11.404 -0.0168  0.0024  0.3394
 6795W        W22929  12.875  13.984   1.443  0.3382 -0.1072 -0.1752
 6796W        W22930   7.388  10.976  13.648  0.1072 -0.4592  0.1267
 6797W        W22931  11.818   7.396   1.539 -0.0944  0.0157 -0.0597
 6798W        W22932  13.420   6.294   5.587 -0.3973  0.0849 -0.2807
 6799W        W22933  19.222  15.471   5.108 -0.0222 -0.0739  0.2479
 6800W        W22934  14.653  16.583  13.144  0.0710 -0.0278  0.0906
 6801W        W22935   3.973  11.073  10.362  0.3902 -0.0815 -0.0584
 6802W        W22936   7.591  15.922   4.221 -0.0543 -0.0975  0.0339
 6803W        W22937   1.463   4.232  12.390 -0.3013  0.1269  0.4527
 6804W        W22938   7.064   0.701   3.089 -0.1536  0.0880 -0.0891
 6805W        W22939  10.171   3.641   0.021 -0.1517  0.1227  0.2181
 6806W        W22940  17.799  12.565   2.242 -0.1162  0.0431  0.1019
 6807W        W22941  18.468   8.480   1.525  0.1954  0.0767  0.4045
 6808W        W22942   3.863  16.957  10.066 -0.2395  0.2608 -0.3619
 6809W        W22943   3.051  11.710   3.690 -0.2638  0.1671 -0.0014
 6810W        W22944   9.569   7.707   0.023 -0.0405 -0.0351  0.0242
 6811W        W22945   7.079   2.814   5.519  0.0592  0.2752  0.4316
 6812W        W22946   5.428  12.571  10.863 -0.2442 -0.0598  0.1301
 6813W        W22947   0.846   4.961   0.318 -0.3112 -0.0110 -0.1096
 6814W        W22948   2.243  18.028   4.184  0.1274 -0.0182  0.3698
 6815W        W22949   1.122   9.633   4.931  0.0565 -0.3476 -0.0319
 6816W        W22950  18.104  14.738   5.128 -0.1076  0.0898  0.1404
 6817W        W22951   2.616   3.199   0.502  0.0934  0.0072  0.1355
 6818W        W22952  16.298   4.941   4.769  0.0424 -0.1608 -0.1623
 6819W        W22953  18.003  10.148   4.094 -0.2067  0.0818 -0.1380
 6820W        W22954  15.244   0.171   5.042  0.0557 -0.3692  0.1037
 6821W        W22955   1.559   8.082   1.188 -0.2383 -0.3993 -0.2100
 6822W        W22956  11.322  11.458   3.399  0.2670  0.2645  0.2235
 6823W        W22957   3.786  15.525   1.895 -0.3421 -0.3187  0.0457
 6824W        W22958   8.793  11.838  13.165  0.0481  0.3517  0.1888
 6825W        W22959   9.560  11.441  10.109 -0.0358 -0.0031  0.1710
 6826W        W22960   3.800   8.646   1.153  0.1576 -0.2855 -0.1999
 6827W        W22961  10.254   7.337   2.328 -0.0933 -0.1950  0.2547
 6828W        W22962   9.572  15.504  10.616  0.0320  0.0172 -0.1020
 6829W        W22963  15.481  11.671  11.587  0.0184  0.1814  0.1047
 6830W        W22964  13.025   0.928  11.888  0.0622  0.4996 -0.0713
 6831W        W22965  13.666   8.464  12.155  0.2500  0.2573 -0.0361
 6832W        W22966   1.692   8.116  13.576 -0.1966  0.2098  0.0634
 6833W        W22967   4.594   7.560   3.856  0.1525 -0.1506  0.1911
 6834W        W22968  14.477  13.213   2.513  0.1172  0.0675 -0.2682
 6835W        W22969   0.913   8.998   1.211  0.1838  0.0411 -0.0505
 6836W        W22970   7.721   0.181   2.009 -0.3232 -0.0567 -0.0992
 6837W        W22971   4.739  14.951  10.755 -0.0035  0.2039 -0.1186
 6838W        W22972  17.816  15.163   5.200  0.1980  0.1268  0.1686
 6839W        W22973   2.325   5.365  12.534 -0.1277 -0.4869  0.1041
 6840W        W22974   1.876   6.090   2.955  0.0344  0.3823  0.3535
 6841W        W22975   2.502   2.245   2.547 -0.0834 -0.1398  0.1235
 6842W        W22976   3.597  17.367   0.682  0.0719  0.1723 -0.2788
 6843W        W22977   5.412   3.903   9.652  0.2613 -0.1339 -0.0553
 6844W        W22978   8.921   4.969   9.805  0.2112 -0.1199 -0.0496
 6845W        W22979  18.088   1.052  13.602  0.3508  0.0193 -0.1447
 6846W        W22980  14.658  12.696   9.916  0.1915  0.3165 -0.0341
 6847W        W22981  17.831  15.881   4.722  0.1589  0.1425 -0.2234
 6848W        W22982  15.650  16.336   0.268  0.2742  0.0798 -0.0279
 6849W        W22983  17.327   2.005  13.240 -0.0723  0.1189 -0.2491
 6850W        W22984  12.736   8.431   1.892  0.1549  0.0550 -0.1746
 6851W        W22985   7.658   1.714   2.245 -0.3483  0.3067 -0.2956
 6852W        W22986   6.040  11.356  12.070 -0.2118 -0.3215  0.1933
 6853W        W22987  11.863  16.435   2.860  0.4817 -0.1695 -0.2513
 6854W        W22988   0.777   1.895  14.501 -0.0924  0.0801  0.0167
 6855W        W22989   0.803   8.577  13.211 -0.1814 -0.2250  0.0171
 6856W        W22990   7.009   6.912  13.170  0.1140  0.1800 -0.0415
 6857W        W22991  17.723  11.181   2.111  0.0334 -0.0607 -0.2535
 6858W        W22992   3.928   6.064   2.099 -0.0355  0.1369  0.1746
 6859W        W22993   0.152  17.982   1.017 -0.2029  0.2809  0.1315
 6860W        W22994  10.518  10.930   0.929 -0.0837  0.1305 -0.0112
 6861W        W22995   9.893   1.507   5.192 -0.2563  0.1463 -0.0687
 6862W        W22996  15.603   3.708  12.547 -0.0346  0.1593 -0.2312
 6863W        W22997   1.684  13.576   3.461 -0.0824 -0.3658 -0.1384
 6864W        W22998   0.609   2.307  14.740 -0.1886  0.0408 -0.0559
 6865W        W22999  13.482   4.833  10.890 -0.3394 -0.0556  0.1072
 6866W        W23000  10.639   1.382  13.885 -0.1765 -0.0767  0.1357
 6867W        W23001   1.095   9.628   2.802 -0.1178 -0.5623  0.1398
 6868W        W23002   3.425   4.404  13.142  0.1431 -0.0154  0.3541
 6869W        W23003   3.786  10.407  11.782 -0.0362 -0.1449 -0.0514
 6870W        W23004  13.903  16.559   4.236  0.0598  0.0122 -0.2198
 6871W        W23005   0.484   8.661  10.274 -0.0820 -0.0627  0.1445
 6872W        W23006  11.426   8.848  13.774 -0.3144  0.0827 -0.0714
 6873W        W23007   5.256   6.365  10.772 -0.1755 -0.1049 -0.1031
 6874W        W23008   4.551   4.435  14.374  0.0357  0.2595  0.1903
 6875W        W23009   2.933   6.415   5.815 -0.1521  0.2543  0.0515
 6876W        W23010  14.762  13.108   4.870 -0.2476  0.0351 -0.0013
 6877W        W23011  19.099  18.992   5.322 -0.2138 -0.0477 -0.2394
 6878W        W23012  14.716   4.380  13.829  0.2980 -0.0791  0.0347
 6879W        W23013  11.412   2.970  13.250  0.0617  0.1644  0.2475
 6880W        W23014  16.984   2.301   4.411  0.1600  0.0793  0.2821
 6881W        W23015   9.976  18.331  10.654 -0.1952 -0.1792  0.1053
 6882W        W23016  11.907   2.796  13.767  0.3684  0.0203  0.1792
 6883W        W23017   3.807   9.421  14.441 -0.2120 -0.3621 -0.3161
 6884W        W23018   5.286  16.714  10.115 -0.0517 -0.2592  0.0600
 6885W        W23019   6.873   7.370  12.699 -0.0712  0.1396 -0.0386
 6886W        W23020   8.598   1.857  14.837 -0.0316  0.1247 -0.0734
 6887W        W23021  12.639  10.034   0.998 -0.0933 -0.3289  0.1278
 6888W        W23022  11.420  12.981   5.308 -0.0637 -0.1288  0.0849
 6889W        W23023  14.165  11.249  13.798 -0.4014  0.1842 -0.0709
 6890W        W23024   1.106  12.857   0.906  0.1956  0.0391 -0.3456
 6891W        W23025   9.342   2.022   4.517 -0.0977  0.0324  0.2480
 6892W        W23026  16.992   1.068   3.609 -0.2714  0.0507 -0.1976
 6893W        W23027   4.097   7.679  11.979 -0.3754 -0.2039  0.0807
 6894W        W23028  15.529   2.670   1.572 -0.1459 -0.3315  0.1031
 6895W        W23029   6.690   8.842  14.577  0.1319 -0.0191 -0.0676
 6896W        W23030  14.059   5.183   3.590 -0.1043  0.0567 -0.1393
 6897W        W23031  11.728  18.191  14.509 -0.4872  0.0032  0.1780
 6898W        W23032  13.040  18.844   4.658  0.2454  0.2339 -0.1624
 6899W        W23033  15.796   9.911  11.976 -0.0420 -0.0695 -0.0728
 6900W        W23034   1.459  15.814  14.009 -0.0428 -0.0538 -0.0687
 6901W        W23035   1.062   4.289  10.932 -0.0040  0.2350 -0.1401
 6902W        W23036   1.767   1.584   2.676  0.3660 -0.1620  0.0246
 6903W        W23037  14.541   3.023  14.554 -0.0963  0.1841  0.2818
 6904W        W23038   5.913   2.763  11.568 -0.2004  0.0103  0.0149
 6905W        W23039  18.335   7.137   4.523 -0.0304 -0.0462 -0.1390
 6906W        W23040   1.129  17.124  11.371 -0.3061 -0.1220  0.2204
 6907W        W23041   2.747  11.282  14.828  0.1351  0.0874 -0.1596
 6908W        W23042  14.490  19.176  10.924 -0.2111  0.3609 -0.0294
 6909W        W23043  15.818   3.340  14.290  0.3469 -0.2023  0.1120
 6910W        W23044  10.175   6.475  11.292  0.1276 -0.1096  0.0751
 6911W        W23045   3.457   7.592  12.741  0.3498  0.0615  0.2806
 6912W        W23046  13.160   5.006   1.666 -0.4269 -0.2399  0.2013
 6913W        W23047   9.519   6.070   2.137  0.1168  0.0053 -0.1312
 6914W        W23048  16.489  15.573  15.011 -0.2480 -0.0029 -0.1245
 6915W        W23049  12.649  15.449   5.103  0.1123  0.1020 -0.0791
 6916W        W23050   8.021  16.854  11.593 -0.1181 -0.0605  0.0000
 6917W        W23051   1.873  12.383   2.563 -0.1949  0.0764  0.2030
 6918W        W23052   5.650  18.202   9.486  0.0554 -0.1436  0.0931
 6919W        W23053   6.551  12.616   4.921  0.1328  0.1247  0.0809
 6920W        W23054   2.127   2.469  14.617 -0.0012 -0.0458  0.1197
 6921W        W23055   9.425  11.170   2.915 -0.0295 -0.0279  0.0463
 6922W        W23056  17.307  16.664   1.695  0.1810  0.4065  0.0903
 6923W        W23057   6.131   4.589  13.476  0.3068  0.1221  0.1821
 6924W        W23058   4.931  15.261  10.177  0.0263 -0.2655 -0.0404
 6925W        W23059   0.004   5.155   9.858 -0.1043 -0.1860  0.0807
 6926W        W23060   3.934   1.466  12.859  0.0378  0.0417  0.0880
 6927W        W23061  10.112   9.962  12.174 -0.2668  0.0567  0.0367
 6928W        W23062  18.982  10.791  12.216  0.0209  0.0487 -0.0310
 6929W        W23063  16.059  18.018  14.162  0.0697 -0.1117 -0.0812
 6930W        W23064  17.675  19.083   5.893 -0.0864  0.1366 -0.1667
 6931W        W23065  12.108   8.289   3.964  0.1158 -0.0683  0.2940
 6932W        W23066  15.279   7.966  13.046 -0.3962 -0.2158 -0.1083
 6933W        W23067   9.060   7.812   1.812 -0.1252  0.1412  0.0918
 6934W        W23068  15.901   2.958   0.086  0.0336  0.0256  0.0095
 6935W        W23069  19.157   8.945  11.398 -0.2254 -0.4156 -0.1466
 6936W        W23070  16.451  11.064  14.720  0.0103  0.0128 -0.0632
 6937W        W23071   3.318   7.776  13.842  0.3179  0.0087 -0.0460
 6938W        W23072  18.361   5.928  14.379 -0.2591  0.0697  0.2310
 6939W        W23073   4.346   6.899   1.272  0.1685  0.2416 -0.1368
 6940W        W23074  13.524   9.354   4.104 -0.2092 -0.0342  0.2647
 6941W        W23075  12.766  14.023   4.838 -0.1161 -0.0195 -0.0892
 6942W        W23076   1.912  11.166   5.316 -0.0752 -0.0025  0.2225
 6943W        W23077   7.941  14.848  10.957 -0.1363 -0.0826 -0.1635
 6944W        W23078   1.617   2.383  10.678  0.2452  0.0387  0.1649
 6945W        W23079   3.113   6.866  14.001 -0.3688 -0.2223 -0.0806
 6946W        W23080  14.502  17.260  12.706 -0.1593  0.0440  0.1355
 6947W        W23081   8.669   6.854  14.201 -0.0397 -0.0689  0.1297
 6948W        W23082  10.012  17.683   2.459 -0.1990 -0.0630 -0.0655
 6949W        W23083   5.506  17.125   1.642 -0.1996  0.0261 -0.1123
 6950W        W23084  14.566  10.548  12.855  0.1959 -0.3840  0.2537
 6951W        W23085   3.552  12.758  13.926 -0.2599  0.3345 -0.1544
 6952W        W23086   5.028  14.260  14.428 -0.1185 -0.2592 -0.2288
 6953W        W23087   0.023  10.681  14.223  0.0406 -0.1179  0.3973
 6954W        W23088   1.291  11.770  12.773  0.1134  0.2326 -0.1643
 6955W        W23089   5.057  16.384  12.451 -0.3202 -0.1398  0.1884
 6956W        W23090   8.522  11.215   2.660  0.0937 -0.1779  0.2626
 6957W        W23091  17.111  19.058  12.255 -0.2079 -0.4591  0.2933
 6958W        W23092   7.487   2.763   0.554 -0.0036  0.0175 -0.0677
 6959W        W23093   8.931   5.646  10.237  0.2738  0.0165  0.2308
 6960W        W23094   4.204   9.497   2.720 -0.2480  0.0621 -0.1299
 6961W        W23095   1.152   5.087  12.275 -0.3648 -0.0438  0.1992
 6962W        W23096  14.490   9.915   3.166 -0.2707 -0.1061 -0.2762
 6963W        W23097   2.554  12.857   1.058  0.3393  0.0080 -0.2743
 6964W        W23098   2.339  15.620   1.405  0.0711  0.2627  0.0649
 6965W        W23099   9.389  15.490   4.430  0.1459  0.0483 -0.0611
 6966W        W23100  17.830  14.041  13.063 -0.1168 -0.1067  0.0867
 6967W        W23101   3.106  12.716  13.425 -0.0865  0.0387 -0.2221
 6968W        W23102  10.700  10.310   2.617 -0.0470  0.0862  0.0349
 6969W        W23103   0.720   2.404   5.476  0.0385 -0.1252 -0.0866
 6970W        W23104  17.535  17.675  10.639 -0.0479 -0.0138  0.1631
 6971W        W23105  16.695  15.770   3.172 -0.1201  0.2007 -0.0503
 6972W        W23106   9.288   8.863  13.562 -0.1914  0.0448 -0.2459
 6973W        W23107   6.296  10.813  10.602 -0.0552  0.0617 -0.1375
 6974W        W23108  14.526  13.526   3.090 -0.1903  0.2309 -0.2105
 6975W        W23109  13.556  18.931  14.777 -0.1321  0.1277 -0.2091
 6976W        W23110  18.339  10.222  13.599 -0.1278  0.2928  0.0431
 6977W        W23111   5.304   8.689   9.079  0.1153 -0.1393  0.2443
 6978W        W23112   1.458  17.776   4.533  0.2101 -0.0068 -0.1736
 6979W        W23113   9.013  10.738   4.890 -0.0202 -0.1304  0.0560
 6980W        W23114  11.097  12.837   2.347  0.0761 -0.0881 -0.1555
 6981W        W23115  13.230   6.098  11.657 -0.4932 -0.2057 -0.2730
 6982W        W23116   3.084   7.229  15.018 -0.0232  0.0830 -0.1529
 6983W        W23117   2.135   8.299   3.834 -0.3702 -0.0289  0.1908
 6984W        W23118  17.998  13.220  10.703  0.1944 -0.1735  0.1261
 6985W        W23119   9.864   0.236  14.920  0.1955  0.0235 -0.1584
 6986W        W23120   7.699  10.688   0.944  0.3229 -0.0551  0.2692
 6987W        W23121  12.618   1.069   2.403 -0.2619 -0.0877 -0.0671
 6988W        W23122  17.701   5.190   2.875 -0.4592  0.0026  0.1219
 6989W        W23123   0.708   6.093   2.776 -0.1358  0.1776  0.3796
 6990W        W23124  11.497   2.509   0.076  0.0033  0.2172 -0.1696
 6991W        W23125   7.773  11.827  13.046 -0.0855  0.2274  0.0593
 6992W        W23126   5.447   1.662  10.748  0.0523 -0.0600  0.2085
 6993W        W23127  15.190   4.456   3.484  0.1166 -0.0613 -0.1308
 6994W        W23128   6.322  11.610   2.820 -0.0344 -0.0599  0.1787
 6995W        W23129  17.442  15.144   4.519  0.1839 -0.0448  0.0548
 6996W        W23130   8.829   5.521   1.648 -0.1503  0.2563  0.1735
 6997W        W23131   1.339  11.630  12.277 -0.0126  0.0361 -0.2937
 6998W        W23132   3.175  18.738   0.105 -0.1212  0.1896 -0.1259
 6999W        W23133   9.030   1.683   9.909  0.0941 -0.1538  0.0723
 7000W        W23134   9.274  12.202  11.836  0.1185 -0.0078  0.1950
 7001W        W23135   5.151   3.908  11.005  0.0508 -0.0627 -0.1691
 7002W        W23136  12.204  10.236  13.578  0.1040  0.0424 -0.0009
 7003W        W23137  11.691  16.929  10.945  0.1032  0.0572 -0.1671
 7004W        W23138   7.933  10.391   2.498 -0.2322 -0.0988 -0.0409
 7005W        W23139   5.714   8.738  10.000 -0.3513  0.4742  0.0051
 7006W        W23140   7.065   8.000  14.062  0.1856  0.0914  0.0069
 7007W        W23141  16.999   7.559   4.013 -0.1537  0.0106 -0.1968
 7008W        W23142  15.041   6.940   1.227  0.0879  0.0922 -0.2053
 7009W        W23143  13.524   4.650   4.642  0.3495 -0.0548  0.0713
 7010W        W23144  15.437   1.049  12.631 -0.1405 -0.2451 -0.0327
 7011W        W23145   4.030   3.154   2.177  0.0933 -0.2686 -0.2819
 7012W        W23146  14.200  11.489  12.064 -0.1938 -0.1070 -0.0090
 7013W        W23147  16.396   3.714  12.003  0.1810 -0.1926 -0.1062
 7014W        W23148  17.572  13.006  13.361  0.1885  0.2110  0.2007
 7015W        W23149  12.827  11.634   0.566  0.0077  0.1105  0.1094
 7016W        W23150   3.107  14.091   5.119 -0.1668  0.2102  0.2031
 7017W        W23151  10.308   8.134  12.831 -0.0870 -0.0207  0.0030
 7018W        W23152   2.586   8.549   4.388  0.0110 -0.1220  0.1244
 7019W        W23153   1.475  10.769   1.599  0.2585  0.0663 -0.1546
 7020W        W23154  18.443   9.467   2.184  0.2711 -0.2993  0.1175
 7021W        W23155   8.796   3.367   4.410  0.1829  0.1321  0.3030
 7022W        W23156   6.633  14.499   2.654 -0.2402  0.0016 -0.0798
 7023W        W23157  15.234   9.467  13.899 -0.1593  0.1530 -0.0384
 7024W        W23158   2.856   4.811   0.967  0.1532 -0.1750 -0.1632
 7025W        W23159   3.549   1.978   4.679 -0.3202 -0.1740 -0.1300
 7026W        W23160  16.407   1.763  14.715 -0.2028 -0.2708  0.0420
 7027W        W23161  11.777  11.624   5.214  0.1668  0.3056  0.1506
 7028W        W23162  18.516   0.714  12.903 -0.4512 -0.1881 -0.1196
 7029W        W23163   3.552  13.287  11.189  0.0037  0.1747 -0.2219
 7030W        W23164   5.467   8.326  12.498 -0.1277 -0.0294 -0.0103
 7031W        W23165  14.299   7.279   3.230 -0.2628 -0.4722 -0.3669
 7032W        W23166   0.403  14.360   5.165  0.0314 -0.2026 -0.2162
 7033W        W23167   1.448   0.296   3.094  0.1773 -0.3429  0.0236
 7034W        W23168  15.313  12.155   3.195  0.1663  0.0119  0.1959
 7035W        W23169   9.348  14.895   1.586  0.0942  0.1792  0.0362
 7036W        W23170  18.477  12.609   4.358 -0.0804  0.0219  0.5805
 7037W        W23171  16.014   4.041  12.680  0.1887  0.3389 -0.0459
 7038W        W23172  17.430   9.206   1.161  0.0330  0.1496 -0.0902
 7039W        W23173  15.202  16.644   4.350 -0.1580 -0.0311  0.0722
 7040W        W23174  11.298   5.581  12.617  0.2360  0.1652  0.2881
 7041W        W23175  10.903   8.478   2.590 -0.0708 -0.2032  0.1160
 7042W        W23176   8.585   3.142  13.733  0.3786 -0.1620  0.2002
 7043W        W23177  15.345   5.886  13.492  0.2310 -0.1798 -0.1173
 7044W        W23178   9.826   8.226   3.927 -0.2113  0.5858  0.0454
 7045W        W23179   7.697  10.995  10.953 -0.0707  0.0213 -0.1661
 7046W        W23180   5.182   6.654  12.482 -0.1424  0.3336 -0.0084
 7047W        W23181   5.229   1.006  12.858  0.4925  0.0555 -0.3070
 7048W        W23182  13.433  12.874  11.479  0.1371 -0.0965 -0.1984
 7049W        W23183   9.683  16.754  13.435  0.2634 -0.1391  0.2812
 7050W        W23184   2.666  17.547   4.936  0.4209  0.2784  0.2966
 7051W        W23185   2.350   7.447   2.185 -0.0365  0.0883 -0.1028
 7052W        W23186   9.178   6.552  12.640 -0.2231 -0.0414  0.2561
 7053W        W23187   0.488  16.518  11.371  0.0239 -0.1955  0.0251
 7054W        W23188   1.913   3.561   1.865  0.0697 -0.0168  0.0341
 7055W        W23189   4.318   0.968  13.682  0.1916  0.0769  0.1211
 7056W        W23190   8.613   9.935   3.077 -0.0673 -0.0893  0.1030
 7057W        W23191   4.427  12.018   4.396 -0.0625 -0.0058 -0.0918
 7058W        W23192   1.543   0.093  13.248 -0.3264 -0.1810 -0.2122
 7059W        W23193   5.680   9.805  13.998  0.4297 -0.1326 -0.0108
 7060W        W23194   1.245   8.864   4.155  0.3394  0.0382  0.0986
 7061W        W23195  13.085   8.773  10.473 -0.0179  0.1872  0.0756
 7062W        W23196   5.070   4.170  12.347  0.0053  0.1235 -0.2011
 7063W        W23197   4.565  15.415   3.776 -0.3825 -0.0210  0.2364
 7064W        W23198   7.001   2.308   2.669  0.1896 -0.2802 -0.4703
 7065W        W23199  17.095  13.733   5.872  0.0472 -0.3359  0.0590
 7066W        W23200  10.300   5.376  11.867  0.0325 -0.2128 -0.1477
 7067W        W23201  12.458   4.631  12.485  0.1137  0.3378 -0.2077
 7068W        W23202   7.797   4.783   0.776  0.2685  0.1236  0.0814
 7069W        W23203  10.962  11.394   2.233 -0.4909  0.3463  0.3697
 7070W        W23204  11.357  10.179  14.242  0.1853  0.0099 -0.2110
 7071W        W23205   2.575   7.717   1.442 -0.2032  0.0487  0.1997
 7072W        W23206  16.702  16.534  14.637 -0.0817  0.0306  0.3444
 7073W        W23207  16.620   3.750   2.775  0.1432  0.4173 -0.1686
 7074W        W23208  16.823  10.395  10.049  0.2962  0.1969  0.3305
 7075W        W23209  10.167  13.411   4.895  0.1294 -0.1000  0.0911
 7076W        W23210   8.940  18.365  11.003  0.1141  0.0470  0.1298
 7077W        W23211  11.071  17.089  11.653 -0.3402 -0.2306 -0.2142
 7078W        W23212   1.863   7.059   3.487  0.0461 -0.0981  0.0944
 7079W        W23213  13.775   0.046   1.648 -0.0334 -0.2338 -0.0886
 7080W        W23214  14.152   8.996   4.562 -0.0384 -0.0273  0.1591
 7081W        W23215   0.474   5.185   4.162 -0.1642 -0.3830 -0.4051
 7082W        W23216  16.918  10.608  10.938 -0.1447  0.4961  0.0426
 7083W        W23217  13.439  16.581   0.331 -0.1754  0.2837 -0.0604
 7084W        W23218   3.137  14.273  12.421 -0.2237 -0.1502 -0.0317
 7085W        W23219  10.131   9.021  14.206  0.1356 -0.0167 -0.3530
 7086W        W23220  10.349  14.788   9.729  0.1792  0.1627  0.3755
 7087W        W23221  10.347  12.061  13.316 -0.1738  0.2044 -0.1302
 7088W        W23222  13.899   0.454  13.168  0.2103 -0.0499 -0.2515
 7089W        W23223   9.843   1.476  12.222  0.1020 -0.1144  0.1436
 7090W        W23224  13.472  14.940   1.795  0.1105 -0.0622  0.2534
 7091W        W23225   8.817   3.143  12.895  0.1104 -0.1874  0.1338
 7092W        W23226   8.040  19.224   0.922  0.1641 -0.2288  0.1873
 7093W        W23227  17.488  17.775   0.980  0.0104  0.1530  0.2008
 7094W        W23228   7.919   3.967  11.499  0.3919  0.5216 -0.2402
 7095W        W23229  16.882   4.215  11.355  0.1286  0.1638 -0.1050
 7096W        W23230   0.034   7.832  14.014  0.2281  0.0744  0.1060
 7097W        W23231  10.722   1.162   1.689  0.2089 -0.0323  0.2634
 7098W        W23232  13.688  11.925  14.441 -0.1755 -0.0064 -0.1518
 7099W        W23233   5.208  10.701   1.881  0.1138  0.3771 -0.1108
 7100W        W23234  10.530  14.361   1.360  0.1142  0.0744 -0.1039
 7101W        W23235  12.625  10.308   0.198 -0.1611  0.0764 -0.1227
 7102W        W23236  17.148   0.391   0.981  0.0986  0.2585 -0.0168
 7103W        W23237  18.353  13.222   0.657  0.2508 -0.1761 -0.0350
 7104W        W23238   3.499   6.097  14.655 -0.2337 -0.2552  0.2622
 7105W        W23239   0.463   3.817  10.675  0.0741 -0.2270  0.1693
 7106W        W23240   2.274   4.418   2.331  0.2541 -0.0494 -0.3598
 7107W        W23241  10.148  15.447   1.702 -0.5009 -0.0900 -0.2102
 7108W        W23242   3.601   1.862  13.744  0.3314 -0.4123 -0.0099
 7109W        W23243  10.793  14.305  12.018 -0.0223 -0.0597 -0.1445
 7110W        W23244  13.454   3.969  12.616 -0.0228  0.0081 -0.1478
 7111W        W23245   3.152  17.944   0.855 -0.1064 -0.4135  0.0352
 7112W        W23246  16.723   8.293  10.586 -0.0234 -0.1961  0.1322
 7113W        W23247   7.142   3.669  14.253  0.0181  0.1506  0.0335
 7114W        W23248  14.357  12.279   0.034 -0.1837  0.2097 -0.1597
 7115W        W23249   1.593   4.426  11.261  0.0371 -0.0792 -0.3235
 7116W        W23250   9.437   0.596  13.847 -0.1818 -0.1731 -0.0826
 7117W        W23251   5.893  17.173   5.409 -0.1954  0.2178  0.0601
 7118W        W23252  15.015  15.386  10.897  0.0573 -0.0357  0.0086
 7119W        W23253   5.777   2.149   3.815  0.2847  0.1789 -0.0144
 7120W        W23254   1.933  14.119  12.342 -0.0600  0.3615 -0.0086
 7121W        W23255  11.797   8.004   3.644 -0.2600 -0.1256 -0.2119
 7122W        W23256   1.030  16.701  14.120  0.0206 -0.3458 -0.1674
 7123W        W23257  10.305  15.689  13.782 -0.3683  0.0425 -0.0415
 7124W        W23258   3.295  13.667   1.171 -0.0539 -0.2189  0.0126
 7125W        W23259  14.357  13.453   4.075  0.2207 -0.1367 -0.1573
 7126W        W23260  15.849   5.088  14.154 -0.1961  0.0009 -0.0285
 7127W        W23261  13.431   4.558   1.072 -0.0723 -0.2968 -0.5212
 7128W        W23262   6.444  18.203  12.452  0.0591  0.0761 -0.0297
 7129W        W23263   5.428   8.305   0.376 -0.3012 -0.1361 -0.2662
 7130W        W23264  15.916  16.107   2.601 -0.2917 -0.4249  0.0430
 7131W        W23265  15.634   9.378   0.676  0.0427 -0.2081 -0.0015
 7132W        W23266   0.739   1.097  11.459 -0.2153  0.0610 -0.1745
 7133W        W23267  17.638  19.074   9.985  0.2130 -0.2050  0.1514
 7134W        W23268   7.268   6.446   3.928  0.1828 -0.0193  0.0902
 7135W        W23269   3.505  13.631  13.575 -0.0856  0.1937  0.0596
 7136W        W23270   1.106  18.805  10.711  0.3627 -0.2476 -0.2754
 7137W        W23271   0.988  14.356  11.322  0.0788  0.2666 -0.3365
 7138W        W23272  16.143  16.957  13.357 -0.2105  0.5567  0.0331
 7139W        W23273  11.166   1.347   2.734  0.0050  0.2250 -0.0448
 7140W        W23274  15.568   4.428   5.700  0.0791  0.0789  0.0300
 7141W        W23275  13.228   7.136  14.204 -0.0470  0.0988 -0.1245
 7142W        W23276  18.333  11.957  13.968 -0.0894 -0.0494 -0.1063
 7143W        W23277   4.123   8.456  11.963  0.2664 -0.2017 -0.1526
 7144W        W23278  14.313   0.935  14.350  0.0518  0.0390 -0.0154
 7145W        W23279   7.557   4.546  11.518 -0.0949  0.1512 -0.1198
 7146W        W23280  16.461   1.008   3.779  0.1771  0.0250 -0.3374
 7147W        W23281   1.127  17.455   2.702  0.0581  0.0176 -0.0037
 7148W        W23282   6.647   3.705   2.018 -0.0701  0.0947  0.1682
 7149W        W23283   1.435  14.470   0.401 -0.1795 -0.0079 -0.1288
 7150W        W23284   9.139  14.054   2.218 -0.0258  0.0900  0.0235
 7151W        W23285   9.422   5.686  14.210  0.3871  0.0312  0.2032
 7152W        W23286   5.695  17.454   0.827  0.0758 -0.4275  0.1134
 7153W        W23287   0.592  15.167  13.574 -0.1393 -0.1871 -0.0715
 7154W        W23288  11.239   3.802  13.690 -0.2193 -0.1579  0.2553
 7155W        W23289  16.698   4.637  12.761  0.0729 -0.0111 -0.2467
 7156W        W23290  12.302   7.506   4.793 -0.1312 -0.0894  0.2602
 7157W        W23291   9.568  16.239  13.036 -0.0227 -0.1900  0.1529
 7158W        W23292   5.186   1.528   4.788 -0.2443 -0.0308 -0.2554
 7159W        W23293  17.098   1.543  11.244  0.2851 -0.1560 -0.0875
 7160W        W23294  16.955   9.856  10.784  0.0901 -0.2138 -0.2679
 7161W        W23295  12.653  10.031  14.231 -0.1841 -0.1720  0.1325
 7162W        W23296   8.595  15.443   9.535  0.0477  0.2358  0.0355
 7163W        W23297  14.513   0.839   0.201 -0.1373 -0.0844  0.0771
 7164W        W23298  14.356   1.078   4.445  0.2097  0.0023 -0.3679
 7165W        W23299   0.661  18.711  11.154 -0.0991 -0.0262  0.2188
 7166W        W23300   0.692  14.455   5.513 -0.0549  0.1935 -0.2580
 7167W        W23301   5.663   1.801   5.482 -0.1456 -0.1280 -0.0085
 7168W        W23302  18.026  14.568   4.243  0.1597  0.2284 -0.0907
 7169W        W23303   7.207   3.420  13.687  0.0944 -0.1299 -0.1097
 7170W        W23304  11.952  16.442   6.059  0.0028  0.0247 -0.0193
 7171W        W23305   3.972   0.220   3.499 -0.0096 -0.1257  0.1873
 7172W        W23306  16.123  19.069   1.716 -0.1280  0.1654  0.0323
 7173W        W23307  17.480  11.945   1.498  0.2321 -0.1709  0.3243
 7174W        W23308  15.190  18.309  12.789 -0.1887  0.0666 -0.1694
 7175W        W23309   4.805   1.850   3.358  0.1384 -0.1152  0.1508
 7176W        W23310   1.657  13.887  14.150 -0.0663 -0.0190  0.3467
 7177W        W23311  10.049  10.360  10.488 -0.0817  0.4608  0.2876
 7178W        W23312   5.735  15.417   9.741  0.2861  0.0821 -0.0723
 7179W        W23313  12.765   1.825  14.990 -0.3387  0.4277 -0.0688
 7180W        W23314   0.379   5.978  13.654  0.0606 -0.0893  0.0839
 7181W        W23315  10.600   7.644  12.555  0.1684 -0.1752  0.0139
 7182W        W23316  11.842   9.250  12.956 -0.0576 -0.2545 -0.1149
 7183W        W23317   3.430   2.592  10.462 -0.2631 -0.3217 -0.1007
 7184W        W23318   1.828   9.317  13.007  0.1523 -0.3234 -0.0828
 7185W        W23319  14.176   1.115   3.905 -0.0909  0.0195  0.0796
 7186W        W23320  17.455   8.704   4.732 -0.3668 -0.1697  0.0256
 7187W        W23321  11.616  11.990   1.011 -0.3487 -0.0533  0.1358
 7188W        W23322  15.359   5.934  11.119 -0.1865 -0.3347  0.1548
 7189W        W23323   2.595  10.057   1.652  0.2251  0.3050 -0.0125
 7190W        W23324   0.823   3.062  12.323 -0.1389 -0.2862 -0.2147
 7191W        W23325   1.387  10.077  10.559  0.0572  0.1364  0.0820
 7192W        W23326   5.763  18.808  14.784  0.0214 -0.0830 -0.3969
 7193W        W23327  10.613   6.311  13.863  0.4870  0.1428 -0.0018
 7194W        W23328  12.457   6.928  10.127 -0.1601 -0.2964 -0.1665
 7195W        W23329  18.862  16.009   3.307 -0.1131 -0.2559 -0.0559
 7196W        W23330  17.063  10.767   1.098 -0.0400 -0.0768  0.1247
 7197W        W23331  10.501  11.801   3.199  0.0853  0.0396 -0.1763
 7198W        W23332   2.366   4.404  11.916  0.2547  0.4577  0.2984
 7199W        W23333  17.116   6.385  10.609  0.0659  0.0012 -0.1465
 7200W        W23334  11.823  14.384   0.586  0.0154 -0.3142 -0.2596
 7201W        W23335  10.264   5.495  11.392  0.0840  0.2845 -0.0146
 7202W        W23336   2.186   2.371   3.378  0.1699 -0.1617  0.2931
 7203W        W23337  13.823  18.985  11.524  0.1182  0.1742 -0.1172
 7204W        W23338   0.401   3.273  12.452 -0.0753 -0.1922  0.2573
 7205W        W23339   7.047   7.720   0.862  0.2363  0.0368 -0.1318
 7206W        W23340  11.171   9.669  14.299 -0.0021  0.0784  0.2885
 7207W        W23341   1.398   5.828   3.949 -0.2175  0.3715  0.1657
 7208W        W23342  12.661   3.295  13.227  0.1260 -0.0501  0.0375
 7209W        W23343   5.799  16.723   3.690  0.1462 -0.2049  0.1476
 7210W        W23344  17.172   1.545   0.495  0.0263 -0.2431  0.1739
 7211W        W23345  12.640   4.606  11.879  0.0751  0.0213 -0.0807
 7212W        W23346   3.851  13.722   4.004  0.1414 -0.2390 -0.1546
 7213W        W23347   9.529   5.328  14.580  0.1039  0.1805 -0.0289
 7214W        W23348   7.161  14.365  13.567 -0.0530 -0.1056 -0.0026
 7215W        W23349   4.289   3.576  14.182 -0.2326 -0.0228  0.0340
 7216W        W23350   2.203   3.926   2.448  0.2394  0.1066  0.1104
 7217W        W23351  14.432  12.267   0.911 -0.2536 -0.0940  0.1641
 7218W        W23352   2.396  15.140   1.156 -0.0862  0.0762  0.0115
 7219W        W23353  17.540  11.966  14.524  0.2509 -0.0338  0.0048
 7220W        W23354   2.582  10.105   0.601 -0.1299 -0.1137 -0.2030
 7221W        W23355  12.040  19.106   3.491 -0.1440 -0.1808  0.2057
 7222W        W23356  17.988   2.412  12.813  0.4915  0.2153  0.0436
 7223W        W23357  12.731   8.787  14.970  0.2152  0.1419  0.0635
 7224W        W23358   1.055   0.384   2.774  0.3160  0.1461  0.0608
 7225W        W23359  10.770  11.313  11.053 -0.0295 -0.0831  0.3371
 7226W        W23360  17.441  17.144   4.326  0.3356 -0.0900  0.0616
 7227W        W23361   5.012  16.138   2.963  0.2955 -0.0972 -0.1871
 7228W        W23362   1.179   7.384   3.983  0.2432  0.0503 -0.1075
 7229W        W23363  10.444  11.896  13.743  0.2089  0.0249 -0.2971
 7230W        W23364  11.498  16.083   4.890  0.1449 -0.2812 -0.2366
 7231W        W23365  19.143  16.673   1.434 -0.2285  0.1807  0.0023
 7232W        W23366   3.746   2.033  14.733  0.0604  0.0798 -0.0083
 7233W        W23367  14.690   8.914   5.384 -0.1480  0.1028 -0.0415
 7234W        W23368  16.292  10.262   3.545 -0.1614 -0.2489 -0.1553
 7235W        W23369   5.445  18.028   3.279 -0.4730 -0.1625 -0.0547
 7236W        W23370  10.363   0.771   3.339 -0.1592 -0.1883 -0.1380
 7237W        W23371   5.971  18.029   2.026  0.1489  0.0460  0.3008
 7238W        W23372  14.673   2.647  14.081  0.1406 -0.0638  0.5416
 7239W        W23373  18.560  15.287   4.002 -0.1452  0.1262  0.1177
 7240W        W23374   7.049  18.114  14.911  0.0101 -0.0403 -0.0241
 7241W        W23375  12.652  16.098  12.974 -0.2579  0.0891 -0.0401
 7242W        W23376  10.987  10.907  13.745  0.0941 -0.1427  0.0117
 7243W        W23377   5.291   7.240  12.295  0.1401  0.0344  0.1302
 7244W        W23378  12.100   5.605   2.137 -0.1026  0.4034  0.1953
 7245W        W23379  18.048  11.818   3.786  0.3168 -0.1490 -0.0681
 7246W        W23380  15.042   2.246  11.070  0.0207  0.3293 -0.3308
 7247W        W23381   0.290  14.878   3.208  0.1344 -0.1267 -0.1327
 7248W        W23382   3.842  17.950   1.623  0.1706 -0.1422  0.1057
 7249W        W23383   0.774   8.880  11.931 -0.2202  0.0916  0.1704
 7250W        W23384   9.264  10.475  11.033 -0.0832  0.0396  0.1502
 7251W        W23385  10.145  12.089   3.959 -0.0667 -0.0850 -0.2894
 7252W        W23386   7.203   3.775   5.276  0.0066  0.2528 -0.2443
 7253W        W23387  14.197   7.243   4.890  0.1574  0.2734 -0.0903
 7254W        W23388  10.000   2.212   1.252  0.1284  0.2909 -0.1003
 7255W        W23389  10.091   8.582   4.213 -0.2284  0.3683 -0.0099
 7256W        W23390   3.734  17.657   4.468 -0.1477  0.1937 -0.3374
 7257W        W23391  17.914  16.010   6.134 -0.1812 -0.2554  0.0995
 7258W        W23392  15.232   8.765  10.221 -0.2887  0.0406 -0.0051
 7259W        W23393  12.199  16.930   2.598  0.0773  0.1066  0.1290
 7260W        W23394   9.957  11.314   2.379 -0.0584 -0.0008 -0.0345
 7261W        W23395   9.960  11.355   5.100 -0.1061  0.2166  0.2521
 7262W        W23396   3.614  14.697   3.490 -0.1790  0.2517  0.1202
 7263W        W23397   2.547  10.683  12.071 -0.0527  0.0813 -0.1221
 7264W        W23398   7.011   7.376  12.150  0.0303 -0.1119 -0.0408
 7265W        W23399   1.003  15.267  10.617 -0.0877 -0.0609 -0.0575
 7266W        W23400  18.391   4.429   0.289 -0.0245 -0.0150 -0.0045
 7267W        W23401   3.859  13.341   3.696 -0.1614 -0.2036  0.3564
 7268W        W23402  16.827   4.338   9.936 -0.1692 -0.0428 -0.2004
 7269W        W23403   2.824   4.085   3.850  0.0607  0.0092  0.0500
 7270W        W23404  12.284  12.001  10.756 -0.1279 -0.1470  0.1275
 7271W        W23405  12.763   8.710   0.879 -0.1203  0.0170 -0.1367
 7272W        W23406  13.193   7.490  12.483  0.0810 -0.3578  0.3336
 7273W        W23407   3.274  10.441   4.499 -0.1845  0.1964 -0.1139
 7274W        W23408   3.708   4.204  11.678 -0.2328  0.4748 -0.1141
 7275W        W23409  12.695  12.191  13.661  0.1377  0.3726  0.0152
 7276W        W23410   7.524   8.366  14.752 -0.1269 -0.0284  0.1291
 7277W        W23411   7.582  10.465  12.275  0.0555 -0.0715  0.1910
 7278W        W23412  17.831   8.581   0.068 -0.2683  0.2142  0.2781
 7279W        W23413   9.439   7.774   4.245  0.0757 -0.1054  0.1130
 7280W        W23414   2.122  10.507  12.824 -0.3745 -0.0111  0.1970
 7281W        W23415   7.715   3.189  12.963 -0.0158 -0.0096 -0.1130
 7282W        W23416  17.153  14.375   1.039  0.3440  0.2774  0.2282
 7283W        W23417  18.592   7.897  10.030 -0.1642  0.0473  0.1451
 7284W        W23418  13.965   1.783  12.027  0.1958  0.2339 -0.2972
 7285W        W23419   5.869  15.218  11.682 -0.1769  0.0827 -0.0010
 7286W        W23420  18.173  18.683  13.237  0.3559  0.1235 -0.1153
 7287W        W23421   6.324  15.006   1.063 -0.3112 -0.0747 -0.3236
 7288W        W23422   7.956   3.007  10.335  0.3017 -0.1749  0.0369
 7289W        W23423  11.603  16.795  14.624  0.2198 -0.0301  0.1000
 7290W        W23424  17.218   6.308  13.206 -0.0219 -0.0923  0.1433
 7291W        W23425   6.732  14.835   3.067 -0.0695 -0.0105  0.0871
 7292W        W23426   6.370  17.953  13.263  0.0044 -0.0209  0.0106
 7293W        W23427  11.365  13.232   3.058 -0.1440  0.2034  0.1378
 7294W        W23428   5.064   6.999   3.885  0.4969 -0.2200  0.0044
 7295W        W23429   0.170  16.737   1.980  0.2265 -0.1141  0.2506
 7296W        W23430  13.998  19.116   3.309 -0.1383 -0.0215  0.1074
 7297W        W23431  14.599  11.156  10.031  0.1593 -0.2575  0.2790
 7298W        W23432  11.429  11.390   2.185  0.2740 -0.1296 -0.1021
 7299W        W23433   5.280  17.841   0.810 -0.0279 -0.3304  0.1911
 7300W        W23434  10.794   8.294  12.821 -0.0724 -0.0580 -0.0883
 7301W        W23435   4.204  10.702  12.502 -0.1125  0.0126  0.2181
 7302W        W23436   2.863  14.646  11.089 -0.4161  0.0191 -0.0367
 7303W        W23437   8.758  18.962   2.317 -0.2699  0.1722 -0.0111
 7304W        W23438  19.066   4.930   2.142  0.2630  0.0618 -0.0724
 7305W        W23439   8.807  17.859  10.907 -0.1386  0.3507  0.2755
 7306W        W23440  14.784   6.386  12.445  0.0573  0.2071 -0.2938
 7307W        W23441   1.424  12.193   1.584  0.5651  0.1509 -0.0656
 7308W        W23442   7.389   7.224  11.490  0.2391  0.2456 -0.1435
 7309W        W23443   8.678   1.513  11.434  0.2535 -0.1834  0.0088
 7310W        W23444   9.842   1.701  10.854 -0.1367 -0.1808 -0.1112
 7311W        W23445  12.497  14.976   0.302  0.0805 -0.0926 -0.1362
 7312W        W23446   0.653   6.666   0.734  0.3405  0.0355 -0.1785
 7313W        W23447   8.355  10.320  14.428 -0.1642  0.0439  0.1360
 7314W        W23448  15.278   6.997  14.947  0.0691 -0.1792 -0.0369
 7315W        W23449  11.867   1.736  11.450 -0.0223  0.0031  0.2673
 7316W        W23450   6.666  16.805  12.031 -0.1997 -0.1284  0.1459
 7317W        W23451   7.587  12.169  12.725  0.0494  0.0279 -0.1452
 7318W        W23452   9.847   4.378  13.146  0.3775 -0.1542  0.1608
 7319W        W23453  10.107   1.006  13.256 -0.0359 -0.0807 -0.1927
 7320W        W23454   7.605   9.701  11.207  0.1170  0.1185 -0.0507
 7321W        W23455   5.371   3.258  14.438 -0.0428  0.3451 -0.0592
 7322W        W23456  14.489   0.771   0.779  0.2905 -0.2280  0.2529
 7323W        W23457   8.614  13.731  12.526  0.0995  0.1246 -0.5433
 7324W        W23458  12.702   0.558  11.060  0.4314  0.0484  0.2081
 7325W        W23459  12.335   6.420  11.304 -0.1389  0.2814 -0.0963
 7326W        W23460   4.554  18.924   0.127 -0.1708 -0.1555 -0.1262
 7327W        W23461   0.425  17.547  14.549  0.1981  0.0437 -0.2091
 7328W        W23462  17.598  15.922   0.255  0.0541  0.0160 -0.5949
 7329W        W23463   4.814   6.657   0.853 -0.2955 -0.0314 -0.1676
 7330W        W23464   1.138   2.712   2.666 -0.3266  0.1499  0.1716
 7331W        W23465  12.616   7.586  13.466  0.2554  0.1864  0.3622
 7332W        W23466  18.841  18.297  10.690  0.1025  0.2996  0.1417
 7333W        W23467   3.371  19.151   3.319  0.1868  0.0511  0.1496
 7334W        W23468   0.998   6.478   2.561 -0.0896 -0.0161 -0.0980
 7335W        W23469   7.539  10.169   0.087 -0.2155  0.0971  0.0210
 7336W        W23470   9.660   1.667   4.188 -0.0474  0.4483  0.0372
 7337W        W23471  14.915   9.943   3.425 -0.1692  0.1441 -0.1474
 7338W        W23472  13.472  12.315  10.674 -0.0013  0.1278  0.2409
 7339W        W23473   4.749  10.525   2.008  0.0641 -0.0202  0.1058
 7340W        W23474  15.773  11.668  12.624 -0.1296 -0.1497 -0.0467
 7341W        W23475   0.930  14.942  14.110  0.2769 -0.1691  0.1006
 7342W        W23476   6.349   4.072   2.221  0.0440 -0.0217 -0.0262
 7343W        W23477   7.209   8.220  13.255 -0.1723 -0.0482  0.1507
 7344W        W23478  13.752   5.488   4.612  0.1261  0.1319 -0.0391
 7345W        W23479   9.780   6.148   1.023  0.1101  0.1811  0.2904
 7346W        W23480  11.267  13.797  14.151 -0.0111  0.1157 -0.0017
 7347W        W23481  19.069  15.876   0.825  0.0193  0.0707 -0.3239
 7348W        W23482   1.945   6.733  11.850  0.0688  0.0589  0.0531
 7349W        W23483   9.561  12.367  12.563  0.3689  0.0724 -0.4364
 7350W        W23484   5.678   3.554   9.463 -0.0285 -0.1237 -0.3982
 7351W        W23485  14.952   3.133  12.654 -0.1859  0.3004  0.0323
 7352W        W23486   1.317  11.613  13.371 -0.0114 -0.0817  0.1082
 7353W        W23487   9.814  10.109   4.024  0.1421  0.1510 -0.0787
 7354W        W23488   4.417   3.051  13.983 -0.2954 -0.2150 -0.0246
 7355W        W23489   9.926  12.012   2.557 -0.2560 -0.0264 -0.0076
 7356W        W23490  17.230   0.370  13.612 -0.2300 -0.0466  0.0508
 7357W        W23491   1.552   5.291   3.637  0.2250 -0.3053  0.0360
 7358W        W23492   1.622   8.588   2.767 -0.2793  0.3095  0.0056
 7359W        W23493   2.926   4.620  13.732  0.1958 -0.2246  0.0090
 7360W        W23494  17.089  13.636  13.641 -0.1593 -0.2599  0.1661
 7361W        W23495   7.267   0.757  12.802 -0.1325  0.3538  0.2224
 7362W        W23496  11.068   0.027   4.232  0.0034  0.1092 -0.1437
 7363W        W23497  19.059   3.805   1.546 -0.1116  0.1558  0.2835
 7364W        W23498   6.219   7.785  13.101 -0.2197 -0.1142  0.3159
 7365W        W23499   5.580   7.344   4.081 -0.1687  0.0637 -0.1420
 7366W        W23500  14.189   9.606   0.875 -0.1422 -0.2703 -0.1147
 7367W        W23501   1.981   9.063   0.055  0.2222  0.1333  0.2259
 7368W        W23502  17.871  17.274  12.336 -0.0424  0.4456  0.4360
 7369W        W23503  13.444   1.014   0.387  0.3693 -0.2205  0.0872
 7370W        W23504   1.796   9.506  14.960  0.0987 -0.1033 -0.0138
 7371W        W23505   1.207  15.089   1.588  0.0431 -0.0716 -0.1941
 7372W        W23506  15.075   9.414  12.905  0.1107  0.0170  0.1319
 7373W        W23507   0.067   3.403   1.816 -0.1278  0.1683 -0.0753
 7374W        W23508   6.816  10.152   0.757 -0.3144  0.1106 -0.3053
 7375W        W23509  13.054  17.919  14.044 -0.2018  0.1446 -0.0754
 7376W        W23510  10.515  14.799   2.934  0.1063 -0.3874 -0.3240
 7377W        W23511  14.077  10.346  14.911 -0.0047  0.1210  0.1746
 7378W        W23512  12.506  12.635   3.021 -0.0994 -0.0857 -0.2618
 7379W        W23513   6.056   4.910   2.371  0.2443 -0.0433 -0.0339
 7380W        W23514  11.072   0.029  11.433 -0.2240  0.0721 -0.1270
 7381W        W23515   4.517   6.843  13.256  0.3183 -0.1493 -0.1503
 7382W        W23516  14.656   5.457  11.454 -0.1067 -0.3329  0.4909
 7383W        W23517   1.386  14.098  11.256  0.1611  0.1896 -0.0568
 7384W        W23518   1.965   4.640   1.853 -0.0479  0.1125  0.2061
 7385W        W23519  11.802  17.245   0.626  0.2294 -0.1644  0.1376
 7386W        W23520  13.178  16.133  13.153 -0.0620 -0.1351 -0.2399
 7387W        W23521   5.478  11.387   1.289 -0.0578  0.0811 -0.1121
 7388W        W23522  10.520   2.558   1.473 -0.2000 -0.3160  0.0155
 7389W        W23523  13.532  17.061   5.501 -0.0440  0.1076  0.1802
 7390W        W23524   4.618   6.975  10.273  0.0145  0.0114 -0.2210
 7391W        W23525  14.384   4.111  10.078 -0.2392 -0.0946 -0.1314
 7392W        W23526   4.373  11.204  14.919 -0.2505 -0.0202  0.2235
 7393W        W23527  13.531   4.235   9.459 -0.1187 -0.1139 -0.2441
 7394W        W23528   7.114   8.098   2.810  0.2345 -0.0629 -0.0579
 7395W        W23529   5.350  18.123   3.759 -0.4337  0.1060 -0.0210
 7396W        W23530  18.519   3.219  11.352  0.0053 -0.1866  0.1324
 7397W        W23531  15.785  12.558  14.545 -0.2936 -0.2438  0.0346
 7398W        W23532  17.926  17.154  14.186  0.1397  0.0384 -0.3521
 7399W        W23533  17.919  15.943  11.169 -0.0144 -0.2275  0.2657
 7400W        W23534  16.967  16.787   0.472 -0.0667 -0.2825  0.3638
 7401W        W23535  15.965  13.845  14.378  0.1630 -0.4338  0.1491
 7402W        W23536  10.715   7.378   3.742 -0.1365  0.2094  0.2848
 7403W        W23537   0.400  11.773   4.279  0.3023  0.5551  0.2043
 7404W        W23538   9.196   2.101   1.950  0.1205 -0.1543 -0.0215
 7405W        W23539  14.990  14.490   1.525 -0.0715 -0.0251  0.2383
 7406W        W23540  12.332   5.257   1.791  0.0552  0.0851  0.3585
 7407W        W23541   5.989   0.231   4.337 -0.2566 -0.1321 -0.1278
 7408W        W23542   3.074   5.421   3.688  0.0568  0.3077 -0.1956
 7409W        W23543   9.363  17.062   3.003 -0.0193  0.2465  0.0185
 7410W        W23544  12.518  11.596  13.563  0.3480 -0.0054  0.1508
 7411W        W23545   6.682   5.339  13.353  0.0102 -0.1636 -0.1207
 7412W        W23546  13.946  10.292   1.432 -0.0919  0.0797  0.1359
 7413W        W23547   9.106   7.923  13.612  0.1975  0.0674  0.2767
 7414W        W23548  14.229  13.706   4.755  0.0044  0.2755  0.2365
 7415W        W23549   9.986  13.117   3.508  0.1895  0.0853  0.3634
 7416W        W23550   6.812   8.442   1.387 -0.4379  0.1785 -0.0850
 7417W        W23551   9.551  15.351   1.418 -0.0485 -0.3350  0.1701
 7418W        W23552  18.525   3.200   4.303  0.3962  0.2255  0.0708
 7419W        W23553  16.359  11.196  11.037  0.2503  0.0975  0.1501
 7420W        W23554   5.362   9.955   2.721 -0.1879 -0.1448  0.0416
 7421W        W23555  11.276  11.298  10.354  0.0781  0.0194  0.0642
 7422W        W23556   1.586   2.601   0.416  0.0994 -0.3413  0.0355
 7423W        W23557   0.901  14.492   2.081 -0.1681  0.0118  0.0240
 7424W        W23558   4.852  14.317   0.200  0.1579  0.1216 -0.5431
 7425W        W23559   1.486  17.412  13.309 -0.2057 -0.0201  0.1008
 7426W        W23560   1.078   0.967  14.847  0.0434  0.0644  0.1280
 7427W        W23561   1.527  14.456   2.911 -0.2091 -0.0868  0.0812
 7428W        W23562  10.469   3.194   0.153  0.0425 -0.0860 -0.1449
 7429W        W23563   1.304   9.646   0.593  0.1442 -0.1526 -0.0184
 7430W        W23564   0.762  11.401  11.571 -0.3164 -0.2240 -0.0697
 7431W        W23565   3.971  12.499   2.198  0.3272 -0.3012 -0.0399
 7432W        W23566   7.243   6.355   2.229 -0.0536  0.2817 -0.2173
 7433W        W23567   4.154  12.711  13.747 -0.1388  0.1493 -0.1009
 7434W        W23568   5.703  16.948  12.804  0.1203  0.3694 -0.0078
 7435W        W23569   2.842  18.628  12.970  0.1686 -0.0482  0.0087
 7436W        W23570  15.595   7.828  11.421  0.3253 -0.3359  0.0308
 7437W        W23571   7.203   0.030  12.020  0.0364  0.1082 -0.2620
 7438W        W23572   8.875  10.950  10.898 -0.1112  0.2436 -0.0910
 7439W        W23573   9.910  15.358   2.409  0.0709 -0.0442 -0.0769
 7440W        W23574  18.099   4.712  12.959  0.3691  0.1771 -0.0259
 7441W        W23575  19.189   9.292  13.514 -0.4862  0.1919  0.0121
 7442W        W23576   5.084   0.768  12.402 -0.0370  0.0807 -0.0588
 7443W        W23577  11.358  12.174   4.926  0.1246  0.1191 -0.1975
 7444W        W23578  16.292  11.355   3.491 -0.1396 -0.1926  0.0701
 7445W        W23579  10.847   7.846  11.202 -0.4172  0.0428 -0.4127
 7446W        W23580  16.654   8.155   1.071 -0.2119 -0.0553 -0.0267
 7447W        W23581  14.391   0.625   3.308  0.2102 -0.2569 -0.2110
 7448W        W23582   7.796  18.824   3.530  0.1558 -0.2265  0.0500
 7449W        W23583  17.663  18.988  13.927  0.0087  0.0176  0.2615
 7450W        W23584   1.356   1.943   0.142 -0.5361 -0.1039  0.2432
 7451W        W23585   2.305   9.757   2.376 -0.1721 -0.2093 -0.0710
 7452W        W23586  10.685  14.371   4.414  0.0003  0.0372 -0.1014
 7453W        W23587  18.565   1.694   0.958 -0.1519  0.1137 -0.1565
 7454W        W23588  17.389   0.558  11.366  0.3476 -0.0322  0.0228
 7455W        W23589   9.122   5.093   5.229  0.2627 -0.1576 -0.0971
 7456W        W23590  13.284  11.757  12.232  0.0210  0.1573 -0.1448
 7457W        W23591   9.604  12.528   3.969  0.2808 -0.1983 -0.1025
 7458W        W23592  10.835  19.156   2.323 -0.2734 -0.0608 -0.2832
 7459W        W23593  15.816  12.581   0.803  0.0890  0.2429 -0.0260
 7460W        W23594  10.474   3.153  12.415 -0.0339  0.0975 -0.1352
 7461W        W23595   6.043   0.817  14.194 -0.1482 -0.2630  0.0088
 7462W        W23596   2.817  13.559   3.922 -0.0236  0.2243 -0.5112
 7463W        W23597   4.919  11.660  13.353  0.1372 -0.2089  0.1305
 7464W        W23598   3.781  11.707  12.793  0.1250  0.3693  0.3397
 7465W        W23599   0.458   5.067   0.602 -0.0011 -0.0985 -0.0862
 7466W        W23600   8.492  12.824  11.759 -0.1967 -0.1439  0.2642
 7467W        W23601   9.278   2.953  14.367  0.0031  0.0154  0.0583
 7468W        W23602   6.950   6.190   1.893  0.2474 -0.1974  0.0558
 7469W        W23603  12.239   2.743  12.551 -0.0321  0.3950  0.2272
 7470W        W23604  17.330  12.259   1.905  0.0723 -0.0641  0.0909
 7471W        W23605   3.951   0.062  12.333  0.0439  0.3771  0.0313
 7472W        W23606   2.523   1.451   2.556 -0.2245 -0.0887 -0.1289
 7473W        W23607   4.183  18.630   0.310  0.2057  0.1823  0.0731
 7474W        W23608   0.621  14.687  13.757  0.1817 -0.1115 -0.0306
 7475W        W23609  17.984  18.175   0.931 -0.2102  0.1655 -0.0291
 7476W        W23610   7.959   9.290  13.086 -0.0424  0.3764  0.2292
 7477W        W23611   4.931  18.226   0.096  0.0239  0.0073 -0.1457
 7478W        W23612   0.490  18.244  10.375  0.0929 -0.1753  0.1854
 7479W        W23613  15.597   9.129  12.584 -0.2804 -0.0965  0.1783
 7480W        W23614  13.939   4.010  14.546 -0.3848  0.0894 -0.3344
 7481W        W23615   3.639   4.071   5.442  0.0678 -0.0951 -0.2013
 7482W        W23616   8.652   0.492   2.498 -0.1659 -0.2449  0.3289
 7483W        W23617   6.971  15.603  12.916  0.0389 -0.1797  0.1496
 7484W        W23618   4.456  17.191   1.882 -0.3247 -0.3885 -0.1798
 7485W        W23619   4.606  12.781   6.107 -0.0861 -0.3455  0.1900
 7486W        W23620  12.360  17.371  11.163  0.4211  0.1940  0.0805
 7487W        W23621   7.379  11.988   5.602 -0.2844  0.0694 -0.1396
 7488W        W23622   9.860  19.234  11.576  0.2318  0.1314 -0.0956
 7489W        W23623   8.544   8.662  12.706 -0.0237  0.1557 -0.1941
 7490W        W23624   1.079  18.666  12.588  0.3247  0.0275  0.0286
 7491W        W23625  17.839  17.824   5.133  0.3246  0.1923 -0.0138
 7492W        W23626  15.617  16.510  14.846 -0.4265 -0.3265 -0.0373
 7493W        W23627  15.832  16.281  14.438  0.0908  0.1287  0.3423
 7494W        W23628  11.764   2.805   1.227  0.1770  0.0670  0.1688
 7495W        W23629   3.748  11.664   3.120  0.2835 -0.1935  0.1260
 7496W        W23630   8.094   2.910   3.245  0.0151  0.2007  0.0056
 7497W        W23631   9.450  15.633   4.989  0.0821  0.0082 -0.1191
 7498W        W23632  14.722   6.899  13.158  0.2168 -0.0003  0.0666
 7499W        W23633  10.452   4.879  13.735 -0.1591  0.3908 -0.1784
 7500W        W23634  13.568  14.398  12.602 -0.0842 -0.0584  0.0650
 7501W        W23635  16.285   1.098  11.572  0.1994 -0.1341 -0.0961
 7502W        W23636  19.115   7.096  11.312  0.0114 -0.0490  0.0292
 7503W        W23637   8.838   9.706  11.314 -0.0710 -0.2151 -0.1615
 7504W        W23638   0.671  15.712   0.061  0.2880 -0.2364 -0.2375
 7505W        W23639   1.776  12.327  14.811  0.0610  0.1185  0.1267
 7506W        W23640   7.300  15.547   5.638 -0.1817  0.2515  0.2012
 7507W        W23641  11.296   0.794  12.979  0.0835  0.0015 -0.0739
 7508W        W23642   0.283   5.851  14.660 -0.0234  0.3064  0.0988
 7509W        W23643   4.298  14.898  11.012  0.0493  0.2172  0.2190
 7510W        W23644  15.517  10.642  11.509 -0.0856 -0.0534 -0.2449
 7511W        W23645   2.271   9.089   1.578  0.0070  0.0653  0.2743
 7512W        W23646  16.371   1.562   0.160  0.2279 -0.0508  0.0450
 7513W        W23647  14.324  18.115  14.781  0.2873 -0.0384  0.1076
 7514W        W23648   1.333  14.402   4.143 -0.0807 -0.1588  0.0796
 7515W        W23649  16.823   2.228  12.122 -0.1805  0.3815 -0.1323
 7516W        W23650   7.246   2.414   3.538 -0.2087  0.2843 -0.0769
 7517W        W23651  12.660   6.249   4.573  0.1580  0.3174 -0.0596
 7518W        W23652   3.519  18.824  10.455  0.0994 -0.1135  0.0868
 7519W        W23653  13.009  11.454  10.706 -0.0380  0.0548  0.1493
 7520W        W23654  16.318  13.957  11.712  0.0777 -0.0871  0.1752
 7521W        W23655  18.003   0.637   1.293 -0.1793 -0.0277 -0.1967
 7522W        W23656  10.739   5.971   1.459  0.0650  0.1778 -0.2749
 7523W        W23657   6.185  18.743  12.742 -0.0760 -0.2251 -0.0573
 7524W        W23658   4.168   2.554  11.909  0.0289 -0.2222  0.1869
 7525W        W23659   7.329   1.534  13.996  0.2899  0.0140  0.2299
 7526W        W23660  18.440  13.271   1.255  0.0589  0.0304  0.1399
 7527W        W23661  10.371   0.595  13.071 -0.1148 -0.0378  0.0614
 7528W        W23662  19.067   3.463  13.037  0.1748  0.1821  0.0646
 7529W        W23663   5.207   1.516  13.187 -0.1319  0.2215  0.3020
 7530W        W23664  16.803  10.378  14.357 -0.1313 -0.0855 -0.0807
 7531W        W23665  17.792  12.009  10.300  0.1246 -0.3325  0.2551
 7532W        W23666   6.382   3.796  12.207 -0.1495 -0.1112  0.0767
 7533W        W23667   2.328  14.396   4.583  0.3723 -0.0545  0.1428
 7534W        W23668  12.298   0.464  12.763  0.0624  0.0983  0.0259
 7535W        W23669  18.249  18.354  10.437 -0.2160  0.0772  0.1549
 7536W        W23670   4.981   7.113  13.667 -0.3310 -0.3244 -0.2415
 7537W        W23671   2.711  17.032  13.657  0.3931 -0.6066  0.1756
 7538W        W23672   8.162  10.750  14.186 -0.4574  0.1144  0.1293
 7539W        W23673   1.592   1.435  11.630 -0.2572  0.2731  0.2589
 7540W        W23674   8.064  15.750  13.090  0.1333 -0.1539  0.4242
 7541W        W23675  17.581  12.676  10.925 -0.0016 -0.0232  0.4600
 7542W        W23676  13.913   2.192   3.710 -0.2080 -0.1642 -0.3224
 7543W        W23677  11.175   4.256  13.368  0.2519 -0.2057 -0.0667
 7544W        W23678   7.231   6.590  13.744 -0.0203 -0.1142  0.1553
 7545W        W23679   1.621   5.328  14.320 -0.3529 -0.0444 -0.0707
 7546W        W23680   8.493   8.688   0.316  0.1440  0.2473  0.2144
 7547W        W23681  18.041   0.938   2.532 -0.0640 -0.1109 -0.3770
 7548W        W23682  12.323  16.295  14.840  0.0969  0.2497 -0.1196
 7549W        W23683  16.758   6.757  12.433  0.2571  0.0989  0.1092
 7550W        W23684   7.086  14.326   3.534  0.1959 -0.1881  0.0585
 7551W        W23685   1.356   5.658  13.970  0.0811  0.0642  0.1893
 7552W        W23686  16.246   3.637  13.983  0.2814  0.4533  0.1886
 7553W        W23687   5.796   9.292   4.172 -0.0447 -0.1620 -0.0173
 7554W        W23688  15.365   4.471  14.693  0.0130  0.3571 -0.1946
 7555W        W23689   3.538  11.559   2.586 -0.0640 -0.1150 -0.0971
 7556W        W23690   7.797  18.342  14.100 -0.2590  0.4168 -0.2180
 7557W        W23691  14.499   7.056   2.408 -0.1053 -0.3175  0.0930
 7558W        W23692   6.575  11.998  14.405  0.1435  0.0557  0.2214
 7559W        W23693   7.797   9.443   1.487 -0.0703  0.0414  0.1035
 7560W        W23694   7.092   2.409  10.334 -0.0213 -0.0641  0.0963
 7561W        W23695   6.755  10.849   2.444 -0.0258 -0.0171  0.1820
 7562W        W23696   8.840  10.146  13.940  0.0092  0.3749 -0.2247
 7563W        W23697   9.709   1.803   2.997 -0.0675  0.2252 -0.1399
 7564W        W23698   6.757  13.244   4.331 -0.2592 -0.1726 -0.3835
 7565W        W23699   2.715   4.949  10.138  0.2262 -0.2873  0.0032
 7566W        W23700  16.990   1.258   0.868  0.4100  0.2050  0.1400
 7567W        W23701   8.340   2.655   1.813 -0.1308 -0.1659 -0.0987
 7568W        W23702  17.830  15.798  12.011  0.1033 -0.2950 -0.1560
 7569W        W23703   8.142   4.654   3.374 -0.2100 -0.3662  0.1205
 7570W        W23704   1.859   3.840   3.378  0.1246  0.0481  0.2452
 7571W        W23705   1.918   2.133  12.301  0.2549  0.5301 -0.0733
 7572W        W23706   8.793  13.041  13.016  0.1686 -0.1307 -0.5737
 7573W        W23707  16.264   3.248   0.270 -0.1344 -0.0357 -0.0668
 7574W        W23708  17.303   6.969  11.741 -0.1492 -0.0525 -0.0132
 7575W        W23709   1.697   4.716   2.967 -0.2486 -0.1481  0.1912
 7576W        W23710   4.288   6.789  12.128 -0.3304 -0.4268  0.2041
 7577W        W23711  11.155   4.321  12.078 -0.0334 -0.0453  0.0917
 7578W        W23712  18.124   7.522   9.914  0.1355  0.5870 -0.2056
 7579W        W23713  18.002  19.225  11.203 -0.2536 -0.2479  0.1447
 7580W        W23714   0.855  10.320  11.436  0.0109  0.0624  0.0417
 7581W        W23715  16.782   6.642   0.216 -0.2799  0.1739 -0.1570
 7582W        W23716   7.242  10.204   3.522 -0.4272  0.1829 -0.2686
 7583W        W23717   4.041   7.265   3.887  0.1153 -0.0227 -0.4272
 7584W        W23718   3.346  10.137  12.558  0.0808 -0.1439 -0.5069
 7585W        W23719   7.356   6.393  14.181 -0.1296  0.2926 -0.1362
 7586W        W23720  19.140   1.725   5.280 -0.1215 -0.2739 -0.1603
 7587W        W23721   7.757   2.632  10.576  0.0901 -0.1248 -0.2341
 7588W        W23722  13.331  14.102   1.598 -0.2306 -0.1879 -0.0901
 7589W        W23723  13.138   0.005  14.829  0.1454  0.0423 -0.0534
 7590W        W23724   5.637  14.057  14.210  0.0232 -0.1201  0.0991
 7591W        W23725   0.284   3.312  11.622 -0.1126 -0.2693 -0.1493
 7592W        W23726  13.743   5.904  14.473 -0.0912  0.1455 -0.2795
 7593W        W23727   9.681   3.251   3.187 -0.0063  0.0454 -0.1338
 7594W        W23728   4.580   0.635  14.011 -0.0642  0.0634 -0.0694
 7595W        W23729   5.192   4.731   2.947 -0.1181  0.3430 -0.0338
 7596W        W23730  11.138  17.274  13.963 -0.0824 -0.0613  0.0069
 7597W        W23731  11.066   3.483  10.822 -0.1890 -0.0766 -0.2331
 7598W        W23732  16.483  12.932   3.950  0.1289 -0.3568  0.0625
 7599W        W23733   4.097   8.831   1.638 -0.1078 -0.2819 -0.3324
 7600W        W23734  17.581   6.962   3.611  0.0155  0.0535  0.2952
 7601W        W23735  14.412  18.987   2.974 -0.1826  0.1648 -0.0949
 7602W        W23736  16.217   2.695  13.026 -0.1375  0.1298 -0.0479
 7603W        W23737  17.403  16.863   0.121  0.1088  0.1617 -0.0645
 7604W        W23738  11.175  16.947  14.326 -0.1762  0.1923 -0.0307
 7605W        W23739  12.615   4.669  13.617  0.0777  0.2060  0.1980
 7606W        W23740  18.780  12.400   2.069  0.1793 -0.3027 -0.1289
 7607W        W23741   8.063  10.716  12.457 -0.1415 -0.1036 -0.2942
 7608W        W23742  16.247   9.028  11.685 -0.1229 -0.0412 -0.1757
 7609W        W23743   1.728   3.855   2.295 -0.3026 -0.4046  0.1811
 7610W        W23744   1.378  15.174   0.055 -0.0355 -0.0130 -0.2892
 7611W        W23745   2.965  15.338   0.042 -0.2664  0.0906  0.0623
 7612W        W23746  17.700   8.864   2.517 -0.1030 -0.0539  0.1637
 7613W        W23747  17.242  15.715  11.726 -0.0713 -0.4045  0.2691
 7614W        W23748  18.829   1.208  11.379 -0.0508 -0.0157 -0.2545
 7615W        W23749  12.929   8.749  12.623  0.1027  0.1122 -0.1428
 7616W        W23750  11.512  15.123   9.780 -0.0821 -0.0367  0.0188
 7617W        W23751  19.001  17.922   4.343  0.1803  0.0398  0.2605
 7618W        W23752   1.596   9.995  14.818  0.0955  0.0806 -0.1086
 7619W        W23753  18.788   1.688  14.977  0.0128  0.1722 -0.2909
 7620W        W23754   9.081  11.285   0.632 -0.2241  0.1044 -0.2038
 7621W        W23755   1.552  11.950   0.514  0.0106  0.0269  0.2291
 7622W        W23756  15.897   5.839  10.914  0.2651  0.1543  0.2276
 7623W        W23757   6.648  13.154  14.931 -0.0424  0.0181  0.0357
 7624W        W23758   6.755   6.144   2.345  0.2256 -0.1137 -0.1373
 7625W        W23759  19.084  16.772   2.439 -0.1026 -0.2144 -0.0338
 7626W        W23760  12.138  11.772  12.850 -0.1871  0.2008  0.2458
 7627W        W23761   3.272   3.959   4.148 -0.0775 -0.2840  0.1677
 7628W        W23762   1.965  14.094   4.876  0.0410  0.0917  0.2153
 7629W        W23763   2.148   5.866  12.439 -0.0200 -0.0785 -0.1178
 7630W        W23764  10.043   0.022  11.099 -0.2597  0.1712 -0.1267
 7631W        W23765   3.704  17.959   9.295  0.1012  0.0293 -0.2880
 7632W        W23766  12.417   2.415  14.911 -0.4515 -0.0905  0.3566
 7633W        W23767  14.660  13.873   5.401 -0.1478 -0.0174  0.1339
 7634W        W23768   2.795  11.911   1.428  0.2314  0.0295 -0.2693
 7635W        W23769   5.197   0.682   3.540  0.2190 -0.0418  0.3113
 7636W        W23770  13.354  13.190   0.620 -0.3243  0.1577  0.2577
 7637W        W23771   1.336  18.386   3.817 -0.1447  0.3094  0.2268
 7638W        W23772  12.928  14.417   2.445  0.3400 -0.0345  0.1161
 7639W        W23773  14.064  15.316   0.573 -0.0456 -0.2700 -0.1211
 7640W        W23774   5.489  10.074  14.861 -0.2589 -0.1265 -0.0709
 7641W        W23775   6.085   4.617  12.929  0.1892 -0.1250 -0.0198
 7642W        W23776  14.000  15.093   3.499  0.2568 -0.2158  0.1118
 7643W        W23777  12.015  17.032   4.320  0.0679 -0.0646  0.1663
 7644W        W23778   0.685   0.258  11.057 -0.0263 -0.2304 -0.0075
 7645W        W23779   4.925   9.958  12.677 -0.0878 -0.0074 -0.0901
 7646W        W23780   9.734   1.481   4.671  0.1085 -0.4906  0.2221
 7647W        W23781   1.864  13.698   4.627  0.0253 -0.2153  0.0466
 7648W        W23782   9.061  12.529   3.854  0.3174 -0.2935 -0.0358
 7649W        W23783  18.558  19.104   4.529 -0.1176  0.2661  0.1003
 7650W        W23784   1.415   0.342   4.410  0.0862  0.1591 -0.1422
 7651W        W23785  10.430   5.647  14.333  0.1056 -0.2046  0.0158
 7652W        W23786  15.433   6.573  11.233  0.3525  0.0614 -0.0198
 7653W        W23787  14.869  10.390   2.196  0.2133  0.0110 -0.1105
 7654W        W23788   3.073  11.031  10.443  0.1453  0.2132  0.2643
 7655W        W23789  18.178  10.440  14.538  0.0180 -0.2415  0.0585
 7656W        W23790   1.379  10.546  14.616  0.0165  0.1813  0.2778
 7657W        W23791   0.051   9.083   0.599 -0.3804  0.3019  0.1200
 7658W        W23792  16.486   7.969  14.584 -0.0310 -0.2162 -0.1431
 7659W        W23793  14.996  13.564   5.749 -0.2187  0.1328  0.2895
 7660W        W23794  17.294  16.276  12.417 -0.2427 -0.1615 -0.2173
 7661W        W23795  16.557   3.049   1.574 -0.2632  0.0346 -0.2611
 7662W        W23796   3.771   1.137   1.089  0.3396 -0.0956  0.1924
 7663W        W23797   8.347   9.710  14.114 -0.0627 -0.1394  0.1939
 7664W        W23798  18.368  18.062  12.076 -0.4140  0.2994  0.2276
 7665W        W23799   2.053  13.642   2.387  0.0873 -0.2942 -0.0720
 7666W        W23800   1.198  15.541   1.289  0.0688  0.3542  0.2723
 7667W        W23801  10.772   0.880  12.937  0.1942 -0.2064  0.1251
 7668W        W23802  15.223   9.896  12.633 -0.1672  0.1524 -0.5289
 7669W        W23803   8.389   0.056   2.323 -0.0321  0.1435  0.0124
 7670W        W23804   3.087  13.733  14.966 -0.0003  0.0679 -0.0995
 7671W        W23805  16.161  18.699   2.533  0.0989 -0.0779 -0.0198
 7672W        W23806  16.333   2.604  10.870 -0.4269  0.0714 -0.1156
 7673W        W23807  17.287   1.106   4.393 -0.2746 -0.0727 -0.0860
 7674W        W23808   4.428  11.889  12.231  0.0840 -0.2169  0.1072
 7675W        W23809   4.753   0.153  13.775 -0.1350  0.2029  0.0052
 7676W        W23810   8.338   7.717  12.433  0.2065 -0.0733 -0.2461
 7677W        W23811   3.983  11.768   4.492  0.4275  0.1328 -0.2481
 7678W        W23812   9.994  11.888  10.799 -0.1537  0.0261  0.0406
 7679W        W23813   0.659  14.690   2.473  0.1871  0.0933 -0.1116
 7680W        W23814   1.267   5.687   0.742  0.3236 -0.2138 -0.1242
 7681W        W23815  18.361   6.071  13.253 -0.0639 -0.2275  0.1584
 7682W        W23816  14.013   4.603   1.234 -0.0616 -0.1777 -0.2432
 7683W        W23817   4.252  10.889   5.358 -0.2345 -0.0366  0.2498
 7684W        W23818   6.349  10.991   1.248  0.0833  0.3303 -0.3083
 7685W        W23819   4.209   1.815  14.610 -0.0038 -0.2691 -0.0367
 7686W        W23820  16.084  16.559   0.121 -0.0221 -0.0991 -0.0136
 7687W        W23821  10.504   1.991  13.903  0.0492  0.3313  0.0718
 7688W        W23822  18.697   9.805  11.177 -0.1697  0.1832 -0.2738
 7689W        W23823  13.067  11.566   5.995  0.1391  0.1252  0.0082
 7690W        W23824  15.957   2.030   3.460  0.2710 -0.3080  0.2239
 7691W        W23825  15.197  17.108   3.547 -0.1121 -0.2412  0.1516
 7692W        W23826  19.063  13.810  10.865  0.0282 -0.1496  0.1069
 7693W        W23827  12.383  16.400  10.863  0.2589  0.0573  0.1489
 7694W        W23828  13.251  12.676  12.409 -0.0590 -0.0403  0.0038
 7695W        W23829   0.369   9.138  14.768 -0.2992  0.1660 -0.0070
 7696W        W23830  17.275   1.479   1.322  0.1385  0.1416 -0.1769
 7697W        W23831   3.020  15.055   4.829  0.1758  0.0728 -0.0578
 7698W        W23832  18.788   4.749  11.560 -0.2110 -0.4252  0.4738
 7699W        W23833  10.513  11.793  11.030  0.0195  0.1011 -0.0320
 7700W        W23834   0.016  13.633   4.193 -0.0773 -0.0940 -0.1857
 7701W        W23835   9.898  12.875   5.249 -0.2405 -0.0454 -0.0911
 7702W        W23836  11.888   2.604   3.959 -0.4862  0.0492 -0.0007
 7703W        W23837  11.278  14.933  11.631  0.1252 -0.0449 -0.1239
 7704W        W23838  17.886  14.163   2.080  0.1506  0.0855 -0.0979
 7705W        W23839  18.391   8.792  13.250  0.1433  0.1050 -0.3084
 7706W        W23840  11.180   2.603   4.430  0.3780 -0.0646 -0.0705
 7707W        W23841   5.860  11.573   0.234 -0.2817 -0.0147 -0.0802
 7708W        W23842  18.934   0.414   0.421  0.1025 -0.2051  0.0780
 7709W        W23843  11.890   1.729  13.704  0.1494  0.0798  0.3281
 7710W        W23844  10.093  18.089  11.196 -0.1922 -0.1213 -0.0060
 7711W        W23845   9.916   6.637   4.502 -0.4692  0.3749  0.0547
 7712W        W23846   2.095  10.124   0.686  0.1302  0.0720  0.0395
 7713W        W23847   4.596   6.713  14.436  0.1226  0.0042 -0.0247
 7714W        W23848  12.179  13.762   0.521  0.0637  0.2332  0.3813
 7715W        W23849  15.712  17.228   5.116 -0.0394 -0.0163 -0.0220
 7716W        W23850  11.489  16.688   1.983  0.0411  0.0607  0.0605
 7717W        W23851  11.977   2.728   4.828  0.1132  0.0144 -0.0768
 7718W        W23852  11.343  17.253   5.548  0.1716 -0.0065 -0.0404
 7719W        W23853  13.592  13.754   2.535  0.0719  0.2491 -0.3920
 7720W        W23854   2.254  12.817  10.764 -0.3259 -0.3248 -0.3848
 7721W        W23855   3.310   9.331   3.083  0.1315  0.2011 -0.1318
 7722W        W23856   4.061   2.374  11.409 -0.1251 -0.2010 -0.2478
 7723W        W23857   7.137  14.770   0.724  0.0737  0.2805  0.2388
 7724W        W23858  13.982   8.790  14.172 -0.1198  0.0211  0.1075
 7725W        W23859   3.862   9.803   3.513  0.1165 -0.1981 -0.0028
 7726W        W23860   1.907  13.273   4.272  0.0904  0.1283  0.0911
 7727W        W23861  11.380   3.405   0.540  0.1329 -0.0311 -0.0682
 7728W        W23862   1.933  11.230   0.024 -0.1407 -0.0099  0.1385
 7729W        W23863   5.175  11.182   4.593  0.0889 -0.2091 -0.3424
 7730W        W23864   1.113   5.808   2.973  0.2042 -0.1884  0.0173
 7731W        W23865   5.723   7.459  13.094 -0.0865 -0.2927 -0.0194
 7732W        W23866   6.723   2.052  11.673  0.0775 -0.1325 -0.0325
 7733W        W23867   4.283  15.850   1.697  0.4002 -0.0841 -0.1520
 7734W        W23868   2.512  18.660   3.648 -0.1758 -0.0403 -0.0177
 7735W        W23869  11.973  10.975  10.828  0.2058  0.0273  0.0607
 7736W        W23870  15.641  13.586   5.203 -0.2752  0.0595  0.3668
 7737W        W23871  10.088  11.229  12.854 -0.0602  0.3048  0.2708
 7738W        W23872   3.247   9.462   0.708 -0.0264  0.2631  0.2173
 7739W        W23873  18.997  12.409  12.192 -0.0062 -0.0704 -0.0937
 7740W        W23874  14.423  16.196  13.924 -0.1044 -0.6551 -0.2345
 7741W        W23875   4.200  17.770   3.548  0.0750 -0.1471 -0.0999
 7742W        W23876   5.599  12.178  12.115  0.1719  0.2819  0.0892
 7743W        W23877  13.105  15.796  11.706 -0.1538 -0.0380 -0.0046
 7744W        W23878  12.146   5.600  11.699  0.1325  0.3585 -0.0398
 7745W        W23879   1.241   8.737  11.016 -0.2471 -0.0641  0.0235
 7746W        W23880   5.803   2.676   3.773  0.1137 -0.1195 -0.1762
 7747W        W23881   8.299  13.841  13.009 -0.0247  0.0040 -0.4444
 7748W        W23882  14.729   7.070   3.331  0.1202  0.0739  0.0292
 7749W        W23883  16.097   6.993   3.765  0.1023  0.0155 -0.1561
 7750W        W23884  12.985   1.756  13.326  0.3415 -0.2957 -0.0813
 7751W        W23885  10.847   9.618  12.582  0.1834  0.2358  0.0032
 7752W        W23886   8.734  14.056   4.025 -0.2720  0.0948 -0.0298
 7753W        W23887  11.398  15.737   2.330  0.1192  0.0514  0.0159
 7754W        W23888   3.440   8.369   2.553  0.0339  0.0788  0.0915
 7755W        W23889  17.775   8.086  10.966  0.2320 -0.0871  0.0445
 7756W        W23890  16.325  13.326   5.664  0.0396  0.0535 -0.1545
 7757W        W23891  13.454   3.079   0.844  0.0490 -0.0142 -0.0779
 7758W        W23892   0.939   1.279  14.368 -0.0710 -0.0381  0.0932
 7759W        W23893   3.941   2.256  12.892  0.0861 -0.6268 -0.3084
 7760W        W23894  11.527   0.592   1.947  0.1184 -0.4241 -0.3491
 7761W        W23895  12.611  18.423   0.493 -0.0950  0.0851  0.1656
 7762W        W23896  17.116   0.599   3.507  0.3313 -0.0417  0.0092
 7763W        W23897  12.934   7.530   3.009  0.1175  0.0154 -0.1531
 7764W        W23898  17.356   5.485  10.039  0.2340 -0.0081  0.1212
 7765W        W23899   0.970  16.416   0.642  0.0555  0.0895  0.2672
 7766W        W23900   7.165   8.070   3.788  0.0688 -0.1210 -0.1708
 7767W        W23901  13.082   6.662  10.737 -0.2698 -0.1165  0.3656
 7768W        W23902   6.964  10.303  14.163 -0.0638  0.0520  0.1506
 7769W        W23903  17.788  16.913  13.635 -0.0474  0.1957  0.1770
 7770W        W23904   6.018  15.310   2.599 -0.0389  0.2265  0.1453
 7771W        W23905  15.675  15.278  11.631  0.0695  0.1517  0.4794
 7772W        W23906  13.032  12.667   2.081  0.4069 -0.0908 -0.0856
 7773W        W23907   8.729  10.892   0.335  0.0831  0.2856 -0.1547
 7774W        W23908  18.622  12.848   4.751 -0.1234 -0.0784  0.5084
 7775W        W23909   4.116  10.999   4.917 -0.1521  0.4393  0.1505
 7776W        W23910   2.315   7.711  11.732  0.4203 -0.0096  0.0308
 7777W        W23911   8.911  18.923   1.827 -0.1100 -0.0491 -0.3500
 7778W        W23912  16.390   9.879   4.729  0.2825  0.0014 -0.1904
 7779W        W23913   4.313   5.274   4.875  0.0716 -0.1493  0.1376
 7780W        W23914   2.701   8.634   0.908  0.2895 -0.3354  0.0664
 7781W        W23915  10.240  16.062   2.382  0.1683 -0.4669  0.1304
 7782W        W23916  16.416  12.316  13.163 -0.2849 -0.0671 -0.1845
 7783W        W23917   8.992   8.960   0.157  0.1518  0.3163 -0.0782
 7784W        W23918   2.188  12.576  14.571 -0.2379  0.0858 -0.0134
 7785W        W23919   3.237   3.668  13.257  0.1918 -0.4200 -0.0299
 7786W        W23920  12.199  17.835  14.177  0.0519 -0.0698  0.0678
 7787W        W23921  10.449   0.624  11.924 -0.0126 -0.0299  0.1061
 7788W        W23922  15.727  16.488  11.060 -0.1046  0.0745  0.1689
 7789W        W23923  11.991  14.629  13.711  0.1941 -0.2534 -0.0375
 7790W        W23924  14.933   1.520  14.873 -0.0960  0.2826 -0.1538
 7791W        W23925   3.613   3.575   0.709  0.3090  0.3374  0.1763
 7792W        W23926   3.284  13.722   5.859  0.2903  0.4765  0.2400
 7793W        W23927   0.072   6.449   4.541  0.1993  0.4075 -0.3299
 7794W        W23928   7.339   1.029  14.381  0.2160 -0.2338  0.3695
 7795W        W23929  18.319   9.394   4.247  0.2202  0.1471  0.0181
 7796W        W23930  16.402   0.198  14.778  0.2471  0.0971 -0.4214
 7797W        W23931   9.665  19.237  14.409  0.1561 -0.0133  0.0028
 7798W        W23932  15.850  11.489   0.379  0.0515 -0.3157  0.1185
 7799W        W23933   2.548   2.244  11.482  0.2231  0.0017  0.2368
 7800W        W23934   4.957   6.596  10.227  0.3632  0.0507  0.1110
 7801W        W23935   7.834   6.858   2.717 -0.0267  0.0118 -0.2884
 7802W        W23936   0.964  17.786  10.977  0.2964  0.3978  0.1866
 7803W        W23937   1.507  14.017  14.675  0.3424  0.0278 -0.2271
 7804W        W23938  18.189   2.333  13.985 -0.1950 -0.0981 -0.1218
 7805W        W23939   4.281   9.319  12.228  0.1479  0.0036  0.1618
 7806W        W23940   2.251   3.466  12.505  0.1305  0.1606 -0.0201
 7807W        W23941   1.871   0.635   1.164  0.0163 -0.1600  0.1214
 7808W        W23942  12.782  10.564   9.989  0.1601  0.1759 -0.0285
 7809W        W23943   2.185   3.015  14.686 -0.0344 -0.2547 -0.1395
 7810W        W23944  13.840  13.566  12.947 -0.2891  0.1816 -0.0494
 7811W        W23945  11.046  19.001  10.051 -0.0220 -0.0766  0.2045
 7812W        W23946  10.329   1.599  12.009 -0.1329  0.1371 -0.0673
 7813W        W23947  16.524  11.387   2.383 -0.0117 -0.1837  0.0060
 7814W        W23948   9.548   3.638   0.975 -0.1410  0.0685  0.1258
 7815W        W23949  12.314  12.192   5.377 -0.0200  0.2032 -0.2323
 7816W        W23950  15.344  13.585  12.481  0.0827  0.1662 -0.2074
 7817W        W23951   1.868   9.867  13.752 -0.0876  0.0714  0.0775
 7818W        W23952   0.740   3.869  11.191  0.2999  0.1370 -0.0969
 7819W        W23953   6.156  10.025   4.572  0.4452  0.1584 -0.2645
 7820W        W23954   5.040  15.592  13.656  0.1020 -0.0659  0.1197
 7821W        W23955   1.744   3.124   1.963  0.2033  0.0848  0.2085
 7822W        W23956   8.746   6.371  13.064  0.0256 -0.0739 -0.1400
 7823W        W23957  15.151  11.914  11.922  0.2576  0.2139 -0.2851
 7824W        W23958   5.028   2.423   3.436 -0.5536  0.2253  0.1123
 7825W        W23959  14.082   1.301  14.033 -0.2276  0.1443  0.2015
 7826W        W23960   6.338  17.410  10.312  0.0820 -0.0848  0.0316
 7827W        W23961   7.239  18.136   1.894  0.0167  0.0533  0.0730
 7828W        W23962   3.256  15.524   4.877 -0.2385  0.1129 -0.0541
 7829W        W23963   4.914  18.426  11.563  0.0949 -0.1747  0.0270
 7830W        W23964  10.141  15.395  12.200  0.2938  0.1154  0.5628
 7831W        W23965  18.941   0.024   3.204 -0.2049 -0.1144 -0.2694
 7832W        W23966  12.617  10.127  13.338 -0.4105 -0.0624  0.2775
 7833W        W23967   6.040   4.587  12.415  0.1429 -0.1146 -0.0072
 7834W        W23968  17.652   8.787   0.518 -0.1911  0.1255 -0.1694
 7835W        W23969  14.243   7.453  12.803  0.2206  0.1322 -0.2151
 7836W        W23970   4.514   0.304   9.471 -0.3942 -0.1184  0.1348
 7837W        W23971  13.138   3.808   2.584  0.2029 -0.2449  0.0713
 7838W        W23972  16.307  15.531   1.235 -0.0748 -0.2134  0.3052
 7839W        W23973   3.200  14.024  12.913  0.2673 -0.0138  0.0116
 7840W        W23974   3.009   7.661   5.169  0.0840 -0.0181  0.3391
 7841W        W23975   8.315  10.740  11.528 -0.0910 -0.2209 -0.1093
 7842W        W23976   1.977  13.154  11.687  0.1022  0.1295 -0.1914
 7843W        W23977   2.872   6.842  10.715 -0.2902  0.0143 -0.0709
 7844W        W23978   6.339  10.937  11.841 -0.0663 -0.1101  0.5224
 7845W        W23979  11.866  13.168  14.630 -0.0498 -0.0567  0.1678
 7846W        W23980   4.212   1.285   3.188 -0.3330  0.1037  0.1788
 7847W        W23981   9.633  16.661  10.157 -0.1889 -0.0681  0.1765
 7848W        W23982  15.609   1.071   2.944  0.0965 -0.1616 -0.0641
 7849W        W23983   9.389  12.165   2.936 -0.1213 -0.2070 -0.0591
 7850W        W23984  17.866  13.880  11.904  0.0115  0.0180 -0.0057
 7851W        W23985   1.443  17.855   2.554  0.1171  0.2199  0.1562
 7852W        W23986  19.094   6.346   2.404 -0.0121  0.0217 -0.2687
 7853W        W23987  11.935  17.590  14.945 -0.2578  0.0449 -0.0400
 7854W        W23988  17.428   8.120  11.274 -0.1407  0.1638  0.1972
 7855W        W23989   4.021   6.424  12.381  0.0917 -0.0595 -0.0680
 7856W        W23990  10.550  18.495  13.591  0.0221 -0.0434 -0.4919
 7857W        W23991   4.324  13.756  14.231  0.1651 -0.0709  0.2407
 7858W        W23992   7.109   5.460   1.872  0.2282  0.2607  0.0935
 7859W        W23993   1.282  12.480   0.701  0.0099  0.0565 -0.2919
 7860W        W23994   0.748   7.034   3.125 -0.3529 -0.0014 -0.0375
 7861W        W23995   0.581   8.852   4.955  0.1102 -0.1100  0.1074
 7862W        W23996   5.532  12.988   4.314 -0.1516  0.2652 -0.0439
 7863W        W23997  18.395  12.424   1.110  0.1044  0.0325  0.0769
 7864W        W23998  16.239  13.461  11.801  0.0693  0.0026  0.1061
 7865W        W23999  18.892  18.588  14.447 -0.1507 -0.2311 -0.4609
 7866W        W24000   7.754   3.230  11.370  0.0892  0.0259 -0.1746
 7867W        W24001  11.312   3.716   0.104  0.0399 -0.1938 -0.2074
 7868W        W24002  12.529  15.895   9.530 -0.1962  0.1837 -0.5060
 7869W        W24003   6.989  10.910   5.035 -0.2141  0.0684  0.3246
 7870W        W24004   4.028  12.436  14.873 -0.1516 -0.2126  0.0764
 7871W        W24005  13.775   3.166  14.308  0.0658  0.0540 -0.2446
 7872W        W24006   1.717   7.543  11.759 -0.1551  0.1034  0.3609
 7873W        W24007   2.979  16.062  14.770 -0.0216 -0.0794  0.2175
 7874W        W24008   8.092  15.798   3.451 -0.1832  0.1194 -0.1141
 7875W        W24009  15.230  16.572  12.554 -0.1132 -0.2449  0.3630
 7876W        W24010  15.109   5.554  13.141 -0.2085  0.2025 -0.0386
 7877W        W24011   1.749  12.237   3.734  0.2073  0.1847  0.0006
 7878W        W24012  18.395   8.470   2.421  0.2112 -0.1328  0.0411
 7879W        W24013  16.084  16.641   3.495 -0.2546 -0.1111 -0.3132
 7880W        W24014  11.739   0.233   2.254  0.0112 -0.2995 -0.3831
 7881W        W24015   3.214   6.758  11.552 -0.0120 -0.0717  0.0791
 7882W        W24016   8.970   6.266  11.010 -0.1610  0.0795 -0.3724
 7883W        W24017  17.610  13.505  13.096 -0.1058 -0.0507 -0.2550
 7884W        W24018   6.470  17.736  14.910 -0.0151  0.4691  0.4144
 7885W        W24019  18.748  18.602   4.529  0.3863 -0.0143 -0.0858
 7886W        W24020  16.122   7.877   1.371  0.0248 -0.4717 -0.3774
 7887W        W24021   5.639   4.105   4.599 -0.2921  0.0135  0.1724
 7888W        W24022  17.333  17.909   4.960 -0.5702 -0.2428  0.0531
 7889W        W24023  18.610   7.835   1.021 -0.1698  0.1409 -0.0026
 7890W        W24024   2.881   7.102   3.406  0.1646  0.0244 -0.1386
 7891W        W24025  14.515   1.736   0.297 -0.1079 -0.2289  0.0749
 7892W        W24026   8.232  12.608  11.165  0.0305  0.0666 -0.1266
 7893W        W24027  12.235   0.235  11.883 -0.0726 -0.4945 -0.1735
 7894W        W24028  14.381   9.034   0.091  0.1728 -0.1154  0.4072
 7895W        W24029  13.390  18.957   1.607 -0.0694 -0.3687  0.2953
 7896W        W24030  17.575   8.175  10.290 -0.4493  0.3819  0.0912
 7897W        W24031  13.793  14.814   2.161 -0.0535 -0.0688  0.3658
 7898W        W24032   9.382   2.092  11.413 -0.1985  0.1862 -0.2168
 7899W        W24033  12.087   6.040  14.832  0.0359 -0.1727 -0.1735
 7900W        W24034   1.904  15.904   5.277  0.0135  0.1071  0.0908
 7901W        W24035  16.989   2.667   1.639 -0.1805 -0.0356 -0.1005
 7902W        W24036   0.057   0.341   4.515  0.5018  0.0490  0.0364
 7903W        W24037   0.531   7.155   0.719  0.1120  0.0296  0.2168
 7904W        W24038   4.212  16.781   1.834 -0.2550 -0.2036 -0.1218
 7905W        W24039   9.636   9.587   2.162  0.0602  0.0101 -0.0098
 7906W        W24040  10.307   6.657  14.165  0.1192  0.1520 -0.0643
 7907W        W24041  17.784  14.435   2.535 -0.1812  0.2167 -0.0747
 7908W        W24042  14.788  18.116  13.530 -0.5857 -0.1032 -0.2116
 7909W        W24043  16.008  12.205  13.469 -0.0294 -0.0206 -0.0027
 7910W        W24044   9.575   7.336  11.054 -0.2805 -0.0859 -0.0815
 7911W        W24045   7.946  18.788  14.294 -0.0328  0.0196 -0.0679
 7912W        W24046   6.760   5.259   3.573 -0.0305  0.1791  0.0946
 7913W        W24047  19.168  13.437   1.695  0.2118 -0.1639 -0.0989
 7914W        W24048   3.861   1.635  13.358 -0.0442 -0.1287  0.1377
 7915W        W24049  17.687  10.144   0.558  0.0729  0.2266 -0.1520
 7916W        W24050  13.668  17.589   4.209  0.2353  0.2199 -0.0651
 7917W        W24051  14.350  16.757  12.657  0.0360  0.0671 -0.2449
 7918W        W24052   1.133   0.809   2.426  0.0419  0.0645  0.5183
 7919W        W24053   6.238   2.790   3.593  0.2298  0.0907  0.0805
 7920W        W24054  18.817  17.492   5.281  0.0448 -0.0806  0.1161
 7921W        W24055  11.080  10.496  12.251  0.0225  0.0164 -0.0764
 7922W        W24056  17.550  12.289  10.599 -0.0156  0.0687 -0.2292
 7923W        W24057   2.653  11.494  13.686 -0.1491  0.0291  0.0817
 7924W        W24058   1.237   9.388   4.009  0.0051 -0.1917 -0.0261
 7925W        W24059   5.771  17.710  11.788  0.1041 -0.1707  0.4172
 7926W        W24060  12.444   2.779   4.162  0.1158 -0.3501 -0.0304
 7927W        W24061   6.688   9.481   0.211 -0.0298  0.1159  0.0025
 7928W        W24062   3.280  15.710  14.216  0.0759 -0.0102  0.0543
 7929W        W24063  13.375   7.819   2.278  0.0643 -0.1265  0.0654
 7930W        W24064  12.203  11.228  12.527 -0.1373  0.1675  0.0726
 7931W        W24065   0.970   6.779   4.139 -0.0549  0.0536 -0.2514
 7932W        W24066  14.550   9.791   2.596 -0.1451  0.0245 -0.1524
 7933W        W24067  17.579   4.743  14.140  0.2894 -0.1185  0.0760
 7934W        W24068  19.050   7.239   5.142  0.3232 -0.4027  0.1981
 7935W        W24069  16.283   5.798   4.070  0.1904  0.2134  0.1974
 7936W        W24070   1.939  11.165   0.856 -0.0733  0.0404  0.1872
 7937W        W24071   5.633  17.221  11.849 -0.1284  0.2333 -0.1725
 7938W        W24072   7.748   6.309   4.095 -0.2646 -0.3490  0.1985
 7939W        W24073   0.057  13.795  11.633 -0.0200 -0.0546  0.2165
 7940W        W24074  17.336   7.495  12.125 -0.1717 -0.2786 -0.1384
 7941W        W24075   9.700   3.217  14.056 -0.3365 -0.2046 -0.0598
 7942W        W24076  18.040   4.769   3.859  0.2030  0.1681  0.0714
 7943W        W24077   7.182  12.186  13.793 -0.0575  0.1442  0.0027
 7944W        W24078  16.031   6.053   3.179 -0.0022 -0.1179  0.0946
 7945W        W24079  15.335   4.779  13.425  0.1682 -0.2643  0.0806
 7946W        W24080  10.011  12.598   4.302 -0.0486  0.1476  0.0203
 7947W        W24081  15.186  17.077   5.163 -0.0246  0.1849  0.1236
 7948W        W24082  13.534  10.647   2.348 -0.2200 -0.1623 -0.4086
 7949W        W24083   2.303   8.901   1.084 -0.2344 -0.0031  0.0960
 7950W        W24084  10.506  14.763   5.321  0.0472 -0.0670 -0.1287
 7951W        W24085  11.419  14.408  12.547 -0.2533 -0.0852 -0.3661
 7952W        W24086  14.334   1.975  10.361 -0.0176  0.2051 -0.3233
 7953W        W24087  11.469  14.653   1.028 -0.0207 -0.0908  0.1947
 7954W        W24088  15.209  14.262  14.772  0.0041 -0.1788 -0.1238
 7955W        W24089   9.707   2.194   2.211  0.0852  0.1247 -0.2184
 7956W        W24090  11.371  12.079   3.957  0.0979 -0.0574  0.0626
 7957W        W24091   2.044   1.531  13.353 -0.0078 -0.1888  0.1552
 7958W        W24092  18.545   8.670   1.044 -0.1611 -0.0484 -0.0742
 7959W        W24093   4.566   9.257   3.152 -0.1421 -0.0045  0.0661
 7960W        W24094   9.049  18.644   0.522 -0.1781 -0.0206 -0.2078
 7961W        W24095   1.130   4.863   0.740  0.1007  0.2206  0.0002
 7962W        W24096   8.617  16.138   4.022  0.0720 -0.0743 -0.2418
 7963W        W24097   0.976  13.750  14.768 -0.2763  0.0781 -0.1535
 7964W        W24098   2.763  14.543   0.402 -0.0016 -0.3482  0.4206
 7965W        W24099  12.109  13.422  11.264 -0.1076 -0.1558  0.1903
 7966W        W24100  16.045  10.775   1.400  0.3250  0.2262  0.2024
 7967W        W24101  18.917   6.647  11.414 -0.3306 -0.1247  0.0927
 7968W        W24102   4.212   7.267   1.903  0.0986  0.0112 -0.1562
 7969W        W24103  10.910  17.333   2.102 -0.4871  0.1795 -0.0202
 7970W        W24104   5.342  18.215  13.449  0.1759 -0.2542  0.0731
 7971W        W24105   5.691   9.221   0.357 -0.5606  0.3667 -0.1792
 7972W        W24106  11.732   0.349  11.853  0.2364 -0.0919 -0.0010
 7973W        W24107  10.250   7.093   2.856  0.1203 -0.0046  0.1185
 7974W        W24108   6.522   0.428  13.546 -0.4012  0.0878  0.0461
 7975W        W24109   1.460  17.962  13.143  0.0957 -0.0097  0.1525
 7976W        W24110  17.187   4.447  12.886  0.0496 -0.0680 -0.1078
 7977W        W24111   7.639  10.530  12.791  0.1445  0.0760 -0.0042
 7978W        W24112   9.809   9.111   3.870  0.0163 -0.0785 -0.1180
 7979W        W24113  18.290   1.876  10.763 -0.2919  0.2387 -0.0131
 7980W        W24114  15.206  13.637  13.148  0.0655  0.0641 -0.0622
 7981W        W24115  17.323  14.300   5.256 -0.1311 -0.3488 -0.0908
 7982W        W24116  15.817   6.636  11.534 -0.1296  0.3599 -0.0911
 7983W        W24117  14.238  15.473  12.714  0.0623 -0.1243  0.2572
 7984W        W24118  19.039   3.897  12.750  0.2243  0.1831 -0.0190
 7985W        W24119   3.210  11.222   3.449  0.0590 -0.0717 -0.0526
 7986W        W24120   4.181  13.966   0.652 -0.2086  0.0893  0.1596
 7987W        W24121  17.008   9.107  14.668  0.2239  0.2126  0.1610
 7988W        W24122  17.464  10.408   3.352  0.2672 -0.0268  0.2255
 7989W        W24123   9.410  15.394   2.287 -0.0390  0.2515 -0.2147
 7990W        W24124   4.108   4.281   5.499  0.0474 -0.0201 -0.1766
 7991W        W24125   7.151  12.501  12.067  0.0708  0.4241 -0.3543
 7992W        W24126   8.438  18.395   2.995 -0.1940 -0.1040  0.1217
 7993W        W24127   0.135   0.845   3.020 -0.0893 -0.3811 -0.4405
 7994W        W24128  16.566  17.950   2.455 -0.3356 -0.0260 -0.1043
 7995W        W24129  18.590   6.146  14.749 -0.0281  0.0599  0.2319
 7996W        W24130  12.725   3.074  12.751 -0.0853  0.1511 -0.1248
 7997W        W24131  15.419   7.247   4.482  0.1545 -0.0363  0.0532
 7998W        W24132   0.236   8.068   4.690  0.0167 -0.0154  0.0100
 7999W        W24133   2.299  17.037  13.932 -0.2291  0.1783 -0.0743
 8000W        W24134  18.445  10.542   0.041  0.1234 -0.2395 -0.0359
 8001W        W24135  14.450   7.480   3.666  0.2379 -0.2807 -0.0642
 8002W        W24136   8.801   4.291   2.173  0.1230  0.1370 -0.2787
 8003W        W24137  13.409   4.255   2.439  0.2476 -0.3310  0.2775
 8004W        W24138   8.317  13.991  10.417  0.0200  0.0050 -0.1248
 8005W        W24139   0.762   1.413   5.385  0.3351  0.0902 -0.4607
 8006W        W24140  10.689   3.120   9.838 -0.0846  0.2912 -0.0769
 8007W        W24141  13.328  15.012   4.086 -0.0835  0.5161  0.1913
 8008W        W24142   6.139  15.103   4.724 -0.0560 -0.1270 -0.2133
 8009W        W24143   6.285   1.202   1.239  0.2363 -0.1726  0.0533
 8010W        W24144   7.249  10.381  10.525  0.0581  0.2454 -0.4049
 8011W        W24145   4.119  17.269  12.739 -0.0437 -0.2512  0.0573
 8012W        W24146   0.351  14.705  11.498  0.0638  0.1343  0.0605
 8013W        W24147   3.499  13.071  14.310  0.2143  0.1517  0.1701
 8014W        W24148   8.798  11.407  12.751 -0.0196 -0.0521  0.1976
 8015W        W24149  12.710  12.289  11.057  0.1892  0.2925 -0.1080
 8016W        W24150  18.967   5.770   2.949 -0.0762  0.1109 -0.1561
 8017W        W24151  17.872   6.163  12.014  0.0721  0.1048  0.2986
 8018W        W24152  12.379  17.757   0.014 -0.3377  0.0666 -0.0360
 8019W        W24153   4.121   8.006  12.379  0.0434  0.0367  0.0854
 8020W        W24154  16.193   0.073  12.002 -0.2267  0.3137 -0.0635
 8021W        W24155  17.300  18.455   3.814  0.0590  0.3299  0.0497
 8022W        W24156   9.619  12.839  11.148  0.0192 -0.3497 -0.1056
 8023W        W24157  12.460  13.188   1.307  0.0969  0.4770  0.2505
 8024W        W24158   6.381   0.745  12.692  0.0581 -0.0313 -0.1282
 8025W        W24159  13.989   5.671  13.339  0.0125 -0.0997  0.0497
 8026W        W24160   0.985  17.202   1.751 -0.1895  0.0276  0.2834
 8027W        W24161   4.625  12.149   0.821 -0.3250  0.1312 -0.1073
 8028W        W24162   6.035  12.661  11.074 -0.0995 -0.1313 -0.0308
 8029W        W24163  17.987  17.780   9.831  0.3078 -0.0413  0.2335
 8030W        W24164  15.091   5.952  10.681 -0.2599 -0.1251 -0.1885
 8031W        W24165  17.882   4.305  14.322 -0.0811 -0.1263 -0.1044
 8032W        W24166   9.187  12.106  10.382 -0.0926 -0.2230 -0.3312
 8033W        W24167  13.191   9.453   0.330  0.2391 -0.0181  0.0148
 8034W        W24168   5.936  15.402  11.240  0.0324  0.0942  0.3642
 8035W        W24169   1.315  12.929  13.503 -0.1353  0.1202 -0.1254
 8036W        W24170  13.050  18.497  11.801  0.1013 -0.1540 -0.2127
 8037W        W24171  18.190  16.514  10.436 -0.1003  0.2764  0.0389
 8038W        W24172  10.052  11.025   1.053  0.1847  0.0995 -0.1613
 8039W        W24173  13.951  15.181   5.185 -0.1778 -0.1020  0.2840
 8040W        W24174   0.932   3.689   4.433 -0.3394  0.2427  0.0166
 8041W        W24175   2.446  15.592   3.588  0.3219 -0.0254 -0.0744
 8042W        W24176   2.108  14.975   2.386  0.0125  0.0795 -0.1079
 8043W        W24177   9.933  13.402   2.082  0.0051  0.3787 -0.1896
 8044W        W24178  17.668  16.046   5.185 -0.1347 -0.1990  0.1264
 8045W        W24179   4.570  17.078  10.411 -0.0927 -0.1072  0.3052
 8046W        W24180   7.388  13.122   2.367 -0.0122 -0.1623  0.0119
 8047W        W24181   7.203   1.494   2.285  0.0433 -0.3871  0.0219
 8048W        W24182   5.606   8.813  14.587 -0.0426 -0.0620 -0.0136
 8049W        W24183  13.613  13.276  12.148  0.0203  0.0709 -0.2079
 8050W        W24184  13.809   0.222  10.097 -0.4001  0.4231 -0.0715
 8051W        W24185  10.371  18.692   2.908 -0.0624 -0.0860  0.1125
 8052W        W24186  13.866  16.214   0.574 -0.1888 -0.1110 -0.1240
 8053W        W24187   7.008  14.072   0.082 -0.1771  0.0049  0.0447
 8054W        W24188  12.524   5.967  14.653 -0.0197  0.0411 -0.0284
 8055W        W24189  10.630   1.603  10.775 -0.3269 -0.3046  0.0582
 8056W        W24190  17.688  17.042   1.678  0.1065 -0.2016  0.2565
 8057W        W24191   6.715  18.398   4.945  0.0362  0.0715  0.1122
 8058W        W24192  13.944   1.679   5.607 -0.1334  0.3392 -0.0282
 8059W        W24193   3.755   2.411  13.902 -0.0574 -0.2318 -0.2340
 8060W        W24194   7.056  17.769   3.336 -0.1288 -0.2794 -0.0655
 8061W        W24195   8.172   1.439  11.809 -0.1155  0.0395  0.2805
 8062W        W24196  16.037   1.423   3.098 -0.0852 -0.2107 -0.1608
 8063W        W24197   4.728  14.681  14.261  0.2730  0.0909  0.1802
 8064W        W24198   3.898   4.054  12.992  0.1563 -0.1353 -0.1879
 8065W        W24199   9.981  16.077  14.112 -0.0495  0.3599  0.3049
 8066W        W24200   6.994  18.928  14.363  0.0546 -0.2298  0.0516
 8067W        W24201  16.133  17.733  13.662  0.3188  0.1502 -0.1182
 8068W        W24202  18.996   3.333   1.456 -0.0177 -0.1465  0.5776
 8069W        W24203  12.240  18.115   0.397 -0.2314 -0.0379  0.2829
 8070W        W24204  15.816   0.114   2.073  0.1372  0.3907 -0.1026
 8071W        W24205  11.063   0.145  13.565 -0.3303 -0.1552 -0.3015
 8072W        W24206  14.051   7.238   2.191 -0.0817  0.1112 -0.1066
 8073W        W24207  15.519   5.127   1.045 -0.0214  0.2663  0.2337
 8074W        W24208   1.026  17.825   4.706  0.1304 -0.3178 -0.1671
 8075W        W24209   8.520   7.239  10.719 -0.2507 -0.0369 -0.1012
 8076W        W24210  17.834  10.853  10.806 -0.1789  0.0436  0.2498
 8077W        W24211   6.318   2.788  14.425  0.0325  0.2215  0.2604
 8078W        W24212  15.981  17.246   9.580 -0.1229  0.1080  0.0666
 8079W        W24213  15.847  13.013   1.877  0.0676 -0.2107 -0.0880
 8080W        W24214  14.307  14.451   0.296 -0.0706  0.0846  0.0644
 8081W        W24215  18.106  11.046   2.361  0.2094 -0.1061 -0.0383
 8082W        W24216  14.299   6.863  13.544 -0.3249  0.0266 -0.1788
 8083W        W24217   0.693  12.784   0.139 -0.0416 -0.0297 -0.2059
 8084W        W24218   8.169   6.780   2.028  0.3368  0.4762  0.3064
 8085W        W24219   1.978   3.242  13.414  0.1796 -0.2588  0.1019
 8086W        W24220  12.585   4.082   2.400  0.0854 -0.0876  0.1626
 8087W        W24221  11.587  12.661   2.701  0.0835 -0.5078 -0.1315
 8088W        W24222   6.726   4.509   4.438  0.2423 -0.0659  0.1272
 8089W        W24223  18.752   9.930  11.765  0.1960  0.1289 -0.1644
 8090W        W24224   8.298  11.193   0.225  0.0914 -0.0840  0.0971
 8091W        W24225  11.549  15.865   0.629  0.3179  0.1175  0.3608
 8092W        W24226  17.981  10.361  12.845 -0.0904  0.2179  0.1782
 8093W        W24227   3.078   2.204   4.118  0.1628 -0.3189 -0.2394
 8094W        W24228  17.840   2.973  12.328  0.1142 -0.2554 -0.0275
 8095W        W24229  10.052  11.439   0.321  0.3058  0.0384  0.0436
 8096W        W24230   9.460  11.685  10.528 -0.1686 -0.1950 -0.1179
 8097W        W24231   1.279   4.082   0.606  0.0097 -0.0631  0.0436
 8098W        W24232   3.720   2.133   2.968 -0.2451 -0.1878 -0.0917
 8099W        W24233   3.042  17.889   2.105  0.1060 -0.1036 -0.1116
 8100W        W24234   7.637   0.747   0.389  0.2189 -0.0518  0.1329
 8101W        W24235  15.814  11.069  11.310  0.1174 -0.2694 -0.1653
 8102W        W24236   8.233  11.836  10.772  0.2235  0.2378 -0.0464
 8103W        W24237  12.431   5.825   4.297 -0.4486 -0.0738 -0.0673
 8104W        W24238  10.688   7.142  14.837  0.0537  0.1952 -0.0218
 8105W        W24239   5.609  17.872   1.198  0.0514 -0.3883  0.1708
 8106W        W24240  16.647   5.973   0.542  0.1765  0.0099  0.0876
 8107W        W24241  15.594   4.128  14.380  0.0183 -0.0467  0.2167
 8108W        W24242   5.817  11.453  11.165  0.1702 -0.1142  0.1781
 8109W        W24243   5.652   8.550  11.160  0.0689 -0.4330 -0.3331
 8110W        W24244  12.781  10.154  14.758  0.1461  0.1959 -0.0204
 8111W        W24245  17.512   6.056  10.657 -0.1668  0.0154 -0.1887
 8112W        W24246  11.313   7.341   1.341  0.1033 -0.0133  0.0809
 8113W        W24247  14.603  14.441   5.359  0.4422 -0.1971 -0.0868
 8114W        W24248   3.403   1.245   1.868  0.1841 -0.0530  0.1633
 8115W        W24249  16.692  18.828   0.493  0.1671 -0.2512 -0.1819
 8116W        W24250  13.241   0.377   1.072 -0.2510 -0.0397  0.0633
 8117W        W24251   4.578  10.758  14.815  0.0053 -0.0731  0.1817
 8118W        W24252   4.546  15.332  12.023  0.0536 -0.1810 -0.0181
 8119W        W24253  10.578  17.596  14.848  0.2496  0.0266  0.2786
 8120W        W24254  16.600  17.149   4.130 -0.2101 -0.1920 -0.0803
 8121W        W24255   3.489   6.755  10.177 -0.3269 -0.2262  0.3198
 8122W        W24256   9.431   3.011  14.931  0.2600  0.1265 -0.3421
 8123W        W24257   5.059   1.012   2.239 -0.1505 -0.1073 -0.1155
 8124W        W24258  12.659   9.512  12.433  0.0537 -0.0380  0.0418
 8125W        W24259   3.519   6.528  11.095 -0.1392 -0.1026  0.3238
 8126W        W24260  15.899   9.739   2.264 -0.0949  0.2796  0.1766
 8127W        W24261  13.133  11.660   0.220  0.1129 -0.0002  0.2910
 8128W        W24262   6.885   6.528   0.298  0.1486  0.0346 -0.1951
 8129W        W24263   9.265  10.289  10.383  0.0614  0.1677 -0.0920
 8130W        W24264   1.836   2.919  14.333  0.2206  0.1137 -0.4466
 8131W        W24265   7.774  13.496  11.809 -0.5622  0.0332 -0.2602
 8132W        W24266  18.624  14.891  15.021 -0.3289  0.0574  0.0110
 8133W        W24267   5.411   1.902  12.283  0.4761  0.3033  0.0268
 8134W        W24268  16.838   8.610   1.044 -0.1011 -0.2195 -0.0264
 8135W        W24269  13.093  15.867  10.527  0.3178  0.1118 -0.0335
 8136W        W24270   4.187  11.874   3.912  0.0259 -0.0915 -0.1779
 8137W        W24271  16.578   0.923  14.436 -0.0596 -0.3246 -0.3843
 8138W        W24272   5.915  18.492   5.795 -0.0056  0.2897  0.0519
 8139W        W24273   4.205  11.094   3.667  0.0990  0.3046  0.2407
 8140W        W24274  10.154  15.637  10.304  0.0224  0.1347  0.5627
 8141W        W24275  13.703   1.739  13.333  0.2427  0.2062  0.1854
 8142W        W24276   7.852  12.993   0.559 -0.3435 -0.1412  0.0649
 8143W        W24277  12.515   5.960  12.326 -0.3151 -0.1304  0.0632
 8144W        W24278   0.532  15.052  10.789 -0.0923  0.1477 -0.2442
 8145W        W24279   4.240  15.999   3.971 -0.0890  0.5842  0.0047
 8146W        W24280  17.797   5.616  14.865  0.2061  0.3700 -0.2696
 8147W        W24281  14.015  11.234   1.655  0.1636 -0.0104  0.0102
 8148W        W24282   9.181  14.093   5.822 -0.1676 -0.2144  0.2918
 8149W        W24283  18.460  14.268   0.932 -0.0387  0.1915  0.5025
 8150W        W24284  14.514  17.007  11.401  0.0368 -0.1096  0.3042
 8151W        W24285   9.183   7.158  10.424  0.0340  0.1549  0.0919
 8152W        W24286   0.738   1.656   1.186  0.3624 -0.2866  0.1782
 8153W        W24287  12.084   3.374   3.402  0.2400 -0.2581 -0.0629
 8154W        W24288  10.329   4.923  14.205  0.2227 -0.1402 -0.1275
 8155W        W24289   6.026  14.416   5.039 -0.2052 -0.0313 -0.4611
 8156W        W24290   6.855   5.980  11.120  0.0410 -0.1476 -0.0992
 8157W        W24291  12.703  18.470   4.826  0.0606 -0.1035 -0.0109
 8158W        W24292   0.348   4.433   2.961  0.0000  0.1301 -0.0073
 8159W        W24293  13.244   6.752   2.006 -0.1979  0.0049 -0.1872
 8160W        W24294  10.384  17.521   9.532 -0.1394 -0.1785 -0.3530
 8161W        W24295   3.510   2.529   3.482  0.0307  0.3652 -0.1577
 8162W        W24296  14.962  14.922   2.953  0.1662  0.1055 -0.1733
 8163W        W24297   9.438  12.679   9.510  0.1314 -0.0106  0.1447
 8164W        W24298  12.337   9.984  11.657 -0.1734 -0.0503  0.1207
 8165W        W24299  16.415  11.123   4.610 -0.0937 -0.0390 -0.2523
 8166W        W24300  13.599  10.831   0.320  0.0980  0.0532 -0.0924
 8167W        W24301  10.986   6.950   2.786  0.0224 -0.1020  0.2041
 8168W        W24302  13.994   8.121   1.746 -0.0322 -0.1286 -0.0821
 8169W        W24303  16.711   2.046  11.579  0.1508  0.1183 -0.1703
 8170W        W24304  18.330   6.724   5.723 -0.0278  0.0032 -0.0688
 8171W        W24305  17.271   1.924   4.052 -0.0882 -0.0970 -0.3943
 8172W        W24306  18.492   4.835   4.992  0.2177  0.0775 -0.0200
 8173W        W24307   3.344   4.852   1.027 -0.2781  0.0408  0.2290
 8174W        W24308  18.068  13.860  11.312  0.0641 -0.0580  0.0548
 8175W        W24309  12.960   2.494  14.976 -0.0584 -0.1418 -0.0918
 8176W        W24310   0.518  17.109  14.850 -0.1095 -0.0631 -0.0592
 8177W        W24311   7.030  14.354   0.880  0.0878 -0.2090 -0.1665
 8178W        W24312   2.167   2.322   9.632 -0.3860 -0.2007 -0.1538
 8179W        W24313   0.284  13.659  13.015  0.0553 -0.2168  0.3244
 8180W        W24314   0.542  17.111   3.180  0.1656 -0.1362  0.2773
 8181W        W24315  12.609   9.969  12.160  0.1850  0.0749  0.0369
 8182W        W24316   1.125   2.075   1.500  0.0093 -0.3556 -0.3566
 8183W        W24317   2.032  11.433  14.478  0.0550  0.2172  0.0375
 8184W        W24318  17.300  11.506  14.512 -0.0248 -0.0991 -0.1023
 8185W        W24319   0.705  11.821  13.525 -0.2213  0.1945 -0.0002
 8186W        W24320  10.350  17.676   0.230  0.3880 -0.0523 -0.3071
 8187W        W24321   1.763  10.933   2.204 -0.0600 -0.0007 -0.1318
 8188W        W24322   5.260  17.572   1.705 -0.2611  0.1260  0.1670
 8189W        W24323  17.317   9.904  10.389 -0.0493 -0.0209  0.0550
 8190W        W24324   9.055  12.375  15.042 -0.1460  0.1217  0.2675
 8191W        W24325  15.801   8.780  11.892  0.1748 -0.1035 -0.1892
 8192W        W24326   4.009   5.220   1.617 -0.0719  0.2318 -0.0249
 8193W        W24327  18.891   3.481  14.767 -0.4536 -0.2638  0.1602
 8194W        W24328  14.904  10.133  11.913 -0.3447 -0.3068  0.2161
 8195W        W24329  17.055  16.946  11.994 -0.0143 -0.3267  0.2420
 8196W        W24330  12.388  15.206  14.027 -0.3094 -0.2796  0.0516
 8197W        W24331   8.632   7.482   2.757 -0.0869 -0.0331 -0.2559
 8198W        W24332  17.322   4.504   2.221  0.0336  0.1308  0.1075
 8199W        W24333   9.587   7.815   1.694 -0.1209 -0.1051 -0.0734
 8200W        W24334  13.640   1.795   0.189 -0.0085  0.0677  0.1846
 8201W        W24335  10.034  15.458   1.034 -0.3048  0.0741 -0.0552
 8202W        W24336   4.139  14.310  12.301  0.0575  0.0775 -0.2237
 8203W        W24337   2.401  13.320   2.228 -0.2695 -0.1093 -0.1074
 8204W        W24338  10.103   1.072  11.114  0.1642 -0.0427 -0.1866
 8205W        W24339   0.943   6.743   1.296  0.1768 -0.0269 -0.1403
 8206W        W24340  10.539  11.549  11.466  0.0262  0.0470 -0.3733
 8207W        W24341  17.263  13.049  11.120  0.1091  0.1679 -0.1835
 8208W        W24342   9.115  10.737   4.014 -0.0524  0.1083 -0.0558
 8209W        W24343  15.335   9.331   2.920 -0.1536 -0.0531 -0.2101
 8210W        W24344   4.994   4.514   1.528  0.3079 -0.0640  0.2152
 8211W        W24345  10.235   8.938  14.931  0.1641  0.0756  0.3086
 8212W        W24346  18.131  16.758  14.390 -0.0499  0.4402 -0.0882
 8213W        W24347   5.877   1.039   3.905  0.1075 -0.3799 -0.0390
 8214W        W24348   6.300   6.700   0.240  0.0326  0.1609  0.0289
 8215W        W24349  10.221  15.996   3.168  0.2992  0.1469 -0.2010
 8216W        W24350   0.135   5.403   2.844  0.2351  0.0156  0.2317
 8217W        W24351  10.922   8.636   9.152 -0.1241 -0.3815 -0.3478
 8218W        W24352  12.081  15.559   0.525 -0.2200  0.0853  0.0029
 8219W        W24353  10.925  11.461   1.743  0.1198  0.0710  0.1055
 8220W        W24354   7.594  10.904  12.464 -0.0283 -0.1324  0.3498
 8221W        W24355   7.377   1.103   1.433  0.1906  0.0838 -0.3226
 8222W        W24356   4.923   1.948  11.486 -0.0809 -0.0726 -0.1440
 8223W        W24357  16.157  12.250  12.172  0.1595  0.4511 -0.1663
 8224W        W24358   2.720   4.090  12.046 -0.0969  0.2089  0.0784
 8225W        W24359  12.835   3.261  12.284  0.0285  0.1444 -0.0949
 8226W        W24360   4.280  14.840   1.461  0.2502 -0.0431 -0.0335
 8227W        W24361  10.522   2.111   1.663 -0.0226  0.3306 -0.1903
 8228W        W24362   7.856   2.147  12.273 -0.1654 -0.0410 -0.1041
 8229W        W24363  10.674  17.808   9.201 -0.1255  0.0008 -0.1259
 8230W        W24364   2.611   1.932   3.488  0.0434 -0.4524 -0.1314
 8231W        W24365  14.252   6.873   2.802  0.0372  0.1444  0.0706
 8232W        W24366  10.043  16.450  13.292  0.1450 -0.0643  0.2404
 8233W        W24367   1.643   7.180  10.619 -0.2680  0.3240 -0.0471
 8234W        W24368   5.007  14.918   2.540 -0.0813  0.1997  0.0109
 8235W        W24369   8.225   0.484  11.442 -0.3578 -0.1848 -0.0986
 8236W        W24370   0.801  13.220   5.254 -0.0327  0.0385  0.3277
 8237W        W24371   3.541   2.504  11.439 -0.3391  0.1881  0.1545
 8238W        W24372   4.659   2.346  13.826 -0.0291 -0.0886  0.2401
 8239W        W24373   8.168   7.968  13.284 -0.1987  0.0204  0.0029
 8240W        W24374  18.647  17.490  11.717  0.0221  0.0344  0.1476
 8241W        W24375   1.306  10.507   4.426 -0.0237 -0.0693  0.0455
 8242W        W24376   8.556   0.430  14.292  0.2621  0.1128 -0.0926
 8243W        W24377   8.889  16.107  14.744 -0.2444  0.1676  0.0558
 8244W        W24378  15.677   0.572   1.911 -0.0270 -0.0947 -0.0094
 8245W        W24379   1.823  19.133  10.084  0.1231  0.0002 -0.0413
 8246W        W24380  18.301  18.825  13.706  0.0457  0.1371  0.0336
 8247W        W24381   7.422  18.509  10.813 -0.1139 -0.0790 -0.3231
 8248W        W24382  11.616  17.559   4.119  0.0261  0.2588  0.0376
 8249W        W24383   0.001   6.247  10.499 -0.6117 -0.1996  0.0833
 8250W        W24384   4.041  15.081   2.018  0.1703 -0.0268  0.0384
 8251W        W24385   6.544  12.946  14.149 -0.1129 -0.0468 -0.0170
 8252W        W24386  18.855   6.641   2.115  0.2225 -0.1529  0.1232
 8253W        W24387   1.925  16.165   0.817 -0.2242  0.2551 -0.1824
 8254W        W24388   2.512   3.615  11.279 -0.0881 -0.0769  0.0761
 8255W        W24389  13.433  13.718   4.104 -0.0713  0.0094  0.2376
 8256W        W24390   4.029  12.917  12.926  0.1356 -0.1614  0.1889
 8257W        W24391  17.180   9.751  12.495 -0.1563 -0.2027 -0.1390
 8258W        W24392  12.771  10.890  12.946 -0.0017  0.0205  0.1259
 8259W        W24393  12.620   8.493  10.489  0.0818 -0.1388 -0.0745
 8260W        W24394  12.601  12.342  14.641 -0.4928  0.4253 -0.1031
 8261W        W24395  11.538  12.145  13.851 -0.0894  0.2745  0.0993
 8262W        W24396  19.025   9.670   4.263 -0.4339  0.2821 -0.0323
 8263W        W24397  16.081   5.929  12.192 -0.2949  0.4055  0.0328
 8264W        W24398   8.920  13.265   0.350  0.2705  0.2078  0.3255
 8265W        W24399  12.267  16.467  13.649  0.2487 -0.2641  0.2850
 8266W        W24400   1.080  10.232   3.638 -0.0382  0.2274 -0.0206
 8267W        W24401  14.985   4.107   1.571 -0.3635  0.4377  0.0358
 8268W        W24402   8.586  14.314   1.189 -0.0402 -0.2864 -0.2089
 8269W        W24403   0.125   2.588   2.882  0.1271  0.0424  0.2651
 8270W        W24404  16.844  14.767   3.646  0.0834  0.0677 -0.1177
 8271W        W24405  14.492   4.403  13.312 -0.1461  0.0216  0.0067
 8272W        W24406  11.853   9.570   5.605 -0.1905 -0.1049 -0.3028
 8273W        W24407   3.494   0.297  12.305 -0.2947 -0.1376 -0.1050
 8274W        W24408   0.524   5.309  11.656  0.4220 -0.3067  0.2147
 8275W        W24409   6.358   0.220   0.414 -0.1051  0.2097  0.4165
 8276W        W24410  18.634   5.050   2.422  0.1134 -0.1493 -0.0842
 8277W        W24411   1.703   5.958  14.218 -0.1513 -0.4650 -0.3499
 8278W        W24412   0.726   5.550  13.407  0.0380  0.0413 -0.0850
 8279W        W24413   9.478   6.391   2.668  0.1966 -0.1997 -0.2884
 8280W        W24414  18.332   1.632   0.252 -0.0334  0.2605 -0.1774
 8281W        W24415  16.047   9.835  14.958  0.0263  0.1517  0.1689
 8282W        W24416   1.861   7.895   3.979 -0.0616 -0.2110  0.0270
 8283W        W24417  16.212  16.372   4.431  0.0030  0.0128 -0.0195
 8284W        W24418   8.247   6.414  11.356  0.2295 -0.0395 -0.3303
 8285W        W24419   8.407   4.326   1.903  0.0074 -0.1301 -0.1265
 8286W        W24420   8.934   5.379  10.704 -0.1582  0.2586 -0.3763
 8287W        W24421  16.134  15.469   2.007 -0.0485  0.0529 -0.2885
 8288W        W24422  14.676  18.698   4.448  0.1886 -0.1890 -0.1565
 8289W        W24423   0.227  17.677   2.230 -0.0209 -0.0063 -0.1763
 8290W        W24424   9.000  12.460   5.125  0.1457 -0.1612  0.0617
 8291W        W24425   9.081  10.979  11.369  0.0745 -0.0098 -0.1547
 8292W        W24426   8.726   4.549  13.563 -0.0184 -0.0167  0.0276
 8293W        W24427   4.182   9.999   4.994  0.1773 -0.0063 -0.0831
 8294W        W24428  12.599   3.080  11.259  0.2112  0.4250  0.2619
 8295W        W24429   4.362  12.633  12.716  0.0906 -0.1445 -0.1501
 8296W        W24430  11.859   7.368  11.634 -0.0892  0.4199 -0.0561
 8297W        W24431  16.919  16.185  13.402 -0.2192  0.1642 -0.1144
 8298W        W24432  12.115  16.164  11.971  0.0174  0.0754  0.1701
 8299W        W24433   1.092   6.960   2.743 -0.0809 -0.0739  0.2635
 8300W        W24434   8.006   7.334   9.107  0.2350 -0.1730 -0.0711
 8301W        W24435  11.628  18.919  14.339 -0.0441 -0.0755 -0.2496
 8302W        W24436  18.731   7.599  11.113  0.3033 -0.1081 -0.1075
 8303W        W24437  19.107  16.389   4.806 -0.0628  0.2151 -0.2620
 8304W        W24438  13.162  16.671  11.074 -0.2459  0.0129 -0.0303
 8305W        W24439   6.334  14.253  14.163 -0.2088 -0.3305  0.0199
 8306W        W24440  15.454   5.929  13.970  0.2703 -0.0405 -0.4939
 8307W        W24441   5.168   1.258  10.730  0.1753  0.3032 -0.2578
 8308W        W24442   5.168   1.976   5.196  0.0965 -0.0760  0.1336
 8309W        W24443  11.255  14.800  13.345 -0.0793 -0.1992  0.0000
 8310W        W24444   4.648  11.462  12.059 -0.3469  0.0726  0.1278
 8311W        W24445   8.485   9.918   4.747  0.2392 -0.1913  0.0075
 8312W        W24446   6.031  10.762   0.795  0.1971 -0.2427 -0.0283
 8313W        W24447   1.864  15.240   0.032  0.1596  0.1727  0.1039
 8314W        W24448   0.202  15.562   2.188 -0.1154 -0.0742  0.0832
 8315W        W24449  10.480   8.762  12.135  0.0471 -0.2025 -0.1187
 8316W        W24450   9.200   1.467   1.901 -0.0295 -0.0714  0.0758
 8317W        W24451   5.282  13.567  13.334  0.1755  0.3651  0.2560
 8318W        W24452   4.441   4.020   0.108 -0.1191 -0.0291 -0.1026
 8319W        W24453   3.357   0.276   1.630  0.0926  0.0658  0.0414
 8320W        W24454  15.229  11.256   1.445  0.4445  0.4555  0.1596
 8321W        W24455   9.298   9.200   2.185 -0.1385 -0.1063 -0.3512
 8322W        W24456   6.431   3.014  14.861  0.0272 -0.2027 -0.0802
 8323W        W24457   7.345  10.224   2.517 -0.1071 -0.0197  0.1617
 8324W        W24458   9.212  12.793   0.355 -0.3176 -0.2321  0.1966
 8325W        W24459  18.352  12.363   4.963 -0.1672  0.1541 -0.1267
 8326W        W24460   9.456   9.052  11.017  0.2106  0.1274  0.1770
 8327W        W24461   3.408   1.729  14.935 -0.0719  0.0426 -0.1314
 8328W        W24462  11.519  16.785  13.724  0.1495  0.0628 -0.0091
 8329W        W24463   6.881   9.443  10.412 -0.2405  0.0680  0.2736
 8330W        W24464  12.169   9.138  11.300 -0.2090  0.0472 -0.1074
 8331W        W24465  13.037  17.396   1.391  0.0262  0.1051  0.2254
 8332W        W24466   3.064   0.815   3.038  0.2907 -0.1154 -0.2237
 8333W        W24467   2.666   3.693  10.766 -0.2574  0.4474  0.2672
 8334W        W24468  18.224  15.047   3.331 -0.0366 -0.1523  0.0847
 8335W        W24469   9.876  13.200  12.832  0.0995  0.2588 -0.1105
 8336W        W24470  17.127   8.923   1.492 -0.0671  0.2849 -0.1519
 8337W        W24471  11.774   1.213   4.093  0.1134  0.2556  0.2598
 8338W        W24472   2.026   0.877  13.478 -0.0621  0.1766 -0.0950
 8339W        W24473   4.624  18.640   3.219 -0.0216 -0.0157 -0.0145
 8340W        W24474   3.005  15.565  14.615  0.1140 -0.3032 -0.1002
 8341W        W24475   0.511   0.519  13.911  0.0241  0.0641 -0.4330
 8342W        W24476   7.599   8.518  12.235  0.3134  0.0790 -0.1831
 8343W        W24477  17.727   9.911  13.203 -0.1053  0.1101 -0.0475
 8344W        W24478   7.111  15.332  10.971  0.1955  0.1193  0.0818
 8345W        W24479   4.806   6.299  11.690  0.1840 -0.0137 -0.1396
 8346W        W24480   4.472  11.455   9.580  0.0433 -0.2212  0.6894
 8347W        W24481   6.637  15.578   4.026 -0.1663  0.3050 -0.0382
 8348W        W24482   9.076   3.198  13.640  0.2673  0.2218  0.2131
 8349W        W24483   5.226   7.886   2.031 -0.0139  0.0859  0.0359
 8350W        W24484   4.720  16.334   0.265  0.1432 -0.0734  0.2303
 8351W        W24485   4.856  18.983   1.831  0.1107  0.4261 -0.3574
 8352W        W24486  19.235   0.173   0.757  0.0770 -0.3015  0.1256
 8353W        W24487  10.195  16.731   2.559  0.1477 -0.1893 -0.0964
 8354W        W24488  16.633  12.515  13.649 -0.2428  0.3103  0.1045
 8355W        W24489   5.110  17.799  13.705  0.2116  0.1737  0.0630
 8356W        W24490   8.636  19.098  13.563 -0.3090  0.0500  0.2884
 8357W        W24491  17.674   2.042   2.611  0.2505 -0.0361  0.2145
 8358W        W24492   4.035   0.156   1.259  0.1088  0.3181 -0.1980
 8359W        W24493   7.816   4.729  13.469  0.4039 -0.2875  0.0459
 8360W        W24494   7.964   5.087   1.641 -0.0368 -0.0404  0.0984
 8361W        W24495   0.182  11.883  13.404  0.1403  0.1242 -0.1492
 8362W        W24496  15.579   8.113   9.448 -0.5656 -0.2364 -0.3484
 8363W        W24497   7.241  10.049   1.010 -0.2094 -0.0163 -0.3136
 8364W        W24498  14.916   7.302   2.459 -0.4479  0.2212 -0.2181
 8365W        W24499   1.480   0.277   1.310  0.0201 -0.1386 -0.0579
 8366W        W24500   6.935   4.057   4.501 -0.1366 -0.1307 -0.0549
 8367W        W24501  13.102  13.325   4.417 -0.0259  0.1961  0.1833
 8368W        W24502   2.666   7.483  14.780  0.1987  0.0257  0.3062
 8369W        W24503  10.673  14.068  14.602  0.2999 -0.0057 -0.0630
 8370W        W24504   4.616  18.120   1.631 -0.1570 -0.0363  0.0668
 8371W        W24505  12.546   3.152   3.877 -0.0683  0.4764  0.0073
 8372W        W24506   5.593   1.899  12.759 -0.4066 -0.4251 -0.4366
 8373W        W24507  12.995   8.656   1.351 -0.0135 -0.1674 -0.0153
 8374W        W24508   0.817  15.814   4.754  0.2047  0.0162 -0.2149
 8375W        W24509  11.089  14.557  10.924  0.1026 -0.0388  0.2830
 8376W        W24510  17.768   1.621   2.212 -0.0161  0.2770 -0.4158
 8377W        W24511  15.023   6.675   4.626 -0.0521  0.3069 -0.0254
 8378W        W24512  18.622  14.942   2.148  0.1015  0.0709  0.1657
 8379W        W24513  18.046  13.339   3.203  0.0626 -0.2682 -0.2446
 8380W        W24514  13.516  11.562  13.824  0.0673  0.0266 -0.3136
 8381W        W24515  10.927   1.578   0.514 -0.0392  0.1224 -0.1529
 8382W        W24516  10.889  19.062   4.773 -0.1763 -0.0672  0.1333
 8383W        W24517   6.421  17.863  14.191 -0.0706  0.3782  0.1171
 8384W        W24518  12.695  11.094   2.505 -0.0189  0.0431  0.4409
 8385W        W24519  18.002  18.589   5.601  0.2144  0.4754 -0.0842
 8386W        W24520   8.383   3.999  11.129  0.0254 -0.1163  0.2286
 8387W        W24521  11.777  18.988  12.491 -0.0027  0.0353 -0.1560
 8388W        W24522  16.643   0.973  11.957  0.2196 -0.1909  0.1466
 8389W        W24523   6.325  12.345   0.257  0.1710  0.2259 -0.2809
 8390W        W24524   4.690   4.963   2.147 -0.1255 -0.0735  0.2969
 8391W        W24525   8.904  15.243   3.003 -0.0538  0.0962  0.3651
 8392W        W24526  11.001  10.938   4.172 -0.2915 -0.1955 -0.1564
 8393W        W24527   5.004  14.027  13.634 -0.1530  0.4672 -0.0746
 8394W        W24528  14.945   6.570   3.288 -0.0340 -0.1258  0.1026
 8395W        W24529   8.656  16.739  11.685  0.3139  0.3354  0.2120
 8396W        W24530   4.965   2.948  11.571 -0.2939  0.0504  0.0849
 8397W        W24531   5.101   3.478  10.730 -0.0382 -0.0770  0.1443
 8398W        W24532   4.744   7.463  12.387 -0.3848 -0.0577 -0.1228
 8399W        W24533   4.839   8.925   3.397  0.0456 -0.2315 -0.0484
 8400W        W24534   5.338  18.053   4.264 -0.3982 -0.0407  0.2323
 8401W        W24535  10.189   6.188  14.197 -0.1226 -0.1860  0.3966
 8402W        W24536   1.314   0.622   1.641 -0.2593 -0.2397 -0.1220
 8403W        W24537  15.241  10.509   4.433 -0.1991 -0.2622 -0.0909
 8404W        W24538  16.869  12.565   5.179  0.4594 -0.1319 -0.1180
 8405W        W24539  16.203   2.090   9.533  0.1920 -0.3323 -0.2636
 8406W        W24540  18.006   8.670   1.537  0.0967 -0.2845  0.0607
 8407W        W24541  11.922  13.797  12.035  0.1592 -0.3590  0.0670
 8408W        W24542  19.151   8.072   5.049 -0.1047  0.4786  0.2026
 8409W        W24543  10.147  12.650   3.300  0.2409  0.0336 -0.5288
 8410W        W24544   8.174   1.684   1.280  0.4163 -0.2452 -0.1470
 8411W        W24545   4.341   1.982   3.032 -0.0033  0.0124  0.2481
 8412W        W24546   3.369   9.670  12.469 -0.0322 -0.0385  0.1622
 8413W        W24547  16.971   9.652   0.277 -0.1001  0.3844  0.0113
 8414W        W24548  14.170  18.367   1.113  0.0552  0.0284 -0.1495
 8415W        W24549   0.925   5.216   3.595  0.2281 -0.0642  0.1065
 8416W        W24550  18.424   8.943   4.021  0.0455  0.0709 -0.0309
 8417W        W24551   1.732  14.298   1.149 -0.1947 -0.0461  0.1741
 8418W        W24552  10.772  12.850   4.443  0.0982  0.0904 -0.1339
 8419W        W24553  11.988  17.091   2.144 -0.3635 -0.0755 -0.4909
 8420W        W24554  18.647  17.704   4.713 -0.3994 -0.0717 -0.0737
 8421W        W24555   1.458  15.033   5.612  0.2478 -0.0230 -0.1062
 8422W        W24556   3.191  18.902  14.691 -0.1251 -0.1735 -0.0387
 8423W        W24557  11.240   8.495   1.069  0.1778  0.0999  0.0700
 8424W        W24558  13.597   0.297  14.962  0.0205  0.0096  0.2205
 8425W        W24559   4.541   8.018   2.976 -0.2077  0.0548  0.2112
 8426W        W24560   0.032  17.023   4.059  0.1903  0.3281 -0.1672
 8427W        W24561  18.068   0.786  10.756  0.5314 -0.3070  0.2359
 8428W        W24562   3.921   1.532  14.950  0.0366 -0.1518 -0.1468
 8429W        W24563  15.450  14.062   5.120 -0.0493  0.2882 -0.1181
 8430W        W24564   1.981   1.001   0.751  0.1736 -0.4487 -0.1955
 8431W        W24565   4.884   4.340   2.917 -0.0571 -0.0249  0.1219
 8432W        W24566  15.795   6.152  10.157  0.0509  0.0174  0.2488
 8433W        W24567  13.891  17.648  11.269  0.4950 -0.0705  0.2009
 8434W        W24568  11.495  11.238   4.390  0.3244 -0.2436 -0.0723
 8435W        W24569   1.773  14.622   2.164  0.1904  0.0427  0.0270
 8436W        W24570   9.085  15.413  13.181 -0.3034  0.0888  0.0975
 8437W        W24571  11.021  19.006  11.014  0.1264 -0.0489 -0.2849
 8438W        W24572   6.183  14.586   1.461 -0.0255  0.0416  0.0283
 8439W        W24573   4.798   9.581  11.538 -0.0652  0.0154  0.0019
 8440W        W24574  16.621   7.523  15.005  0.2145  0.2307 -0.1149
 8441W        W24575   7.172  17.264   0.268 -0.2835  0.2232  0.3404
 8442W        W24576   2.198   8.970  13.845 -0.1900  0.0705  0.1285
 8443W        W24577   1.340  15.243  14.000  0.1836 -0.1961  0.0916
 8444W        W24578   6.483  16.364   5.555 -0.0195  0.1053 -0.4325
 8445W        W24579  15.257  17.460   4.728  0.1259  0.0229  0.1822
 8446W        W24580   6.162   9.571   5.008  0.2989  0.0584  0.1022
 8447W        W24581   8.905   4.251   0.610 -0.0096  0.2012  0.1890
 8448W        W24582   6.869  12.238   5.060  0.1230  0.2236  0.1528
 8449W        W24583   1.726   2.307   4.512 -0.0597 -0.0381 -0.1887
 8450W        W24584   0.873   5.997   0.476 -0.2290  0.0203  0.1095
 8451W        W24585  17.431   0.199  14.490  0.0001  0.0383  0.1179
 8452W        W24586  13.204  16.586   2.739 -0.1781 -0.3137 -0.0961
 8453W        W24587   3.165  18.819   2.421  0.1470 -0.1280 -0.2198
 8454W        W24588   3.000   7.051   1.010  0.5539  0.2549 -0.1930
 8455W        W24589  13.425   0.018   2.026 -0.0307 -0.3373 -0.0430
 8456W        W24590   8.006   5.500  12.919 -0.2712  0.0665  0.0923
 8457W        W24591   0.029   3.665   2.724 -0.0518 -0.0299 -0.1579
 8458W        W24592   9.907  12.717   0.731 -0.0504  0.1634 -0.1433
 8459W        W24593  13.924  12.304  13.472 -0.2376  0.2095  0.2073
 8460W        W24594   7.638  14.282  13.740 -0.1349  0.1367 -0.2566
 8461W        W24595  17.838   9.513  14.965  0.2420  0.0429 -0.2449
 8462W        W24596  13.856  12.598   1.756  0.2084 -0.2401  0.0132
 8463W        W24597  17.100   1.782   1.697  0.0339  0.0167 -0.2005
 8464W        W24598  14.229  15.753   3.976 -0.0927 -0.0296  0.2157
 8465W        W24599  12.796  18.227  12.873 -0.1169 -0.0908 -0.1441
 8466W        W24600   4.624   2.771  11.906 -0.2135 -0.0375 -0.0805
 8467W        W24601   9.571  11.477  13.529 -0.0317  0.0690 -0.3126
 8468W        W24602  10.017   1.901   2.655  0.1073 -0.0185  0.0686
 8469W        W24603  15.793  15.451   3.604 -0.0100  0.0127  0.3992
 8470W        W24604   7.349   3.331   3.425 -0.1306  0.0092  0.2344
 8471W        W24605   7.850  16.467  11.265 -0.3477  0.1816 -0.1891
 8472W        W24606   0.456  10.960   1.963  0.1991 -0.0314  0.1064
 8473W        W24607   3.140   3.431   4.986 -0.1330  0.0293 -0.0659
 8474W        W24608   3.556  17.853   3.936 -0.3405  0.0909 -0.0920
 8475W        W24609  11.154   4.449  14.500 -0.1290  0.1658 -0.2212
 8476W        W24610   3.068   8.944   0.825  0.0826  0.0777 -0.0457
 8477W        W24611   4.925   8.797  11.881 -0.1215 -0.1213 -0.2518
 8478W        W24612  18.110   9.902   0.819 -0.1352 -0.3866  0.0669
 8479W        W24613  15.071   8.434   2.681 -0.0108  0.1527  0.4243
 8480W        W24614   5.721   8.821  14.076  0.2628  0.1142 -0.0030
 8481W        W24615  12.917  11.101  14.705 -0.1201 -0.0553  0.1612
 8482W        W24616  11.241   1.200  12.109  0.0426 -0.0300 -0.1790
 8483W        W24617   8.494   1.962  12.932  0.4733  0.0989 -0.4947
 8484W        W24618   0.782  15.245   3.149 -0.4315 -0.0109 -0.4775
 8485W        W24619  10.170   0.680  12.612 -0.1477 -0.2628  0.0158
 8486W        W24620  16.232  10.100  10.186  0.3471 -0.0011 -0.0094
 8487W        W24621   6.892  12.678  13.221 -0.0180  0.0175 -0.1518
 8488W        W24622  12.070  18.159   1.822  0.0419 -0.0081 -0.1752
 8489W        W24623  13.107   5.569   2.275 -0.0826  0.1436 -0.0948
 8490W        W24624  14.650   9.457   3.360 -0.0599  0.1327  0.3439
 8491W        W24625   8.516   2.389  10.348  0.1261  0.0362 -0.1852
 8492W        W24626   0.993  13.163   1.332 -0.3933 -0.0771 -0.0015
 8493W        W24627   1.038   8.577   3.685  0.1093 -0.1522  0.4155
 8494W        W24628  17.944   5.134  13.260  0.0006 -0.0850  0.0930
 8495W        W24629   8.004   4.241   5.145 -0.3218  0.2009  0.0405
 8496W        W24630  10.879   2.022  11.766 -0.0798 -0.0892  0.2688
 8497W        W24631  11.134  13.227   4.852 -0.1374  0.0910 -0.0056
 8498W        W24632   1.239  16.565   0.155 -0.2293 -0.2360  0.1941
 8499W        W24633  13.921   5.523   4.024 -0.0770  0.3379 -0.1128
 8500W        W24634  11.402  11.764  12.382 -0.2431  0.0235  0.1954
 8501W        W24635   7.103   2.505  12.415  0.1271  0.0092  0.2430
 8502W        W24636   3.897  13.103  10.684 -0.1789 -0.0934 -0.1400
 8503W        W24637   0.811   0.653   5.959  0.1025  0.2848 -0.0031
 8504W        W24638  18.229   1.597  13.305 -0.0717 -0.0263 -0.4451
 8505W        W24639  10.546   8.157   2.532 -0.3334  0.3417 -0.0684
 8506W        W24640  13.720  13.169   2.488 -0.0458  0.1787  0.3592
 8507W        W24641   4.531  16.630   4.103 -0.2102  0.0487  0.2829
 8508W        W24642  15.093  18.160   0.756 -0.2621 -0.2304  0.1502
 8509W        W24643  17.034   4.379   9.390  0.0306  0.0954  0.1353
 8510W        W24644  14.674  13.552   3.600 -0.0247  0.0720 -0.0786
 8511W        W24645  15.403   6.806  11.834 -0.1230  0.0743 -0.1431
 8512W        W24646   2.777   5.212   2.184  0.1605 -0.0605  0.2282
 8513W        W24647  15.177   7.872   1.392  0.0678 -0.4272  0.1852
 8514W        W24648   6.310  15.199  13.575 -0.0718 -0.4629  0.0176
 8515W        W24649  10.563   4.511   1.672  0.5016 -0.0792  0.0043
 8516W        W24650   9.570  17.961  12.351 -0.1430  0.3158 -0.0922
 8517W        W24651  14.637  18.696   5.704 -0.4782  0.2309 -0.1656
 8518W        W24652   0.866   7.320   1.059 -0.2775 -0.1477  0.0873
 8519W        W24653  11.460   9.837  10.444  0.2732 -0.0558  0.1423
 8520W        W24654  16.844  19.088  12.784  0.0504 -0.2655  0.1982
 8521W        W24655   1.746  13.564   0.215  0.2752 -0.1754 -0.2582
 8522W        W24656   4.405  17.158  12.306  0.4055  0.1128  0.1117
 8523W        W24657   7.774  16.840   1.692 -0.0508 -0.2136  0.1734
 8524W        W24658   1.771   1.336  14.125 -0.2123 -0.0070 -0.1204
 8525W        W24659  17.545  18.142  13.879 -0.2075 -0.0119  0.2795
 8526W        W24660  16.237   9.441  14.706  0.1474  0.0961 -0.3191
 8527W        W24661  17.711   8.088   1.188 -0.1254  0.1384  0.0725
 8528W        W24662   5.644  15.298  13.522  0.0961 -0.2459  0.0434
 8529W        W24663  11.586  18.625  12.144  0.1487 -0.0975  0.0109
 8530W        W24664   7.207  10.735   1.663 -0.0407 -0.1121 -0.0336
 8531W        W24665   1.892  15.397  10.663 -0.2580  0.0084  0.2371
 8532W        W24666  17.494   8.062   2.606  0.1012 -0.0290 -0.1626
 8533W        W24667   9.565   8.127   1.173 -0.0007 -0.0778 -0.0127
 8534W        W24668  14.028  12.083   1.206  0.2324 -0.3244  0.1631
 8535W        W24669  16.874   3.022   4.769 -0.0071 -0.0332  0.0059
 8536W        W24670  15.271   9.188   2.107  0.0137  0.1219  0.0118
 8537W        W24671   7.476  12.972   0.962  0.1541  0.2565 -0.2378
 8538W        W24672   1.392  17.150  12.859  0.2832  0.1284  0.0055
 8539W        W24673   4.140  13.351   1.177  0.1103 -0.0492  0.0194
 8540W        W24674   3.283   9.968   4.767 -0.2414  0.2669  0.0324
 8541W        W24675  17.739  17.600  11.076  0.1873 -0.1496  0.0414
 8542W        W24676   0.802  11.249   3.827  0.1073 -0.0778 -0.1460
 8543W        W24677  10.262   9.795   1.501  0.1163 -0.2733  0.4309
 8544W        W24678   7.279   4.030  14.854 -0.1564  0.2093  0.1423
 8545W        W24679  11.005  11.965   0.057 -0.1185  0.0517  0.1050
 8546W        W24680   5.978   6.614  12.667  0.1648 -0.3129  0.0022
 8547W        W24681  14.026   7.211  11.796  0.1657 -0.1797 -0.0877
 8548W        W24682  13.279   0.897   2.899 -0.2498  0.0679 -0.1749
 8549W        W24683   1.258   0.967  11.518  0.3432 -0.1874 -0.0690
 8550W        W24684   1.941   1.976  14.549  0.4163  0.0840 -0.0059
 8551W        W24685   5.899   4.252   2.804  0.2182  0.2159 -0.0585
 8552W        W24686   4.320  13.806   4.862  0.1110 -0.2191  0.1038
 8553W        W24687  15.373  14.488  11.730  0.1337 -0.1577  0.2072
 8554W        W24688  17.503   3.071  14.686 -0.2645  0.1324 -0.2504
 8555W        W24689   8.168  11.452   1.057 -0.2069 -0.0991 -0.1961
 8556W        W24690  13.273  14.576  11.681  0.1782  0.0031  0.0086
 8557W        W24691   1.546  13.609   2.661 -0.0632  0.0770 -0.3939
 8558W        W24692  14.406   0.402  14.945  0.2967 -0.1410 -0.1277
 8559W        W24693   9.125  17.121  11.933  0.1501  0.2910  0.2861
 8560W        W24694   3.724   1.161   2.295 -0.1093 -0.1736 -0.0911
 8561W        W24695  13.317  11.719  10.442  0.0985 -0.1591  0.1307
 8562W        W24696   7.727   6.556   0.974 -0.1998 -0.1667  0.2107
 8563W        W24697  16.734  18.594  14.507 -0.1333 -0.1116 -0.2591
 8564W        W24698   1.266  10.421  12.748 -0.0481  0.1459  0.0101
 8565W        W24699   6.993   0.340  12.673 -0.2287 -0.1696  0.0006
 8566W        W24700   0.215  11.064   2.563 -0.2193  0.0894 -0.1430
 8567W        W24701   1.313  16.642  11.902  0.1205 -0.1756  0.2002
 8568W        W24702   4.756   4.990  13.160 -0.0422  0.1442  0.1621
 8569W        W24703   8.634   2.998   1.449 -0.0439 -0.1236  0.0252
 8570W        W24704   7.043  12.194  13.107  0.0387 -0.2340  0.2411
 8571W        W24705   0.215  13.111  13.577  0.2886 -0.1508  0.0828
 8572W        W24706   3.463   0.896  13.199 -0.2304  0.0483 -0.5980
 8573W        W24707  12.498   1.385  12.257  0.0434 -0.1670 -0.1424
 8574W        W24708  15.665   3.077   0.672  0.2356  0.1679 -0.2743
 8575W        W24709   1.074   8.630   2.014  0.0164 -0.1621 -0.0396
 8576W        W24710  10.232   5.020   4.409 -0.2476  0.0464 -0.0038
 8577W        W24711  15.923   9.044   2.341  0.3234 -0.0049  0.0119
 8578W        W24712  15.914   5.252   1.961  0.0564  0.1916 -0.1457
 8579W        W24713  16.680   5.744   4.411  0.1340 -0.0038 -0.0593
 8580W        W24714   4.092  10.196   4.497  0.0079  0.1144 -0.1382
 8581W        W24715   7.455   9.482   2.992  0.0200  0.1020 -0.1668
 8582W        W24716   1.895   4.871  13.015  0.0410 -0.1829  0.0651
 8583W        W24717   0.058   0.416  14.235 -0.1077 -0.0514 -0.1825
 8584W        W24718  14.793  10.559  13.297 -0.1165  0.3633 -0.1464
 8585W        W24719   3.124  16.596  11.362 -0.1594  0.2806 -0.1412
 8586W        W24720   5.702  18.529   9.985 -0.2181 -0.0631  0.1035
 8587W        W24721  11.034  19.128   1.442  0.0828  0.2532 -0.2758
 8588W        W24722   3.612   5.012  10.082  0.0589  0.2165 -0.2639
 8589W        W24723   2.535   4.046  11.086  0.0747 -0.1922  0.0731
 8590W        W24724   8.123   5.427   3.474 -0.2625  0.0716  0.1859
 8591W        W24725   0.738  18.244  10.810 -0.2240 -0.1478 -0.4805
 8592W        W24726   0.986  15.625  13.761  0.0361 -0.0180 -0.2067
 8593W        W24727   8.211   2.134   1.662  0.0583 -0.0203 -0.0375
 8594W        W24728   9.872   5.163   4.084  0.1335 -0.0177  0.0170
 8595W        W24729  19.187   2.048   2.663 -0.0200  0.1210 -0.0307
 8596W        W24730   1.524   8.474  11.561  0.1231  0.1973  0.1015
 8597W        W24731   8.735   5.569   9.809  0.1789 -0.0243  0.2363
 8598W        W24732   8.858  17.913  14.998 -0.3384  0.1920 -0.2846
 8599W        W24733   1.061   3.221  13.200 -0.0624 -0.2325  0.1364
 8600W        W24734  17.224   8.333  14.959 -0.1029 -0.0567 -0.0829
 8601W        W24735  15.932  13.862  13.014 -0.0564  0.1522 -0.0441
 8602W        W24736   6.483  17.231  11.611 -0.1449 -0.0772 -0.0144
 8603W        W24737  10.956  12.992  10.013 -0.3699 -0.0805 -0.1687
 8604W        W24738   9.689  15.331  10.125  0.1639  0.0184 -0.1054
 8605W        W24739   5.479   7.663   4.601  0.1744  0.1260 -0.0937
 8606W        W24740   9.414   3.678  12.220  0.1257  0.2029 -0.4902
 8607W        W24741   5.238  15.540  13.204  0.1069 -0.1247 -0.2729
 8608W        W24742   6.091   8.827  14.414  0.0067  0.1453 -0.0355
 8609W        W24743   5.596   6.856  12.949  0.1095 -0.1196 -0.2205
 8610W        W24744  15.454   2.899   1.125 -0.0931  0.0070 -0.2574
 8611W        W24745   2.463   8.008   0.951  0.1760 -0.0626  0.2228
 8612W        W24746   7.618   8.417   9.824  0.1069 -0.0208  0.0522
 8613W        W24747  12.987   8.972   1.751  0.2019 -0.1145 -0.2261
 8614W        W24748  11.856  16.512  12.896  0.0167  0.1280 -0.3166
 8615W        W24749  14.852   4.178  10.728  0.3237 -0.3891  0.0821
 8616W        W24750  18.847   2.180   1.701 -0.0361  0.0339  0.2984
 8617W        W24751  14.224   5.820   1.849 -0.0608 -0.0548 -0.3065
 8618W        W24752  10.093   8.568  10.634 -0.0769 -0.1710 -0.0646
 8619W        W24753  10.696  17.730   1.345 -0.1593  0.0630  0.0671
 8620W        W24754  15.645  13.877   4.659  0.1767 -0.1961  0.1942
 8621W        W24755   2.860  15.317  14.244 -0.0353 -0.0001 -0.1415
 8622W        W24756   8.996  14.307   2.721  0.3104 -0.0756  0.1416
 8623W        W24757  11.069   8.704  14.435  0.2089 -0.3275  0.1568
 8624W        W24758   4.841  13.238  11.621  0.0185  0.0494  0.2201
 8625W        W24759   5.003  18.016  13.092 -0.1957 -0.1464  0.0373
 8626W        W24760   2.384  13.853  11.013  0.0084 -0.2414 -0.1470
 8627W        W24761   6.554   6.839  10.499 -0.0434 -0.0124  0.0829
 8628W        W24762   7.883  14.658   3.924 -0.3400  0.0899 -0.3435
 8629W        W24763   2.105   8.747   2.046 -0.1194  0.0599 -0.3846
 8630W        W24764  10.990  15.043   2.792  0.1512 -0.3995  0.2313
 8631W        W24765  10.714  16.744  10.821 -0.0135 -0.3165 -0.2099
 8632W        W24766  11.703   4.714   1.359  0.0449 -0.0903 -0.1097
 8633W        W24767   4.193   7.162  11.611  0.2007  0.0103  0.1757
 8634W        W24768   9.168   0.803  14.520 -0.1804  0.0710 -0.1594
 8635W        W24769  15.196  15.442  13.668  0.2068 -0.5575 -0.1852
 8636W        W24770  15.700  18.719  13.641 -0.1806 -0.0390 -0.2189
 8637W        W24771   8.840  17.668   1.559  0.1248  0.0065 -0.3897
 8638W        W24772   8.402   2.903   2.230  0.0977  0.1808 -0.1896
 8639W        W24773  16.704   4.795  11.641  0.0275 -0.0234 -0.0466
 8640W        W24774  18.617  13.746  10.631  0.0585  0.1328 -0.0838
 8641W        W24775   4.162   1.297   9.564 -0.1177 -0.2052 -0.1358
 8642W        W24776  18.705  10.421   3.531  0.0086 -0.0506  0.1302
 8643W        W24777   1.315  10.988   5.233 -0.4171 -0.3448  0.2460
 8644W        W24778  10.270  13.028   0.879  0.1322 -0.0556  0.1587
 8645W        W24779  10.243   5.398   0.418  0.0796  0.0344  0.0267
 8646W        W24780   4.432   5.525   1.418  0.0682  0.1861  0.1223
 8647W        W24781   0.279   8.981  11.099 -0.2499  0.0478  0.1111
 8648W        W24782  11.738  10.174   0.342 -0.0559 -0.1293 -0.2083
 8649W        W24783   5.703  14.675   2.885  0.1401 -0.0767 -0.1237
 8650W        W24784   0.177  11.364   0.593  0.2658  0.5228 -0.1252
 8651W        W24785   9.729   9.761  12.468 -0.0353  0.1217  0.1409
 8652W        W24786  18.484   2.769   2.825  0.0387  0.2495 -0.0388
 8653W        W24787  14.522  14.885  10.478 -0.1322 -0.0412 -0.0143
 8654W        W24788   7.617  13.924   4.636  0.0693  0.2845 -0.2599
 8655W        W24789  16.797  13.022   1.324  0.0538 -0.0344  0.0374
 8656W        W24790  14.918  12.684  14.116  0.1278 -0.0050 -0.0367
 8657W        W24791   1.875  18.069  13.333 -0.2073 -0.3908 -0.2415
 8658W        W24792   7.095   4.832   4.309  0.3026  0.2113  0.1418
 8659W        W24793  11.070   2.215  13.598 -0.0530  0.0127 -0.1916
 8660W        W24794   1.898  15.134   3.345 -0.1472 -0.1985  0.1768
 8661W        W24795  12.427   5.098  12.797  0.0493 -0.0610  0.1964
 8662W        W24796  18.204  13.324   2.627  0.0384  0.0689  0.1259
 8663W        W24797  12.232  12.802  12.035 -0.2577  0.1840 -0.4167
 8664W        W24798  15.893   4.309   1.620 -0.1043 -0.1813  0.3446
 8665W        W24799   0.496   6.561  12.545  0.3178  0.0558 -0.1840
 8666W        W24800   4.583  11.675  11.315 -0.0495  0.2716  0.1049
 8667W        W24801   0.630   1.295  13.288  0.0273 -0.1437  0.0138
 8668W        W24802  15.376   4.470  12.768  0.1770 -0.0019  0.1522
 8669W        W24803  12.186   8.398   0.058  0.0456 -0.0388 -0.0306
 8670W        W24804  17.171   1.010  11.097 -0.1051  0.1706 -0.2280
 8671W        W24805   0.271  13.945   0.434  0.4800 -0.3410 -0.0413
 8672W        W24806  18.641   6.169   3.646  0.0370 -0.0562 -0.0150
 8673W        W24807  18.220   7.699  10.989  0.1119  0.3264 -0.1356
 8674W        W24808  14.196  10.805   0.833  0.2172 -0.2375 -0.0160
 8675W        W24809   5.822   9.950  13.145 -0.2848  0.1606  0.1041
 8676W        W24810   4.054   3.697   0.854 -0.2229  0.1001  0.1945
 8677W        W24811  10.917  17.937  12.762  0.2436  0.1377  0.0468
 8678W        W24812  14.841   7.603  12.158  0.1385  0.0174 -0.1611
 8679W        W24813  17.186   8.532  12.855 -0.5283  0.0426 -0.0357
 8680W        W24814  11.356  13.723   6.353  0.1375 -0.1678  0.0275
 8681W        W24815   1.737  16.463  12.317 -0.2161  0.0481  0.1854
 8682W        W24816   1.493  12.579   1.961 -0.0893 -0.2126 -0.3766
 8683W        W24817   6.625  18.735  12.490  0.0224  0.1289  0.1746
 8684W        W24818  16.449   7.166  12.556 -0.1185  0.0710  0.0057
 8685W        W24819  15.312  11.125   3.302  0.2090  0.0277 -0.2003
 8686W        W24820  12.456   3.967  14.154 -0.1162  0.0463 -0.2147
 8687W        W24821   7.217  16.734  14.785 -0.3398 -0.3020 -0.0957
 8688W        W24822   1.901   8.113  14.096  0.0537 -0.0968  0.1161
 8689W        W24823   9.893   7.048  12.572 -0.1199  0.1480  0.3157
 8690W        W24824   1.834  11.570   2.073  0.6532 -0.0654 -0.1303
 8691W        W24825   2.359   5.142   0.287  0.2806  0.0097 -0.3467
 8692W        W24826  15.074   7.111  10.924 -0.0530  0.2757  0.1621
 8693W        W24827  10.495  15.133  10.022 -0.1711  0.1064  0.3187
 8694W        W24828  10.015  19.096   4.071 -0.1136  0.4888  0.0352
 8695W        W24829   7.120  11.861  15.036 -0.4244  0.2601 -0.0681
 8696W        W24830   5.536   9.340  11.267  0.0622  0.0389  0.2416
 8697W        W24831  17.211  14.870   1.013 -0.0359  0.0840  0.0166
 8698W        W24832  14.958   4.642   4.552 -0.3114  0.1416  0.0284
 8699W        W24833   3.636  15.777  10.307 -0.2896 -0.2038 -0.3171
 8700W        W24834   9.368  17.718  14.980 -0.2872  0.1005 -0.1750
 8701W        W24835   8.698   1.163  13.949  0.4197 -0.1234  0.1663
 8702W        W24836   6.519  14.549   5.337  0.3246  0.1264  0.1051
 8703W        W24837  10.317   1.867   3.017  0.0171  0.1549  0.2687
 8704W        W24838  10.251  16.115   0.422 -0.1695 -0.2293  0.2557
 8705W        W24839  12.686  15.260   2.174  0.0067  0.0361 -0.1499
 8706W        W24840   2.444  14.650  12.868 -0.2138  0.0396  0.0823
 8707W        W24841   1.658  13.130   2.865 -0.2116 -0.1396 -0.2036
 8708W        W24842   6.991   7.064  10.673  0.2052 -0.0324  0.3356
 8709W        W24843   9.189  12.295   1.802  0.1148  0.0957 -0.3864
 8710W        W24844   8.683   2.742   3.920 -0.1404 -0.4039  0.2092
 8711W        W24845   4.267   3.630  12.487  0.0028 -0.2368  0.0784
 8712W        W24846  10.442   9.349  11.288  0.0575  0.0266 -0.1961
 8713W        W24847  15.320   0.154  10.456  0.1906  0.3606 -0.3553
 8714W        W24848   3.759   8.488  13.675  0.1699 -0.0332  0.3032
 8715W        W24849  11.013   7.979   2.618  0.3373 -0.3786 -0.1193
 8716W        W24850   0.885   3.774  12.282 -0.2113 -0.4891 -0.0657
 8717W        W24851  16.262   1.700  10.839 -0.1735 -0.1128 -0.1659
 8718W        W24852   0.725  15.843  11.852 -0.0979 -0.0584  0.2081
 8719W        W24853   5.353   6.628   3.356 -0.2477  0.0901  0.1480
 8720W        W24854   7.172   2.081   3.110  0.2840 -0.0918 -0.1724
 8721W        W24855  14.927  13.414   2.719  0.0945  0.0307  0.1251
 8722W        W24856   5.879   8.216   3.724  0.0276  0.0015  0.1135
 8723W        W24857   5.705   5.594   1.590  0.0959  0.2502  0.1024
 8724W        W24858  11.385   2.227  14.366  0.3591 -0.1250  0.1860
 8725W        W24859  17.310   9.296   1.789 -0.0123  0.0080  0.2319
 8726W        W24860   8.632   0.204  10.670 -0.0895 -0.2015 -0.1609
 8727W        W24861  16.118  17.212  12.105  0.1096  0.4272 -0.0109
 8728W        W24862  12.448  11.815   0.257 -0.3136 -0.0406 -0.2642
 8729W        W24863   1.597  11.788  14.064 -0.0710 -0.0921 -0.1190
 8730W        W24864  13.767   8.810   3.187 -0.1859  0.2118  0.1384
 8731W        W24865  16.609  14.215   1.125 -0.3153 -0.0647 -0.0567
 8732W        W24866  12.680   5.133   3.039  0.0194  0.2088  0.1003
 8733W        W24867   6.946   1.692   0.798 -0.1459  0.1969  0.1433
 8734W        W24868   3.199  12.889   2.567 -0.5029 -0.0851 -0.0649
 8735W        W24869   1.902  12.180   3.051  0.3814 -0.0722 -0.0997
 8736W        W24870   7.688   5.396   9.942  0.3576 -0.2065  0.1773
 8737W        W24871  15.974   2.959  14.013 -0.0649  0.2718 -0.1610
 8738W        W24872   2.951  14.075   0.569 -0.0962  0.0989 -0.2844
 8739W        W24873   5.234  14.141   4.018  0.0553  0.1748 -0.0071
 8740W        W24874  15.472  18.096  11.375  0.0270 -0.2654  0.0083
 8741W        W24875  11.986   6.879  13.046 -0.3294 -0.3671 -0.1614
 8742W        W24876  13.732  13.474   1.264 -0.1328 -0.0264 -0.0419
 8743W        W24877   2.281  17.641  13.658 -0.3723 -0.2176 -0.1314
 8744W        W24878  16.436   3.757  11.452 -0.1080  0.3307  0.2813
 8745W        W24879  17.045   8.282  13.346  0.2619 -0.0376  0.0630
 8746W        W24880   0.459  12.949   2.284 -0.0575  0.1574 -0.0870
 8747W        W24881  13.849   6.158   2.593 -0.4451  0.0804 -0.2606
 8748W        W24882   7.268  17.463   3.040 -0.0554 -0.1620 -0.1356
 8749W        W24883   6.250  14.534   0.394  0.0700 -0.0883  0.1733
 8750W        W24884  13.163   2.324  12.263 -0.1177  0.1851  0.0263
 8751W        W24885   5.700  13.889  14.757 -0.0919 -0.1341  0.2184
 8752W        W24886   6.503   1.944  12.606 -0.1366 -0.1248  0.1984
 8753W        W24887   2.259   1.089  12.512 -0.0737  0.0979 -0.1868
 8754W        W24888  11.629   4.326  10.664 -0.0251 -0.3035 -0.2919
 8755W        W24889   5.630  15.836   4.822 -0.1362 -0.1431  0.0926
 8756W        W24890   0.707   4.425  12.406  0.1346 -0.0487  0.1901
 8757W        W24891   6.100   2.451   2.754 -0.2374  0.1070  0.1097
 8758W        W24892  17.283  18.463  13.160  0.1133 -0.2254 -0.0436
 8759W        W24893  14.354  17.757  11.483  0.2847 -0.1102 -0.2871
 8760W        W24894   2.041  14.879   2.933  0.0088 -0.2378  0.1533
 8761W        W24895  16.875  17.031   0.038 -0.3387 -0.1480  0.2797
 8762W        W24896  15.381   4.260  11.671 -0.0019  0.0114 -0.2305
 8763W        W24897  11.274  16.966   0.343 -0.0759  0.0769  0.3283
 8764W        W24898   1.132  10.845   1.265  0.1305 -0.3658 -0.0945
 8765W        W24899  13.387   8.220  13.171 -0.0540  0.0923 -0.0523
 8766W        W24900   5.207  10.472  12.567 -0.0329  0.2466 -0.1506
 8767W        W24901   8.818  16.654  11.066 -0.2407 -0.3361 -0.0234
 8768W        W24902  18.353  11.188   1.691  0.3774 -0.2037  0.2532
 8769W        W24903   5.008   0.034   2.247  0.0555  0.1578  0.1772
 8770W        W24904   5.958  14.634  14.238  0.2401  0.0416 -0.1670
 8771W        W24905  16.106  11.254   2.111  0.0462 -0.0837 -0.1216
 8772W        W24906  16.161  14.492  13.760 -0.1218 -0.1488  0.2260
 8773W        W24907  15.068  11.178  13.867  0.2994  0.4140  0.0010
 8774W        W24908   6.103  14.793  10.453 -0.0947  0.0891  0.0563
 8775W        W24909   9.765  17.057   0.690  0.3387  0.2346  0.1142
 8776W        W24910  11.328  12.795   5.779 -0.4191 -0.0020  0.0213
 8777W        W24911  17.935  13.216   3.714 -0.3677  0.1148 -0.1795
 8778W        W24912   8.488  17.422  13.892  0.0960  0.0744  0.2810
 8779W        W24913   1.830  17.760   4.203 -0.1616 -0.1952 -0.0725
 8780W        W24914   8.864   9.378  11.813  0.0722  0.1103  0.2187
 8781W        W24915   2.850   6.157  13.453 -0.4285 -0.0883 -0.0269
 8782W        W24916  18.693  16.996  13.445  0.4495  0.1636 -0.4217
 8783W        W24917   8.933  17.054  13.233  0.1915  0.0300 -0.4827
 8784W        W24918  14.009  11.741  11.204 -0.4379 -0.0825 -0.0954
 8785W        W24919  16.129   2.417   3.739  0.0805  0.2964 -0.1996
 8786W        W24920  15.939   5.775   3.608 -0.1152  0.0837  0.1613
 8787W        W24921  11.771  11.827   2.912 -0.2156  0.2125  0.1301
 8788W        W24922   4.484  16.143  13.414 -0.0730 -0.3217  0.3768
 8789W        W24923   4.428   8.141   4.222 -0.2339  0.1354 -0.1533
 8790W        W24924   6.322  15.151  12.423  0.2788 -0.0411  0.0451
 8791W        W24925   3.657   5.185  14.857 -0.0321 -0.1574 -0.2637
 8792W        W24926  16.696   1.648   0.540 -0.0138  0.0936 -0.0702
 8793W        W24927  16.921   7.917   4.954  0.1121  0.1242 -0.1114
 8794W        W24928  16.520  18.455   3.798 -0.0685 -0.0281  0.2774
 8795W        W24929  17.432  13.200   0.259 -0.0450  0.1063 -0.1395
 8796W        W24930  18.788   3.631   4.299 -0.0353 -0.0338  0.1224
 8797W        W24931   8.333  17.722  13.037  0.0177 -0.2273  0.1093
 8798W        W24932   9.107   6.697   3.801  0.1080  0.0738 -0.1767
 8799W        W24933  16.121   7.967   3.780  0.1320 -0.1261 -0.2563
 8800W        W24934  15.348   3.556  11.478  0.2083 -0.1862  0.4894
 8801W        W24935  17.756  15.210   9.549  0.3833 -0.2227  0.0269
 8802W        W24936   9.542  14.957   0.624 -0.3642 -0.0514  0.1258
 8803W        W24937  17.717  18.607  12.838 -0.1089 -0.1846 -0.0279
 8804W        W24938  10.642   7.465  10.479  0.0546  0.0459 -0.3520
 8805W        W24939  19.197  13.944  13.912 -0.2482 -0.1907  0.0951
 8806W        W24940  17.313  12.524  12.595  0.2700 -0.0393 -0.2854
 8807W        W24941   2.990   7.851   0.169  0.1843  0.3524 -0.1152
 8808W        W24942   7.188   4.232   2.622 -0.0500 -0.1756  0.1461
 8809W        W24943   7.780  15.378   0.851 -0.1755  0.0866 -0.1477
 8810W        W24944  16.281   4.362  11.125  0.2299 -0.2844  0.0872
 8811W        W24945   1.841   3.217  12.853 -0.2364 -0.2244  0.3441
 8812W        W24946  17.472   5.808  14.540  0.1686 -0.2206 -0.1721
 8813W        W24947   0.223   5.124   1.660  0.1983  0.3019  0.0613
 8814W        W24948   1.831  17.264   4.523  0.1474  0.0262 -0.2307
 8815W        W24949  16.179  17.945   4.351 -0.3041  0.0168 -0.2239
 8816W        W24950   3.020  17.725   3.473  0.2280 -0.4150 -0.2513
 8817W        W24951  15.634   1.418  10.245  0.0124 -0.2811  0.1896
 8818W        W24952  14.401  14.583  11.951  0.4436 -0.1782 -0.1202
 8819W        W24953   3.454   2.580  14.323  0.0142  0.1995 -0.0734
 8820W        W24954   9.289   3.218   0.611 -0.3780  0.3044  0.5232
 8821W        W24955   2.845   9.533   1.086 -0.1859  0.3826  0.2587
 8822W        W24956   9.353   5.401  11.923  0.2441 -0.0515 -0.0521
 8823W        W24957  14.538  14.747  12.939 -0.1953 -0.0431  0.0985
 8824W        W24958   8.518   9.486   2.873  0.0464  0.0290 -0.1725
 8825W        W24959  11.292   9.654   2.322 -0.0799  0.0784  0.1386
 8826W        W24960  14.704  17.357   0.228  0.3617 -0.1567 -0.3767
 8827W        W24961  13.891  17.267   3.575 -0.1488 -0.3195  0.2030
 8828W        W24962   6.759   4.960   2.020 -0.3127  0.0581 -0.0070
 8829W        W24963  12.373   7.292   1.350  0.2679 -0.1690  0.1362
 8830W        W24964  13.627  14.453   1.741 -0.0538 -0.0275  0.0573
 8831W        W24965  18.742  14.767   3.099  0.1890 -0.2346 -0.1201
 8832W        W24966  10.161   2.952  13.255 -0.0433 -0.1464  0.1685
 8833W        W24967   3.578  13.012  12.956  0.0222  0.0316  0.0108
 8834W        W24968   2.867   0.579  14.817 -0.1314 -0.2909 -0.2280
 8835W        W24969  16.260   1.187  14.703 -0.1393 -0.0218 -0.1178
 8836W        W24970   8.040   2.279  14.961  0.1581 -0.1457  0.2039
 8837W        W24971  13.020   3.075   3.653 -0.2337 -0.0672  0.1063
 8838W        W24972  13.088  15.002   0.088 -0.3746  0.3285  0.1342
 8839W        W24973  15.643   1.013   1.049 -0.2494 -0.0362  0.1305
 8840W        W24974  14.752  12.099   5.689  0.1222 -0.1847  0.2123
 8841W        W24975   7.377  14.299  12.023 -0.1992 -0.0412  0.0948
 8842W        W24976   8.044   8.906   3.652 -0.0596 -0.1341  0.1240
 8843W        W24977   9.597   8.472  13.576 -0.0903 -0.0690 -0.1874
 8844W        W24978  15.039   6.244  11.536  0.1812 -0.2689 -0.0555
 8845W        W24979   3.763   1.725  10.895 -0.0344  0.1536 -0.0452
 8846W        W24980   9.004   7.496   4.420 -0.0860 -0.2656  0.1621
 8847W        W24981   6.172   4.283   0.619  0.2569  0.4510  0.0607
 8848W        W24982   7.917  15.906   0.740 -0.2574  0.2082  0.0439
 8849W        W24983   1.322  16.888  13.261  0.0443 -0.3447 -0.0200
 8850W        W24984   8.729  15.516   0.450  0.0451 -0.1065  0.1439
 8851W        W24985   0.448   6.276   4.220 -0.1752  0.1216 -0.0991
 8852W        W24986  13.279  17.858   4.527  0.3440 -0.0803 -0.0396
 8853W        W24987   6.342   6.070  12.747  0.2343 -0.2056 -0.2833
 8854W        W24988   2.264  19.079   0.762 -0.3618 -0.1295  0.0291
 8855W        W24989  16.943  13.978  13.351 -0.3524 -0.2776 -0.1073
 8856W        W24990   1.164  18.242   1.974 -0.0001  0.1415  0.0423
 8857W        W24991  13.559   5.841  14.911  0.1087  0.0055  0.2766
 8858W        W24992  16.133   5.774  10.395 -0.1464 -0.0523  0.2328
 8859W        W24993   8.736  13.170   4.425  0.1970  0.1357  0.0437
 8860W        W24994   0.728  14.865  13.109  0.1024 -0.0807 -0.0664
 8861W        W24995  17.097   3.713   0.241  0.2895  0.0604 -0.1667
 8862W        W24996  11.330  14.836   3.321  0.2109 -0.0748 -0.2206
 8863W        W24997   3.232  15.335  13.929  0.0286  0.0012 -0.2686
 8864W        W24998   0.691   1.490   2.130  0.2986 -0.0394  0.2132
 8865W        W24999   7.385   8.998  11.802  0.3609  0.2095  0.4327
 8866W        W25000   4.239   0.445  13.560 -0.3726 -0.1987  0.3371
 8867W        W25001   9.995   6.485  12.488 -0.1260  0.2965 -0.1066
 8868W        W25002  16.667  13.113   3.508 -0.2165  0.0075 -0.2615
 8869W        W25003  15.861  12.017   0.524 -0.1222 -0.0784 -0.1681
 8870W        W25004  14.656  14.891   5.629  0.3338 -0.2442  0.0011
 8871W        W25005  11.799  17.678  14.486 -0.1218 -0.3698 -0.0906
 8872W        W25006  11.120  18.324   1.896 -0.0119 -0.0144  0.1878
 8873W        W25007   5.052   7.787   3.512  0.0219  0.1434 -0.1303
 8874W        W25008   1.011   0.550   0.633 -0.1073 -0.0945 -0.2786
 8875W        W25009  14.610  13.128  14.567  0.0828 -0.1111 -0.1265
 8876W        W25010   7.474  13.785  14.916 -0.2277 -0.0312  0.0556
 8877W        W25011   4.373  10.626  11.111  0.0736 -0.1324  0.0382
 8878W        W25012  16.734   1.265   3.191 -0.3434 -0.3056  0.0856
 8879W        W25013   1.524  15.203   1.198 -0.3096 -0.3646 -0.3600
 8880W        W25014  17.780  16.228  12.344 -0.0407 -0.1900  0.0266
 8881W        W25015   4.965  15.812   2.180 -0.1104 -0.1209  0.2336
 8882W        W25016  13.884  14.705  13.511 -0.0913 -0.1153 -0.1982
 8883W        W25017   6.398  16.745  11.074  0.3983  0.6433  0.1540
 8884W        W25018   4.547  12.376   1.998  0.2414 -0.1244 -0.0084
 8885W        W25019   3.225   9.190  14.635 -0.1047 -0.3366 -0.4879
 8886W        W25020   7.014   8.733   2.884  0.0914  0.0417  0.0618
 8887W        W25021   5.029   4.363   1.054 -0.0182 -0.1121  0.0981
 8888W        W25022   9.863  18.787  14.409 -0.2033  0.0364 -0.1639
 8889W        W25023   3.865   0.133  14.890 -0.0668  0.1496  0.2772
 8890W        W25024  14.496   5.344  12.967  0.0169 -0.2148 -0.1277
 8891W        W25025   0.287   2.049  10.304  0.0111 -0.0532 -0.0149
 8892W        W25026  17.231   2.843   0.170  0.0475  0.0899 -0.0675
 8893W        W25027  13.582   4.713  11.880 -0.1268  0.3030  0.3715
 8894W        W25028   6.223  12.910  13.186  0.0447  0.0141 -0.1741
 8895W        W25029   0.491   2.739   0.576  0.0265 -0.2612 -0.0932
 8896W        W25030  14.279   9.519   0.366 -0.1571 -0.2211  0.0919
 8897W        W25031  10.365  10.269  13.194  0.2768  0.0864  0.0579
 8898W        W25032   5.926  11.323   2.959  0.2353  0.0954 -0.0590
 8899W        W25033  11.671   2.459   3.312 -0.1964 -0.0293 -0.0771
 8900W        W25034   6.247   6.787   4.918 -0.1673 -0.0168  0.0678
 8901W        W25035   9.654   7.269   1.531 -0.1695  0.0752 -0.0113
 8902W        W25036   1.909   9.500  14.466 -0.0439  0.0222  0.2022
 8903W        W25037   7.510   7.424  11.939 -0.2009 -0.1329 -0.0503
 8904W        W25038   7.828  10.264   3.094 -0.2820  0.4547 -0.0187
 8905W        W25039  11.894   2.420  14.146  0.0373  0.2257 -0.0997
 8906W        W25040  10.134  11.843  11.754 -0.0461  0.1854  0.1360
 8907W        W25041  16.161   0.732  11.183  0.0708 -0.3064  0.2823
 8908W        W25042   2.755  16.909   0.106  0.0739 -0.1061  0.0098
 8909W        W25043  14.057   1.425  10.504  0.0894  0.0562  0.0382
 8910W        W25044   4.679   4.315  13.228 -0.0285  0.2259 -0.2809
 8911W        W25045  16.953  16.408  12.019 -0.1200  0.1720  0.2378
 8912W        W25046  18.389  17.755   2.216  0.3740  0.1305 -0.1373
 8913W        W25047   8.082   2.913  13.660 -0.0000 -0.0359  0.1137
 8914W        W25048  11.653   8.394  10.278 -0.2358 -0.1213 -0.2158
 8915W        W25049  14.823  17.589  13.623 -0.3994  0.3081  0.1035
 8916W        W25050   1.638   1.382   1.086  0.1082 -0.0794  0.1744
 8917W        W25051   1.538   5.248  13.679 -0.0846 -0.1146  0.2968
 8918W        W25052   5.872  17.396   1.295 -0.1514 -0.0559  0.1744
 8919W        W25053  15.591  14.853   2.196  0.2756 -0.1324  0.3010
 8920W        W25054  16.838   7.601  13.878  0.1234  0.2797  0.1150
 8921W        W25055   7.824   8.627   0.976  0.0253  0.1452  0.1169
 8922W        W25056  18.736  16.858   1.734  0.1897 -0.4200 -0.0748
 8923W        W25057  12.621  18.976  13.156 -0.0934 -0.2492 -0.2223
 8924W        W25058  15.016   0.500   2.770  0.0154  0.0508  0.1281
 8925W        W25059   4.875  17.760   2.462  0.2174  0.0504 -0.1429
 8926W        W25060   2.799  13.181  11.359  0.0352 -0.0993 -0.0152
 8927W        W25061   4.858   2.724  12.504 -0.0557  0.0208 -0.0380
 8928W        W25062  16.276   6.475  12.972  0.0222 -0.2106  0.0261
 8929W        W25063   0.550   0.906   4.443 -0.2575  0.1711  0.0489
 8930W        W25064  16.933  17.181  14.045 -0.3767  0.2677  0.0509
 8931W        W25065  11.106  18.764   4.322  0.2447 -0.1309  0.3359
 8932W        W25066   5.353  11.323  14.873 -0.2705  0.0893 -0.1105
 8933W        W25067   4.799  13.903   4.625  0.1705  0.3940 -0.2210
 8934W        W25068   6.703   7.720   9.103 -0.0409 -0.0189  0.3004
 8935W        W25069   7.325  12.517   4.252  0.1640  0.0804 -0.2202
 8936W        W25070   5.579   2.324   3.391  0.0658  0.2186 -0.1125
 8937W        W25071   1.769  12.601   3.392  0.0507  0.0092 -0.1059
 8938W        W25072  11.056  18.185   0.998 -0.2087  0.1391  0.1296
 8939W        W25073   9.925   4.776  12.824 -0.0221  0.0910 -0.1628
 8940W        W25074   2.108  17.699   1.983 -0.0630  0.0217  0.1165
 8941W        W25075  11.030   3.340  14.858  0.2763 -0.0953  0.3083
 8942W        W25076   2.013   5.549  13.863  0.1850 -0.2502 -0.3450
 8943W        W25077  16.581   0.068  11.576 -0.1989  0.0863  0.1909
 8944W        W25078   6.665   3.690  10.795  0.2144 -0.0849  0.0543
 8945W        W25079  17.735  15.541   3.812 -0.0672 -0.1718 -0.1553
 8946W        W25080  12.485   1.657  10.403 -0.2652  0.0995 -0.4788
 8947W        W25081   0.764  12.433  12.413 -0.1234  0.0612  0.2689
 8948W        W25082   5.186   5.786   5.413  0.2557 -0.1006  0.2987
 8949W        W25083  17.438  15.819   2.202 -0.3386 -0.1071 -0.0664
 8950W        W25084   4.342   7.749  13.146  0.1581  0.0399  0.3029
 8951W        W25085   8.526   1.201   0.469 -0.3086  0.0860  0.1072
 8952W        W25086  16.374   9.315   1.906  0.1626  0.0194 -0.4823
 8953W        W25087  15.788   2.594  10.703  0.1957  0.1605  0.0168
 8954W        W25088  13.204  10.053  10.443 -0.1338  0.2134  0.2262
 8955W        W25089   1.182   6.878   5.215  0.0203  0.1663  0.2941
 8956W        W25090   9.193   4.856  10.223 -0.2443  0.1487  0.2930
 8957W        W25091  12.412   4.200  12.848  0.2033 -0.1621 -0.1284
 8958W        W25092   3.916   8.885   0.589  0.1991  0.0278 -0.1713
 8959W        W25093   8.658  11.061   3.880 -0.2590  0.0347  0.0248
 8960W        W25094  14.968   7.334   3.742 -0.2525  0.3363 -0.0014
 8961W        W25095   2.458  18.984  11.574  0.0450  0.0760  0.0126
 8962W        W25096  12.541   0.097  11.495 -0.1930  0.2032  0.2436
 8963W        W25097   5.954  18.822  13.512 -0.0555 -0.0823  0.3959
 8964W        W25098  11.770   3.018  14.812 -0.1757  0.1997 -0.1212
 8965W        W25099   9.960  12.415  10.846 -0.1072  0.1797  0.0459
 8966W        W25100   2.112   6.630  13.156 -0.0900  0.0144  0.1127
 8967W        W25101   3.423   4.026  10.948  0.0956  0.0417 -0.3404
 8968W        W25102  13.436   8.547  10.856 -0.1959 -0.2298 -0.2133
 8969W        W25103   3.338   1.366   3.137  0.1090 -0.2026 -0.1366
 8970W        W25104   0.354  14.659  12.356 -0.0687 -0.1717 -0.0026
 8971W        W25105  14.942   4.246   2.217  0.5102  0.1716  0.0670
 8972W        W25106   1.769   7.916   2.296 -0.0501  0.0898  0.1744
 8973W        W25107   8.288   1.572   0.193 -0.1300 -0.2588  0.1378
 8974W        W25108   1.314  16.270   5.971  0.2718 -0.3056  0.4048
 8975W        W25109  15.845   1.687   5.505  0.0272 -0.1081  0.0309
 8976W        W25110  14.822  12.286   2.362 -0.0138 -0.1764 -0.3004
 8977W        W25111   8.643  12.527  12.421 -0.0881  0.1425 -0.0249
 8978W        W25112  17.808   1.059  14.824  0.1823  0.1696 -0.5081
 8979W        W25113  18.031   3.269   2.462 -0.0207  0.1397 -0.2041
 8980W        W25114   0.343  16.409   5.792  0.0074 -0.0207  0.1685
 8981W        W25115  13.079   6.976  13.230  0.3192 -0.1077  0.3267
 8982W        W25116  18.848  10.824   0.050  0.1199 -0.1914 -0.1585
 8983W        W25117   6.586   9.410  13.094 -0.3005  0.3567 -0.1075
 8984W        W25118  11.559   0.429   4.722  0.6211  0.0998 -0.2071
 8985W        W25119  11.050   9.911   0.951  0.1288 -0.3019  0.0020
 8986W        W25120   2.335  10.390  11.590 -0.2770 -0.2630  0.2345
 8987W        W25121  17.950  18.026  14.229  0.1422 -0.1754  0.0650
 8988W        W25122   4.757  16.833   0.197 -0.1092  0.2443  0.2890
 8989W        W25123   7.657  11.973  11.547  0.1798 -0.0186 -0.0982
 8990W        W25124   0.958  14.837  14.956  0.1129  0.1592  0.1251
 8991W        W25125  11.246  12.659  13.086 -0.1278  0.3065  0.0702
 8992W        W25126   7.283   8.553  13.658 -0.0880  0.0283 -0.1343
 8993W        W25127  17.903  18.524  13.897  0.0121 -0.3031 -0.2684
 8994W        W25128   5.505   5.477  11.418  0.2021  0.1631  0.1235
 8995W        W25129   9.114   5.264   3.478 -0.1957 -0.3284 -0.4120
 8996W        W25130   6.961   3.421  12.359  0.0734  0.1375  0.0025
 8997W        W25131  17.863  13.463  14.599 -0.1620  0.1522  0.0124
 8998W        W25132  17.255  16.345   6.147 -0.3079  0.1680 -0.1511
 8999W        W25133  10.139  13.092   4.185 -0.1223 -0.1791  0.0882
 9000W        W25134  11.965   8.381   4.577 -0.0969  0.0194 -0.2366
 9001W        W25135  18.397   2.947   0.762 -0.0307  0.0827 -0.3776
 9002W        W25136  15.637  16.895   3.587  0.2416  0.3164 -0.0245
 9003W        W25137  17.496   6.493   4.570  0.0074  0.2030  0.2723
 9004W        W25138   1.988   1.080  14.866 -0.2411  0.1797  0.0724
 9005W        W25139  12.950   3.153   1.507 -0.2197 -0.0733 -0.4109
 9006W        W25140   5.402  17.259   4.643  0.3211  0.1686 -0.0839
 9007W        W25141   5.383   2.839  12.695  0.0506  0.1014 -0.0011
 9008W        W25142   6.023  12.776  14.209  0.1302 -0.1118 -0.0964
 9009W        W25143  14.865  13.589   4.105  0.0973 -0.1566  0.4231
 9010W        W25144   2.132   7.242  11.758 -0.0410  0.0765  0.2371
 9011W        W25145   3.791   2.578  10.951  0.0363  0.0261 -0.3273
 9012W        W25146   0.097  12.198  11.059 -0.0672 -0.1056  0.3438
 9013W        W25147  15.806  10.766   0.947 -0.0190 -0.2741  0.3289
 9014W        W25148  16.536  11.765  12.142 -0.0399  0.0320  0.1917
 9015W        W25149  14.640  11.095  11.118  0.1369  0.0355 -0.0516
 9016W        W25150  17.216  13.889  11.974  0.2240 -0.1061  0.1060
 9017W        W25151   4.432   6.460   0.486 -0.1258 -0.0084  0.0202
 9018W        W25152   8.449  11.288   3.426  0.0630 -0.2454 -0.2761
 9019W        W25153   9.572  13.007  14.036 -0.1362  0.1793  0.0539
 9020W        W25154  12.657   2.290   1.235 -0.2167 -0.0766  0.0160
 9021W        W25155   3.736   6.307  13.776  0.3416  0.1672 -0.0072
 9022W        W25156  11.691  14.993   2.377 -0.2816  0.0780  0.0966
 9023W        W25157  15.439  16.213  11.364 -0.1367  0.1058  0.5103
 9024W        W25158  17.578   3.312   0.125 -0.1141  0.3113  0.1051
 9025W        W25159   4.614   0.117   1.391 -0.1870 -0.0753  0.0264
 9026W        W25160   5.068   8.022   3.077 -0.0190 -0.1629  0.0948
 9027W        W25161  15.919  10.715  12.314  0.0554 -0.1794 -0.0658
 9028W        W25162  18.547  10.958  14.716  0.1381 -0.1614  0.4309
 9029W        W25163   0.985   7.503  14.467 -0.2790  0.0695  0.0970
 9030W        W25164  13.670  13.948   1.062  0.0012  0.2233  0.0305
 9031W        W25165   6.108   2.122   2.382  0.0368  0.2749  0.0500
 9032W        W25166   6.913   4.603  12.843 -0.2823 -0.1997  0.2764
 9033W        W25167   4.924  17.984   4.646 -0.0161  0.0471  0.0785
 9034W        W25168   4.697  14.192   4.220  0.0868 -0.1292  0.1982
 9035W        W25169  18.305   4.897  13.932 -0.1466  0.0629  0.0934
 9036W        W25170   0.718  15.300   2.377  0.0050 -0.3537  0.1303
 9037W        W25171   8.301   3.097  11.028  0.3645  0.1097 -0.3157
 9038W        W25172  16.024  16.725  12.327  0.0670  0.0940 -0.2094
 9039W        W25173  15.088  11.581   0.219 -0.1861 -0.4092  0.1213
 9040W        W25174   9.763  16.050  13.667 -0.0174  0.2075  0.0565
 9041W        W25175   8.136   6.308  13.839 -0.2050  0.2146 -0.1119
 9042W        W25176  11.769  15.125   1.024  0.1117 -0.0153 -0.1898
 9043W        W25177   4.237   6.908   4.911  0.1708  0.3704  0.0124
 9044W        W25178  12.106  19.172   2.087 -0.0677 -0.2350 -0.0750
 9045W        W25179   3.388   4.743  12.369 -0.1997  0.3432  0.1650
 9046W        W25180   6.064   9.675   5.474  0.1003  0.0708 -0.2591
 9047W        W25181  14.471   2.731   3.233  0.1057 -0.1905  0.1661
 9048W        W25182   0.564  15.761   3.563  0.0048  0.0856 -0.2941
 9049W        W25183   6.399  11.960  13.227 -0.0532  0.0794  0.2421
 9050W        W25184  10.847  17.670   0.836  0.0502 -0.2060 -0.0468
 9051W        W25185   1.821  17.191  11.120  0.1233 -0.0159 -0.1343
 9052W        W25186  16.105  12.479   4.600 -0.0941 -0.0761 -0.0122
 9053W        W25187   1.271   1.666  11.060  0.1867 -0.0179 -0.2575
 9054W        W25188  16.890   0.765   0.784 -0.1643  0.2783 -0.0444
 9055W        W25189   8.374  19.074   0.408 -0.0651 -0.1409 -0.0776
 9056W        W25190  11.113  18.859  14.447 -0.1276  0.1852  0.1039
 9057W        W25191  17.752   0.338  10.912 -0.1254  0.3968  0.0578
 9058W        W25192  15.351  16.491  13.580  0.2344 -0.3467 -0.0033
 9059W        W25193   2.090   7.691  12.217  0.1433 -0.1852 -0.4373
 9060W        W25194  18.747  15.178  13.328  0.2061 -0.1959  0.0891
 9061W        W25195   9.721  17.415   3.778  0.1142  0.0363 -0.0056
 9062W        W25196  19.236  14.395  11.507 -0.3478  0.0423 -0.0544
 9063W        W25197   0.209   9.265   1.164 -0.0883  0.1531  0.1589
 9064W        W25198  12.441   7.840   9.815  0.2389  0.0641 -0.0263
 9065W        W25199   7.447   0.140  12.871  0.1017 -0.0932  0.0778
 9066W        W25200  15.046  17.195   3.041 -0.0086 -0.0020  0.2151
 9067W        W25201   9.414  14.024   1.809  0.1446 -0.0340 -0.0610
 9068W        W25202   2.440   3.259  13.733 -0.0644 -0.0363  0.0990
 9069W        W25203   5.254   3.291   4.750 -0.0409  0.1840  0.1570
 9070W        W25204  10.853   9.308   9.828 -0.0512  0.1681 -0.0029
 9071W        W25205   0.402   1.005   1.188  0.2594 -0.0274 -0.1138
 9072W        W25206   2.198  17.071   0.340 -0.0961  0.1792  0.1314
 9073W        W25207   3.329  10.739   3.617  0.1499 -0.0413  0.1600
 9074W        W25208   8.976   6.706   0.531  0.1037  0.0841 -0.0219
 9075W        W25209  15.938   9.407   4.130 -0.2146  0.0365  0.0397
 9076W        W25210   8.065  14.159  14.974 -0.0550 -0.0105  0.1620
 9077W        W25211   2.705  15.106  11.939 -0.2988  0.1014  0.0183
 9078W        W25212  17.714   8.431  13.059  0.2845 -0.3740 -0.2222
 9079W        W25213   9.466  17.372   9.489 -0.1201  0.1257  0.2449
 9080W        W25214   1.425   0.519  13.994  0.1072  0.2497  0.0683
 9081W        W25215  14.363   0.940  13.327  0.0889  0.0623 -0.1496
 9082W        W25216  17.473  13.989   2.485 -0.5235 -0.1705 -0.2167
 9083W        W25217   7.614  15.941   3.320  0.2925  0.2055 -0.0530
 9084W        W25218   8.289   0.940  10.204 -0.4974 -0.1027 -0.1037
 9085W        W25219   5.548  10.487  11.270 -0.0317 -0.1111  0.1062
 9086W        W25220   2.920   1.287   2.952 -0.0707  0.0266  0.3629
 9087W        W25221  17.425  13.035  12.821 -0.0823  0.1316 -0.2251
 9088W        W25222   6.169  13.073  10.065  0.1266  0.0345 -0.0427
 9089W        W25223  12.433  11.009   2.860 -0.4924  0.0620 -0.2243
 9090W        W25224   8.313  13.772  14.048 -0.0527 -0.1872  0.4327
 9091W        W25225  19.049   3.941  13.309  0.0810  0.0387  0.0126
 9092W        W25226  12.643  10.871  11.572 -0.0092  0.1903  0.0284
 9093W        W25227   3.231  10.812   0.880  0.0183 -0.1342 -0.0961
 9094W        W25228  11.767   4.068  12.893  0.0236 -0.4011  0.3574
 9095W        W25229  12.200  14.175   0.888  0.0927  0.2912 -0.0104
 9096W        W25230   0.639  17.800  14.227  0.1961 -0.0714  0.1610
 9097W        W25231   5.809   7.332   4.814 -0.1079 -0.1766  0.0469
 9098W        W25232  16.014  16.882  10.923  0.1308  0.0622 -0.2893
 9099W        W25233  17.913   8.893  12.310  0.2729  0.2209 -0.1646
 9100W        W25234   9.178   8.250   4.291  0.2652  0.1706  0.1791
 9101W        W25235  13.924   2.836   0.107  0.1419  0.0356  0.1383
 9102W        W25236  15.474  17.107   4.100  0.3500  0.0438 -0.0142
 9103W        W25237  17.407  15.712  14.320  0.3106 -0.2988  0.0922
 9104W        W25238   4.766   8.784   0.071 -0.2449 -0.2537  0.0956
 9105W        W25239   0.528   8.129   0.698 -0.3117 -0.1119 -0.1470
 9106W        W25240  16.279  12.748   9.928  0.0529 -0.0521  0.0146
 9107W        W25241  15.776   9.387   5.600  0.1134 -0.3368  0.4424
 9108W        W25242  11.620   1.974  14.009  0.2180  0.0064 -0.0510
 9109W        W25243  10.591   0.989   0.028 -0.0181 -0.3803 -0.0784
 9110W        W25244  11.023   4.345   0.740 -0.2350 -0.0197  0.2516
 9111W        W25245  17.803   4.090  13.681  0.4392  0.0139 -0.1859
 9112W        W25246  10.752   0.334  11.656 -0.0950  0.0183  0.1306
 9113W        W25247  14.536  17.140  14.813 -0.1484  0.3012 -0.1811
 9114W        W25248   3.979  18.939  11.942  0.1684  0.0073 -0.0293
 9115W        W25249   3.512   9.536  10.584  0.1715 -0.0375 -0.2664
 9116W        W25250   2.856   8.699   3.676 -0.0231  0.0285 -0.0409
 9117W        W25251   2.322  12.390   1.015  0.2635 -0.1985  0.1194
 9118W        W25252  12.650   7.880  14.447 -0.2888  0.0785 -0.3180
 9119W        W25253   1.638   9.928   1.376 -0.0853  0.2437  0.1353
 9120W        W25254  16.881   1.296   4.730 -0.0110 -0.5044  0.0321
 9121W        W25255   9.397   4.589  13.002  0.0986  0.2803 -0.0854
 9122W        W25256   4.488   2.162   4.113 -0.1930 -0.3128 -0.0889
 9123W        W25257   1.948  15.433   2.798  0.0967 -0.1743 -0.0904
 9124W        W25258  18.456   0.586   1.886 -0.3357 -0.3162  0.2152
 9125W        W25259   5.390  13.214   0.306 -0.1360 -0.0106 -0.0627
 9126W        W25260  18.130   3.072   0.153  0.0270 -0.2027 -0.0454
 9127W        W25261  18.196  12.009  14.472 -0.0853 -0.0358 -0.0639
 9128W        W25262   1.618   7.212  11.282 -0.2673 -0.2691  0.3223
 9129W        W25263  11.224   1.734  15.015  0.0300  0.0181 -0.2302
 9130W        W25264   8.081   7.444  13.230 -0.0831 -0.0285 -0.2362
 9131W        W25265   1.310   5.757  12.013  0.0066  0.2066  0.0475
 9132W        W25266   3.602   9.079   0.871 -0.1688  0.0873  0.1778
 9133W        W25267  11.751  13.243   3.361 -0.0729  0.0179 -0.1761
 9134W        W25268   2.685   4.269   1.264  0.1461  0.2546 -0.0900
 9135W        W25269   0.854   3.740   0.651 -0.1961 -0.3652  0.1773
 9136W        W25270   1.169   5.708  13.489 -0.2335  0.1228  0.2059
 9137W        W25271  14.365   1.842   1.802  0.2368 -0.1284  0.0380
 9138W        W25272   2.764   0.671  13.747  0.0296  0.0858 -0.1841
 9139W        W25273   5.981  14.265  14.595 -0.2039 -0.1525  0.1970
 9140W        W25274  13.108  11.825   3.934  0.0210  0.1953 -0.1501
 9141W        W25275   7.992   5.849  13.701 -0.0995 -0.0897  0.0722
 9142W        W25276  18.685  10.572   4.844 -0.0553  0.2882  0.0153
 9143W        W25277   3.022  10.358   0.600  0.0290 -0.1302  0.0699
 9144W        W25278   5.684  14.823   5.132  0.0006 -0.1248  0.2562
 9145W        W25279  15.413  12.401  14.896 -0.3729 -0.1938  0.2169
 9146W        W25280   6.388   4.748   9.967 -0.0159 -0.0334 -0.0752
 9147W        W25281  15.913  18.886  10.101  0.1124  0.2547  0.1481
 9148W        W25282  16.193   2.146  13.876 -0.1979 -0.2261  0.0547
 9149W        W25283   5.265  12.405  14.270  0.0174 -0.2604 -0.0913
 9150W        W25284   7.867  17.564  15.009  0.0992 -0.1249  0.2121
 9151W        W25285  13.861  14.499   4.701  0.2554 -0.0719 -0.1354
 9152W        W25286   1.178   0.584   0.104  0.0132  0.1538 -0.1172
 9153W        W25287  12.437  17.410  12.106  0.1852  0.0994  0.3705
 9154W        W25288  10.757  14.226  13.026 -0.0391  0.2249 -0.1283
 9155W        W25289   9.546   2.510   1.313 -0.1874  0.0222 -0.2497
 9156W        W25290   7.754  19.068   3.946  0.1721  0.1454 -0.2316
 9157W        W25291   5.902  17.719   0.285  0.2602 -0.2191 -0.2490
 9158W        W25292   3.019  17.077   4.264 -0.0643 -0.3870 -0.0039
 9159W        W25293   1.577   5.359   5.411 -0.0624 -0.1166 -0.0720
 9160W        W25294   7.567   6.138   3.589  0.0608  0.5607 -0.0717
 9161W        W25295   0.479  13.894  11.944  0.0881  0.1508  0.1215
 9162W        W25296   6.892  11.735   0.914  0.0873 -0.3113 -0.1971
 9163W        W25297  17.906  10.453  10.082  0.1072 -0.2699 -0.4549
 9164W        W25298  11.294   8.701  11.302 -0.3371  0.1056 -0.1225
 9165W        W25299  16.862   1.755  14.541  0.0091  0.0076  0.2656
 9166W        W25300  10.293  10.395  14.592  0.0875  0.2060  0.1786
 9167W        W25301  16.306  14.630   3.653 -0.1783  0.3436 -0.1298
 9168W        W25302   7.539  16.953  13.789  0.0867 -0.4068  0.0674
 9169W        W25303   4.406  15.132  14.282 -0.3035  0.2189  0.2661
 9170W        W25304  16.272   5.403   4.422  0.0307  0.0471 -0.0735
 9171W        W25305   1.661  14.294  13.759  0.2624  0.0090 -0.0086
 9172W        W25306  10.251   7.329  12.360 -0.0593  0.1120  0.2178
 9173W        W25307   8.849   9.901  10.352  0.0503  0.2448 -0.6077
 9174W        W25308   5.831  12.213  11.263 -0.0826  0.2438 -0.0488
 9175W        W25309   4.335   9.220  14.284  0.0999  0.1550  0.0497
 9176W        W25310   0.574   1.355   1.511  0.0804  0.1232 -0.1412
 9177W        W25311   5.248   1.996   1.788 -0.0340  0.0913  0.0537
 9178W        W25312   7.046  14.881   2.613 -0.0031 -0.1181 -0.0042
 9179W        W25313  11.707   7.070  11.284  0.0169 -0.1367 -0.1884
 9180W        W25314   4.976   8.230   0.173  0.0569 -0.3408 -0.3547
 9181W        W25315   9.271   8.638  10.332 -0.0367 -0.1766 -0.0521
 9182W        W25316  12.089   5.790  10.554  0.0078 -0.1016  0.4275
 9183W        W25317   0.788   0.898  13.488  0.0758 -0.0123 -0.1366
 9184W        W25318  13.962   0.465   2.609 -0.3466 -0.3331  0.2844
 9185W        W25319  18.123   0.542   0.170 -0.0890  0.0511  0.2380
 9186W        W25320   8.843  12.437  11.945 -0.1585 -0.0792  0.0586
 9187W        W25321  13.127  11.538   2.145 -0.3015  0.1201 -0.1537
 9188W        W25322   0.279   4.480  12.722  0.2312 -0.2756 -0.1096
 9189W        W25323  13.955   7.948   3.617  0.1900  0.6316  0.0159
 9190W        W25324  11.039   4.179   3.985  0.0837 -0.0934 -0.1399
 9191W        W25325   5.392   4.285   2.714 -0.0098 -0.0642  0.2152
 9192W        W25326   3.481   7.357   3.765 -0.0604 -0.2942 -0.0370
 9193W        W25327  15.146  11.631  13.704 -0.1562 -0.3343  0.2823
 9194W        W25328   0.035   6.908  10.568  0.1906  0.0392 -0.1100
 9195W        W25329   5.494  10.027  11.846 -0.2421 -0.3094 -0.3781
 9196W        W25330   6.519  16.020   4.603  0.0050 -0.0357  0.4324
 9197W        W25331  15.219  17.907  13.160  0.1692  0.1268 -0.0162
 9198W        W25332   1.120   7.911  11.717 -0.0667 -0.3515 -0.1506
 9199W        W25333   8.065  15.537   1.656  0.1770  0.3195  0.0533
 9200W        W25334  15.673  11.741   5.633 -0.1168 -0.2027 -0.2341
 9201W        W25335  17.012  11.892  14.248  0.2531  0.0562  0.1115
 9202W        W25336   2.434  13.511   4.318  0.0713 -0.2988 -0.2617
 9203W        W25337  16.738   8.814  14.377  0.0858  0.0678 -0.1888
 9204W        W25338  18.836  12.815   0.461  0.0639  0.3061 -0.0784
 9205W        W25339   2.816  16.948  11.517 -0.0941 -0.2650 -0.2299
 9206W        W25340  18.001   1.446   4.927 -0.2237 -0.3392 -0.3421
 9207W        W25341  18.393  16.452  13.776 -0.1190  0.0795  0.0640
 9208W        W25342  15.341  14.149   1.715  0.2933  0.0988  0.1262
 9209W        W25343  10.596  16.495  13.379  0.0119  0.1549  0.1897
 9210W        W25344  10.748  15.367   5.458  0.0397  0.0885  0.2958
 9211W        W25345   4.217   0.653  12.606 -0.3957  0.2810 -0.0811
 9212W        W25346   0.966  15.258   4.672  0.1732 -0.4381 -0.1813
 9213W        W25347   7.530   6.339  11.149 -0.0990  0.0743  0.0018
 9214W        W25348  10.728   3.140   1.917 -0.0423 -0.1542 -0.0211
 9215W        W25349   1.757   3.509  12.270 -0.0238 -0.0664  0.3177
 9216W        W25350   4.620  12.831  11.269  0.0184 -0.2138  0.1470
 9217W        W25351  16.059  14.232  11.176  0.2292 -0.0437  0.2732
 9218W        W25352  17.081  17.875  12.908  0.3870 -0.0863 -0.0767
 9219W        W25353  12.042   7.488   2.323 -0.0273  0.2258 -0.0742
 9220W        W25354   2.408  12.761   4.936 -0.0604 -0.0102  0.0168
 9221W        W25355  17.982  13.083  13.951  0.0331 -0.0948 -0.0391
 9222W        W25356   3.279   3.458   2.457 -0.3807 -0.3000  0.4756
 9223W        W25357  14.630  17.125  13.202 -0.2036  0.1643 -0.0188
 9224W        W25358  14.295   4.451  14.695  0.1759 -0.1113 -0.4174
 9225W        W25359  12.393   2.655  14.455  0.0883  0.0170 -0.1892
 9226W        W25360   4.313   8.436   5.525 -0.2349 -0.1345 -0.0064
 9227W        W25361  17.484   2.473   1.417  0.0281 -0.0992 -0.0525
 9228W        W25362  17.193   1.057  13.019  0.1549  0.2550  0.0399
 9229W        W25363   5.701   1.262   1.883  0.1004  0.3029 -0.2753
 9230W        W25364  14.737  16.958  10.079 -0.2506  0.1003  0.1903
 9231W        W25365  10.904  13.222  14.245  0.0538 -0.0059  0.0449
 9232W        W25366   4.159   2.351  14.795 -0.0480 -0.0317 -0.1136
 9233W        W25367  10.172  12.994   1.933  0.0625 -0.0853  0.1417
 9234W        W25368  10.283   5.221  13.438 -0.1936 -0.2083  0.4544
 9235W        W25369  15.870  18.456  14.112 -0.0291  0.0891  0.1946
 9236W        W25370  12.303  14.751  12.536 -0.0736 -0.0751 -0.0361
 9237W        W25371  18.089   2.330   4.172 -0.1040  0.1952  0.2259
 9238W        W25372  10.061   1.332   4.233 -0.2398 -0.0413  0.2333
 9239W        W25373   9.595  19.106  12.605 -0.1292 -0.0250  0.1126
 9240W        W25374   4.558   7.762  14.083 -0.2097 -0.0082  0.1212
 9241W        W25375  17.256   0.744   2.699 -0.2883  0.0927 -0.1018
 9242W        W25376   8.887  13.623   1.320 -0.5609  0.1118  0.1878
 9243W        W25377   9.112  11.253   3.973  0.1909 -0.1873 -0.3328
 9244W        W25378  17.883   0.979   0.578  0.1375 -0.1647  0.2109
 9245W        W25379   0.598  14.258   0.681 -0.1000 -0.0434 -0.1294
 9246W        W25380   5.693  11.875  13.738  0.1034  0.2205 -0.1647
 9247W        W25381  18.842   5.617  14.168  0.1815 -0.2809 -0.0022
 9248W        W25382  16.055  18.117   0.416 -0.2753 -0.2325  0.0564
 9249W        W25383   3.909  10.368  12.334 -0.1842  0.0235 -0.1055
 9250W        W25384   0.275   1.584   5.699 -0.0805 -0.2449  0.1812
 9251W        W25385  18.247   6.716   2.007  0.0663 -0.0597  0.1060
 9252W        W25386  10.556   8.162   3.022 -0.0247  0.2333  0.0490
 9253W        W25387  18.975   7.846   0.300  0.0127 -0.1458 -0.0103
 9254W        W25388  17.936   1.567   3.314  0.1515 -0.2354  0.1774
 9255W        W25389  13.185  15.418  11.360  0.1476  0.1918 -0.3130
 9256W        W25390   1.949  15.261  12.086 -0.0263 -0.2075  0.1835
 9257W        W25391   1.206  10.983   2.430 -0.1379 -0.0035  0.0926
 9258W        W25392   0.434   9.242  12.039  0.2748 -0.0855  0.1968
 9259W        W25393  13.181  12.958   2.470 -0.2025 -0.0396 -0.0640
 9260W        W25394   9.311  10.814  10.612  0.3259 -0.1872 -0.0610
 9261W        W25395  15.102  15.682   3.730  0.3702  0.0208  0.1111
 9262W        W25396   6.529  17.396   4.536  0.2666  0.1268 -0.0759
 9263W        W25397  10.177   2.401   0.173  0.0058  0.1419 -0.2758
 9264W        W25398   4.791   7.135  14.598  0.3258 -0.4004  0.1011
 9265W        W25399   5.647   1.365   1.374 -0.1394  0.1498 -0.1305
 9266W        W25400   6.186   9.461  11.977  0.2979  0.0333  0.1537
 9267W        W25401  13.380  14.310  14.172  0.2077 -0.0791 -0.0120
 9268W        W25402  18.752  15.731   1.640 -0.0170 -0.1508 -0.0791
 9269W        W25403  16.074   2.073   4.746  0.3762 -0.0430  0.0621
 9270W        W25404  10.908  14.181  11.192 -0.0095 -0.1095 -0.2904
 9271W        W25405   0.791   1.256   2.618  0.0464 -0.1555 -0.0654
 9272W        W25406  18.346   1.717  14.694 -0.1417  0.0381  0.0897
 9273W        W25407  18.913   1.212  14.784  0.2076 -0.1572 -0.0879
 9274W        W25408  13.924   9.016  12.814  0.0342  0.0245 -0.1736
 9275W        W25409  18.579  17.230  12.137 -0.0966  0.4135  0.3337
 9276W        W25410   3.946  13.739  12.756  0.0004 -0.1594  0.2218
 9277W        W25411   8.619   5.899   3.913 -0.0146  0.1306  0.0375
 9278W        W25412   1.961   0.135   1.076  0.3305 -0.0595  0.3207
 9279W        W25413   8.766  15.804  11.547 -0.0125 -0.3329  0.0592
 9280W        W25414  19.206  16.440   0.104 -0.0477  0.0640  0.1785
 9281W        W25415   8.042  12.484  14.607 -0.1012 -0.0380  0.0377
 9282W        W25416   5.540  17.571  14.674 -0.0141  0.1031  0.2664
 9283W        W25417  10.833   2.913  15.021 -0.1925  0.0613 -0.0654
 9284W        W25418   4.654  10.803  11.482  0.0397 -0.2138 -0.0548
 9285W        W25419  19.184  11.716   3.363  0.3998 -0.0744  0.1034
 9286W        W25420   2.065   1.306   2.952 -0.0441  0.0164  0.0698
 9287W        W25421  15.654  11.466  10.979  0.2916 -0.0743 -0.0251
 9288W        W25422  19.081  17.730   2.785  0.2774  0.2038  0.1137
 9289W        W25423  18.784   2.065   3.938 -0.2898  0.0563  0.2861
 9290W        W25424  13.268   2.629  13.540 -0.0801 -0.1713  0.1603
 9291W        W25425  14.056  14.396   0.782 -0.2025  0.0963 -0.0613
 9292W        W25426   0.226   3.606   3.592 -0.3325  0.1039 -0.0937
 9293W        W25427  17.663   8.520   4.246 -0.2776 -0.1549  0.2643
 9294W        W25428  18.635   3.099  12.989  0.1129  0.1044  0.0602
 9295W        W25429   0.701  13.253  14.991 -0.0650 -0.1015  0.1236
 9296W        W25430   7.215   4.777  11.180 -0.1788  0.1599 -0.1361
 9297W        W25431  13.846   3.056   2.287  0.2319 -0.1552 -0.0263
 9298W        W25432  10.609  16.444   2.379 -0.0030  0.0894  0.2752
 9299W        W25433   9.199  12.093  12.909  0.1915 -0.3398  0.2262
 9300W        W25434   3.257  13.390  13.965 -0.1573  0.1392 -0.1256
 9301W        W25435   1.775   0.871  10.733 -0.2357  0.0360 -0.0223
 9302W        W25436   0.390  19.102   0.745  0.1657  0.2104  0.3167
 9303W        W25437   5.499  17.226   3.572  0.2093 -0.3102 -0.1574
 9304W        W25438   9.953   6.790   0.328  0.0885 -0.1171 -0.3130
 9305W        W25439   4.541   2.177  14.407 -0.0188  0.1863  0.0067
 9306W        W25440  10.980  18.843   0.770 -0.4781 -0.0555 -0.2225
 9307W        W25441   5.784  13.574   0.139  0.3514 -0.1504  0.1370
 9308W        W25442   5.975   2.556  14.830 -0.0747  0.0377 -0.4771
 9309W        W25443   6.081   4.435  14.349 -0.1739 -0.0854  0.1117
 9310W        W25444  18.559  13.993   4.805  0.1307  0.1522  0.1780
 9311W        W25445   7.997   4.664   4.559 -0.1346  0.0194  0.0641
 9312W        W25446  10.527   0.260   3.383 -0.1644 -0.1162  0.2825
 9313W        W25447   5.690  10.847  10.649 -0.1514 -0.2132  0.0698
 9314W        W25448  14.768  12.046  11.592  0.3689 -0.0964  0.2729
 9315W        W25449   9.801   8.972  13.822  0.1862  0.2997 -0.1083
 9316W        W25450   1.646   5.250  13.194 -0.0129 -0.4666  0.0254
 9317W        W25451  12.610  17.599  13.990  0.0382  0.0851  0.0488
 9318W        W25452  10.275  18.458   1.448  0.1008 -0.0855  0.1600
 9319W        W25453   9.241   7.225   4.911  0.0192 -0.0747 -0.0741
 9320W        W25454  11.429   1.766  13.478  0.2739  0.0473 -0.4287
 9321W        W25455  17.299  14.892  13.056 -0.2734  0.1006 -0.3569
 9322W        W25456  11.237  12.768  12.463  0.1356  0.1157 -0.2164
 9323W        W25457   6.278   9.932   3.259 -0.1911 -0.1533  0.0381
 9324W        W25458  15.139   0.664  14.014 -0.0019 -0.1080 -0.2025
 9325W        W25459   2.254  17.461   4.372  0.2038 -0.0853 -0.0879
 9326W        W25460   6.837   6.814  14.064  0.1275  0.2501 -0.3386
 9327W        W25461   0.009   3.331   0.072  0.0312 -0.1529  0.0615
 9328W        W25462   8.465  10.159  14.916 -0.1252 -0.0486  0.3000
 9329W        W25463   9.399   2.598   4.149 -0.2329  0.2037 -0.4409
 9330W        W25464  11.093   6.568   3.867 -0.1689 -0.0282  0.3753
 9331W        W25465   6.297   9.785   9.528 -0.3287 -0.2501  0.1367
 9332W        W25466   6.333   0.710   0.460  0.3295 -0.0334  0.0448
 9333W        W25467   0.499  16.324  13.216  0.2097 -0.0110  0.0381
 9334W        W25468  16.978  11.173  13.682 -0.3027 -0.1591 -0.2923
 9335W        W25469  13.350  14.611   2.328 -0.2178 -0.0884 -0.3538
 9336W        W25470  14.572   7.010   1.117  0.1295  0.0016 -0.1000
 9337W        W25471  10.621  10.620   4.363  0.2119  0.0228  0.2736
 9338W        W25472   7.773  10.071   4.258 -0.1192 -0.0987  0.0019
 9339W        W25473  18.040  16.296  14.111 -0.0345 -0.2671 -0.0380
 9340W        W25474   1.655   3.254   0.882  0.2433  0.0304 -0.2546
 9341W        W25475  15.675  10.090   2.938  0.1209  0.1783  0.2623
 9342W        W25476   3.749   0.393   3.884  0.5214  0.2808  0.0644
 9343W        W25477  18.415  11.176  13.320 -0.2719  0.0399  0.3597
 9344W        W25478  13.947   7.442   3.910  0.0260  0.2377  0.1136
 9345W        W25479   0.400   0.531   1.976 -0.2867  0.1194  0.0113
 9346W        W25480  10.524   8.688   2.937 -0.0080  0.1712 -0.1238
 9347W        W25481  15.554   3.078  10.726  0.0593 -0.1272 -0.0501
 9348W        W25482  15.607  15.660  13.295 -0.1654  0.0812 -0.0965
 9349W        W25483   8.634   9.770  12.049 -0.1745  0.1451 -0.4189
 9350W        W25484  15.121  17.163   1.377  0.0920 -0.0145 -0.1472
 9351W        W25485  15.248  16.141   4.004  0.1896 -0.0679 -0.1977
 9352W        W25486  16.658   6.097  10.460 -0.3432  0.1971 -0.1053
 9353W        W25487  15.406   9.690   2.125 -0.2419 -0.1889 -0.2271
 9354W        W25488  13.020  16.773  11.570  0.0327  0.3908  0.2409
 9355W        W25489   9.902   0.600   4.263 -0.2083  0.1642 -0.1259
 9356W        W25490  16.806   3.693  12.768 -0.0632 -0.2882  0.1753
 9357W        W25491   9.432   6.291  13.651  0.0841 -0.1934 -0.0264
 9358W        W25492   4.062  10.533  14.664  0.1911  0.4455 -0.0925
 9359W        W25493   8.750   3.267  10.940  0.1705 -0.2187  0.1716
 9360W        W25494  18.675  18.466   0.446 -0.0690 -0.1945 -0.1009
 9361W        W25495  12.734   3.504   3.554  0.1024  0.2710  0.3394
 9362W        W25496   1.049   4.366   0.993 -0.3167  0.0337 -0.0310
 9363W        W25497  16.029  18.292   4.670 -0.0755 -0.1565  0.0852
 9364W        W25498   0.756  11.786  14.624 -0.1478 -0.0490 -0.1210
 9365W        W25499   5.435  12.266  11.576  0.0456 -0.1969  0.1712
 9366W        W25500   9.754   3.166  12.382 -0.1877 -0.4169  0.1942
 9367W        W25501   5.953   1.914  12.353  0.1175 -0.1109  0.1595
 9368W        W25502   2.784   6.705  13.659  0.2099  0.0627  0.2698
 9369W        W25503  18.594  12.120  12.919  0.0621  0.0548  0.0561
 9370W        W25504  11.377  12.267   4.407 -0.0786 -0.1341  0.0878
 9371W        W25505   8.270   6.666  12.363 -0.2439  0.2884 -0.1575
 9372W        W25506   3.564   3.569   3.624  0.0601  0.1745  0.0721
 9373W        W25507   1.774  11.598  13.603 -0.0982  0.0775 -0.0837
 9374W        W25508   6.617  15.932  12.778  0.0670  0.0713  0.0078
 9375W        W25509   7.290  10.121   4.059  0.2274  0.1072  0.0979
 9376W        W25510   9.715  13.117   0.148 -0.2734  0.0952  0.1656
 9377W        W25511  12.510  12.474   4.902  0.3355 -0.0463  0.0199
 9378W        W25512  12.413  18.777   1.324 -0.1283  0.3623 -0.2788
 9379W        W25513   4.887  18.914  11.581 -0.1881  0.0873 -0.0548
 9380W        W25514   5.219  12.545   2.903 -0.3089 -0.1135  0.0375
 9381W        W25515   0.175  16.411  12.770  0.1504  0.1107 -0.4262
 9382W        W25516   4.773  14.032   0.955 -0.1818  0.0853 -0.2459
 9383W        W25517  14.990   0.980   0.090  0.0026 -0.0894 -0.1189
 9384W        W25518   7.104  13.097  12.556  0.0998 -0.1504  0.3271
 9385W        W25519  16.236  11.052  12.626 -0.1629  0.2637  0.2227
 9386W        W25520   3.095   3.566   4.461  0.0527  0.0210  0.0145
 9387W        W25521   6.038  13.698  11.411 -0.2748  0.1635 -0.0100
 9388W        W25522   5.326  15.521   5.186 -0.3526  0.2580 -0.2500
 9389W        W25523   2.546   1.802  11.765 -0.0825  0.1424 -0.3790
 9390W        W25524   9.929   8.498  12.898 -0.5588  0.1798  0.3641
 9391W        W25525  11.450   1.635   4.112 -0.0060 -0.1160 -0.1519
 9392W        W25526   0.950   9.526  10.092  0.1023 -0.0490  0.2151
 9393W        W25527   3.074  17.112  14.009  0.4988 -0.1492 -0.2852
 9394W        W25528   7.531   8.260   4.213 -0.2103 -0.0477  0.1970
 9395W        W25529  18.646   5.821   6.180 -0.0201  0.0395  0.0740
 9396W        W25530   2.703   6.859   4.931 -0.0383 -0.0343 -0.0049
 9397W        W25531  10.313  12.743   2.802 -0.0062  0.0445  0.0900
 9398W        W25532   9.548  11.746   9.674  0.0107 -0.3322 -0.0072
 9399W        W25533   7.349  13.236  11.572  0.1298  0.0308 -0.1388
 9400W        W25534   7.469  15.673   0.313 -0.0708 -0.1390  0.3082
 9401W        W25535   3.182   8.238   3.830  0.0261  0.3141  0.0811
 9402W        W25536   0.933   8.066   1.938  0.0270 -0.3632 -0.0396
 9403W        W25537  18.384   3.436  14.905 -0.2664 -0.0993  0.0583
 9404W        W25538  11.612   5.665   3.070  0.0931 -0.0531  0.2737
 9405W        W25539   8.710   7.886  12.103 -0.2358 -0.0296 -0.0355
 9406W        W25540  10.996  12.979   2.822  0.0159 -0.2258 -0.3182
 9407W        W25541   2.039  15.868   2.351  0.1077 -0.0419 -0.2532
 9408W        W25542  13.307   0.500  12.540  0.1823  0.1260  0.0472
 9409W        W25543  19.210   8.917   4.373  0.0157  0.2997 -0.0653
 9410W        W25544   6.372  11.590   1.442 -0.0498 -0.1869  0.1602
 9411W        W25545  12.891   9.622   1.144 -0.0443  0.0950  0.0217
 9412W        W25546  11.224   9.430   0.895 -0.2965  0.1374  0.0681
 9413W        W25547   0.439  16.649   0.237 -0.3970 -0.2133  0.0411
 9414W        W25548  18.592   9.643  12.211  0.1122 -0.2221  0.1280
 9415W        W25549   5.832   1.309  11.511  0.0455 -0.2264 -0.0738
 9416W        W25550  19.211   3.149   3.546 -0.0452  0.2726 -0.2725
 9417W        W25551   8.121  19.167   3.327  0.0327  0.0618  0.0251
 9418W        W25552  10.182   6.790  12.106 -0.1057  0.0633 -0.2016
 9419W        W25553   4.447  15.842   3.499 -0.1418 -0.1838 -0.4086
 9420W        W25554  11.710  11.610  14.182  0.1469 -0.0274 -0.1268
 9421W        W25555   6.500  10.459   1.642 -0.1604  0.3891 -0.1792
 9422W        W25556   8.622   9.810   1.147 -0.1590  0.1745 -0.0212
 9423W        W25557  11.189  13.394   1.681  0.2124  0.0187 -0.1821
 9424W        W25558   0.844   5.938  13.856 -0.0738 -0.1928  0.2859
 9425W        W25559  18.059  12.321   2.643 -0.1994  0.1659 -0.0014
 9426W        W25560  15.181   8.762   3.579  0.0536 -0.0676  0.0208
 9427W        W25561   6.360   1.011   3.871  0.0111 -0.0598 -0.1230
 9428W        W25562   7.833  13.529  12.774  0.3106 -0.1844 -0.2424
 9429W        W25563   8.979   9.654   2.886 -0.2425 -0.0735  0.0846
 9430W        W25564   4.550   5.449  12.896 -0.0290 -0.2045 -0.0922
 9431W        W25565   9.276  13.361   5.191 -0.0291 -0.1226  0.0384
 9432W        W25566   2.894   0.935   5.323  0.0062  0.1800  0.1508
 9433W        W25567  12.768  14.569  11.611 -0.0507  0.5906  0.1557
 9434W        W25568   1.579   4.781   0.475 -0.1386  0.1963 -0.0635
 9435W        W25569   5.503   4.577  10.587  0.3692 -0.0598  0.1987
 9436W        W25570  18.128  15.455  11.249 -0.1314  0.2645  0.0978
 9437W        W25571  16.685   6.233   2.291 -0.0742 -0.2255  0.2436
 9438W        W25572   5.921   8.567  11.882 -0.0434 -0.2654  0.0541
 9439W        W25573   7.470  18.837   4.819  0.0596  0.0405 -0.1503
 9440W        W25574  11.761   0.902   4.589 -0.2815 -0.5007 -0.0228
 9441W        W25575  12.139   9.299   1.263  0.1551  0.1517 -0.1589
 9442W        W25576   0.742  18.248   0.209  0.1016  0.1357 -0.3032
 9443W        W25577  10.917  14.757   3.763 -0.2715 -0.3337  0.4565
 9444W        W25578   3.967   8.477  10.654  0.1168  0.2464 -0.0505
 9445W        W25579   8.264   2.706  10.012 -0.0117  0.1858 -0.1299
 9446W        W25580  15.179   8.007   3.470 -0.0268  0.1687  0.2807
 9447W        W25581  12.158   9.759  14.168  0.1403 -0.0062 -0.2363
 9448W        W25582  13.785   6.999  14.184 -0.1008  0.0726  0.0124
 9449W        W25583  16.262   2.403  13.463 -0.2432 -0.0494 -0.1568
 9450W        W25584  10.852   0.383  10.680 -0.0424  0.0529 -0.1667
 9451W        W25585  11.138   2.964   2.745 -0.3490  0.0668 -0.0562
 9452W        W25586  19.136   3.690  11.434 -0.0840  0.2085  0.3536
 9453W        W25587  15.131   4.019  14.200 -0.0252 -0.2454  0.2702
 9454W        W25588   8.904  10.243   2.667  0.1888  0.0617  0.1389
 9455W        W25589  17.438  14.995   9.916 -0.1652 -0.1527 -0.0077
 9456W        W25590   7.091   6.985   2.174 -0.0657  0.0361  0.0012
 9457W        W25591  10.593  19.011   3.395 -0.0018 -0.1865 -0.1680
 9458W        W25592   1.458   0.942  12.206  0.1324  0.0979  0.2428
 9459W        W25593   4.268  15.053  12.396 -0.0098 -0.4674 -0.0371
 9460W        W25594   5.342  17.390   1.174 -0.2439 -0.0877 -0.1674
 9461W        W25595   1.347   2.792   1.709  0.0336  0.1749  0.0860
 9462W        W25596   1.003  17.946   5.266 -0.0329 -0.1986 -0.0340
 9463W        W25597  17.410   8.656   9.955  0.1859 -0.4270  0.0726
 9464W        W25598  14.844  11.371   1.803 -0.1416 -0.1199  0.0332
 9465W        W25599  12.751   8.974  14.070 -0.1041  0.2922 -0.0535
 9466W        W25600   2.256  14.241   1.172  0.3538 -0.2473 -0.3183
 9467W        W25601   8.460   4.246  14.243  0.1271  0.1221 -0.0493
 9468W        W25602   9.279   4.567   0.776  0.1004 -0.2176  0.2100
 9469W        W25603  13.467  18.510  14.362 -0.2495  0.1545 -0.2582
 9470W        W25604  16.934  15.969   0.746 -0.0591 -0.6299 -0.0485
 9471W        W25605  15.028   3.260   3.055  0.1199  0.0287  0.2500
 9472W        W25606   1.169   4.847   3.727  0.1619  0.1527 -0.0580
 9473W        W25607   7.679  17.932  10.150  0.2041 -0.1691 -0.0647
 9474W        W25608  16.813  13.807   2.620  0.0101  0.1953 -0.2863
 9475W        W25609   1.264  15.015  12.446 -0.0041  0.2755 -0.2623
 9476W        W25610  14.203  11.996  12.196  0.2606  0.0713 -0.1858
 9477W        W25611  14.910   8.002   2.993  0.1383  0.0732  0.2702
 9478W        W25612   0.981   9.692  14.213 -0.0233  0.6060 -0.2182
 9479W        W25613  13.238  13.664   0.780 -0.1985  0.0879  0.1163
 9480W        W25614  11.608  14.947  13.740  0.3072  0.2991  0.0620
 9481W        W25615  10.255  18.152   0.191  0.0121 -0.2158  0.1688
 9482W        W25616  19.141  18.737   3.711 -0.1192  0.2346  0.0247
 9483W        W25617  10.733   7.873   4.022  0.1931 -0.1857  0.1830
 9484W        W25618   3.771  12.567  12.006  0.1173 -0.0875 -0.1736
 9485W        W25619   6.240   2.356   3.929 -0.1041  0.1286  0.0708
 9486W        W25620   8.230   9.969   0.452 -0.1427  0.1209  0.2266
 9487W        W25621   1.539  16.785  13.772 -0.0882  0.3221  0.2115
 9488W        W25622   6.398  10.414   3.361  0.0296 -0.0323  0.0621
 9489W        W25623  18.776   0.742   4.067  0.0401  0.0248 -0.1053
 9490W        W25624   3.133  14.195   4.572  0.0771 -0.1501 -0.0288
 9491W        W25625   9.403  12.188   2.284  0.0896  0.1185 -0.2676
 9492W        W25626   2.859   4.820   4.432  0.0205 -0.1784 -0.1247
 9493W        W25627   3.035  16.744   5.342  0.1305  0.0846 -0.0783
 9494W        W25628   4.058  11.214  12.743  0.2381 -0.0717 -0.2821
 9495W        W25629   9.779   2.820  11.846 -0.1462  0.3907 -0.2258
 9496W        W25630   5.013   9.399   0.938  0.2620  0.3554 -0.2268
 9497W        W25631   4.791   2.879  13.676 -0.3062  0.2386  0.1751
 9498W        W25632  14.385  16.850   4.915 -0.0908  0.0043  0.1595
 9499W        W25633   6.936  10.625  13.526 -0.1246 -0.1000  0.0421
 9500W        W25634  15.297  11.952   0.668  0.1544 -0.0359 -0.1102
 9501W        W25635  18.285   5.024  12.451 -0.0508  0.2348  0.1251
 9502W        W25636  12.627   1.282   1.927  0.0452 -0.1336 -0.2238
 9503W        W25637  17.618   7.679   4.740  0.1090 -0.2936  0.0694
 9504W        W25638   5.093   3.844   2.780 -0.0858  0.4450  0.0738
 9505W        W25639  19.195  18.417   0.386  0.0849 -0.2527 -0.1080
 9506W        W25640  15.298  10.225   0.462 -0.4824  0.3250 -0.0774
 9507W        W25641  14.075   2.293  11.234  0.1145 -0.1217 -0.3305
 9508W        W25642   8.491  14.611   0.248  0.1370  0.1211 -0.0956
 9509W        W25643  15.214  11.007  12.894  0.1991  0.1542 -0.1692
 9510W        W25644  11.732   7.482  15.008 -0.0315 -0.1701  0.4312
 9511W        W25645  18.934  13.312  10.480 -0.0838 -0.2400  0.3447
 9512W        W25646   0.642   6.781  12.059 -0.2544 -0.3395  0.2904
 9513W        W25647  14.380   5.382   0.716  0.0400 -0.2279 -0.0681
 9514W        W25648   0.170   2.094   1.201 -0.0939  0.4481 -0.1073
 9515W        W25649  17.464  12.745   1.884 -0.0883  0.1720  0.1144
 9516W        W25650  17.136  13.280   1.078 -0.0492 -0.1900 -0.1201
 9517W        W25651  11.721   8.503  12.041  0.4607  0.0883  0.4235
 9518W        W25652   6.411   8.194  13.379  0.1028 -0.0484 -0.2530
 9519W        W25653   5.062   0.426   1.299 -0.0544  0.1751 -0.0738
 9520W        W25654  11.003  15.632  14.393  0.3811  0.1784 -0.0341
 9521W        W25655  14.046  19.022   3.850  0.1571 -0.1741  0.1326
 9522W        W25656   4.535   0.781  10.303 -0.2040  0.1184  0.2197
 9523W        W25657  17.942   7.379  11.245  0.3521 -0.0552 -0.0120
 9524W        W25658   8.939  17.105   1.493 -0.0244  0.1129  0.1165
 9525W        W25659  13.155  15.245   5.544  0.2643  0.0545 -0.2344
 9526W        W25660   2.025  17.951   0.070 -0.0410 -0.2382  0.1885
 9527W        W25661  10.492   2.952   3.417 -0.0564  0.2086  0.3233
 9528W        W25662   3.513   0.408   3.347  0.0326  0.0301  0.3041
 9529W        W25663   8.814   2.912   2.826 -0.0737  0.0327 -0.0745
 9530W        W25664  15.947   1.559  14.803 -0.2728  0.1046  0.2142
 9531W        W25665  13.541  18.110   4.975  0.2318 -0.2018 -0.1358
 9532W        W25666  18.768  11.930   0.223 -0.0738  0.1150 -0.0016
 9533W        W25667  12.465  15.502   4.112 -0.0536 -0.1014  0.1958
 9534W        W25668  15.949   2.972   1.034  0.1452  0.2358  0.1762
 9535W        W25669  11.949   5.947   0.242 -0.1836 -0.0690 -0.0696
 9536W        W25670  12.194  11.907   4.857 -0.2729  0.0120 -0.1268
 9537W        W25671   8.635  10.362   0.408 -0.1381 -0.1147 -0.0895
 9538W        W25672   9.440   2.764   5.142  0.4300  0.0863  0.0851
 9539W        W25673   1.229   0.304  12.291 -0.1772  0.1677 -0.1236
 9540W        W25674   0.642   6.421   0.260 -0.0990 -0.0036 -0.3637
 9541W        W25675  15.825   1.587  13.415  0.3213 -0.0812 -0.1127
 9542W        W25676  16.783  11.670  13.856  0.0717 -0.0385  0.0121
 9543W        W25677  10.431  18.623   2.409 -0.0333 -0.0824  0.0787
 9544W        W25678   6.075   3.942   4.900 -0.1983  0.0681  0.0466
 9545W        W25679   0.650  17.832   1.879  0.2191  0.0149 -0.0071
 9546W        W25680  18.771   4.471   0.699  0.1355 -0.2295  0.0207
 9547W        W25681  13.760  14.573   2.650 -0.2700  0.2583  0.0444
 9548W        W25682   4.731  11.812   4.700 -0.4154 -0.0665 -0.1376
 9549W        W25683   7.020  11.137   4.510 -0.1084  0.0395  0.0031
 9550W        W25684  13.604   9.759  11.762  0.0433  0.1750  0.0766
 9551W        W25685  11.393   3.010   0.193 -0.2543  0.0528 -0.0644
 9552W        W25686   9.153   3.391  10.685  0.0145 -0.1328  0.2172
 9553W        W25687   0.128  16.543  14.216  0.1970 -0.1937  0.1347
 9554W        W25688   2.476   6.940   4.414  0.2261 -0.0363  0.0587
 9555W        W25689   7.375  16.345   5.185  0.1325  0.1664  0.3649
 9556W        W25690  10.766   4.504   2.281  0.1768 -0.3241 -0.3268
 9557W        W25691   1.992  16.868   4.997 -0.3801  0.0694  0.0920
 9558W        W25692   1.498   0.421  10.783  0.0109 -0.1348 -0.1634
 9559W        W25693  16.562   9.933   0.825 -0.0404 -0.0896 -0.2436
 9560W        W25694   2.588   3.437  14.974  0.3928  0.1216  0.0796
 9561W        W25695   3.792  13.235  13.785  0.3540  0.0955  0.3825
 9562W        W25696   9.324   6.748   1.487 -0.0307 -0.0319  0.0641
 9563W        W25697   3.770  12.771  11.026 -0.1238 -0.2718 -0.1485
 9564W        W25698   3.718   4.862  14.083 -0.0462  0.0336 -0.1693
 9565W        W25699  16.010   6.130  14.808 -0.1536  0.0945 -0.0133
 9566W        W25700  18.458  10.191   3.903  0.3008  0.1345 -0.0616
 9567W        W25701  16.601   4.084   1.777  0.0196  0.0368 -0.4931
 9568W        W25702  14.482   0.786  10.764  0.1246  0.3349 -0.1603
 9569W        W25703  12.178   5.003  13.754  0.0931  0.0919 -0.3753
 9570W        W25704   8.232   3.051  11.805  0.1734 -0.1485  0.0780
 9571W        W25705  11.953  17.645   0.879 -0.0080 -0.1136  0.0450
 9572W        W25706   7.138   2.401   0.201  0.3864 -0.0085 -0.0278
 9573W        W25707  14.713   4.522   3.267  0.2030  0.1913 -0.2888
 9574W        W25708   5.432  11.695  13.348  0.0868 -0.3679 -0.2432
 9575W        W25709   5.535  14.464  11.936  0.0142 -0.2357  0.1165
 9576W        W25710   6.030   4.659   1.049  0.2351 -0.2599  0.1003
 9577W        W25711  17.946  14.239  14.555 -0.0535  0.1087 -0.3237
 9578W        W25712  12.956  16.092  12.123 -0.0213 -0.0544  0.2075
 9579W        W25713  14.843  14.257   4.967  0.1645  0.1607  0.1171
 9580W        W25714   1.197   4.577  12.082  0.2466  0.0081  0.2072
 9581W        W25715  17.577  16.948   0.632 -0.0337 -0.2477  0.0559
 9582W        W25716  12.547  18.018   1.915  0.0582 -0.0925  0.1646
 9583W        W25717  16.757  11.344   1.521 -0.1140 -0.3679  0.0275
 9584W        W25718   1.450   0.400  11.699 -0.4048 -0.1424  0.2288
 9585W        W25719  15.927  10.778  10.942  0.0607 -0.2271  0.2841
 9586W        W25720   9.107   5.767   0.510 -0.2515  0.3614  0.2492
 9587W        W25721   0.483   3.576  11.970  0.0996  0.1481  0.0194
 9588W        W25722  12.789   1.185  13.155  0.2615  0.0700 -0.1113
 9589W        W25723  10.046  10.529  13.597  0.1024 -0.2299 -0.0346
 9590W        W25724  17.087   7.654   3.476 -0.1155 -0.0599 -0.3634
 9591W        W25725  14.929  10.258  10.978  0.1860  0.1509  0.0938
 9592W        W25726   6.567   3.203   3.770 -0.0476 -0.0870 -0.0322
 9593W        W25727   2.340  18.372  12.776 -0.1076 -0.1964 -0.0960
 9594W        W25728  18.249   4.048   4.567 -0.3039  0.1167 -0.2453
 9595W        W25729  11.485   3.505  14.048  0.0564  0.1173  0.2336
 9596W        W25730  17.210  16.293  13.853 -0.0122 -0.1813  0.2706
 9597W        W25731   9.414   9.714   0.538  0.0896  0.1438  0.0811
 9598W        W25732   2.810   1.411  14.414  0.0560 -0.2491 -0.0901
 9599W        W25733   3.303   4.986   3.580  0.2231  0.1073 -0.1606
 9600W        W25734  11.653   7.008   1.967 -0.3786  0.0208 -0.2719
 9601W        W25735  18.110   6.962  12.123  0.0106  0.0897  0.2059
 9602W        W25736   0.576   4.373  13.534  0.2595 -0.0043 -0.0112
 9603W        W25737  10.044   7.595  14.371  0.3770  0.2854  0.0556
 9604W        W25738  12.549   6.314   2.120 -0.1550 -0.2946  0.2732
 9605W        W25739   3.410   2.624   9.938  0.0861  0.1756  0.3787
 9606W        W25740  15.978  15.033   3.951  0.1804 -0.2450  0.3260
 9607W        W25741  12.836   2.875  10.894 -0.2476  0.0183 -0.0986
 9608W        W25742   7.936  16.898  14.235 -0.0174 -0.1982 -0.0522
 9609W        W25743   4.140  13.606  14.663 -0.1272 -0.0626 -0.3225
 9610W        W25744   2.865  10.247   4.903 -0.3012 -0.2356 -0.0019
 9611W        W25745  15.001  18.471  13.251 -0.0984  0.0672 -0.0081
 9612W        W25746   4.332  15.581   4.354  0.0165  0.0063 -0.2063
 9613W        W25747  11.728  14.893   0.606  0.1311 -0.1108  0.1373
 9614W        W25748   1.116  18.262  14.793 -0.2245  0.0667  0.2211
 9615W        W25749   2.910   5.999  10.742 -0.4985 -0.1176  0.3053
 9616W        W25750  17.352   4.473  11.406  0.3051 -0.1584  0.1549
 9617W        W25751   6.571  14.219   0.635  0.0361  0.0719 -0.0511
 9618W        W25752   6.321   2.914   4.469 -0.2033  0.0291  0.0862
 9619W        W25753   8.465  12.966  13.381 -0.4227  0.2132  0.1637
 9620W        W25754  17.571  14.340  13.961 -0.1834 -0.0120  0.0492
 9621W        W25755   7.456   0.592   1.924  0.2241 -0.4020 -0.1257
 9622W        W25756  16.365  13.953  12.219  0.0018  0.1586 -0.0876
 9623W        W25757   6.274   1.985  11.208  0.0431 -0.3790 -0.0316
 9624W        W25758  15.478  10.675  12.603 -0.0183 -0.2154  0.0493
 9625W        W25759  17.968   9.702  12.137  0.0850 -0.3383 -0.1698
 9626W        W25760  16.037   9.398   3.464  0.2038  0.1514  0.2926
 9627W        W25761  16.962   4.111   0.600  0.3020  0.0985 -0.3423
 9628W        W25762   2.458   2.930  13.293  0.0126 -0.6217  0.0848
 9629W        W25763  16.946   7.175   2.769 -0.2124  0.3102  0.0277
 9630W        W25764  14.058   3.853   1.783  0.3212  0.0680 -0.1432
 9631W        W25765   4.393   9.944  11.153 -0.1727 -0.0094 -0.1417
 9632W        W25766  15.723   0.383  12.104  0.0696  0.0167 -0.1170
 9633W        W25767  12.840  14.577   0.378  0.1261  0.0485 -0.1646
 9634W        W25768   6.835  18.432   2.043  0.3302  0.0511  0.1480
 9635W        W25769   2.622   0.478   0.217  0.2243  0.0092 -0.1641
 9636W        W25770   8.050   8.527  12.923  0.2536 -0.2267  0.2351
 9637W        W25771   5.875  17.433   1.859 -0.0243 -0.2241  0.2489
 9638W        W25772  17.714  17.456  13.805 -0.0754 -0.0857 -0.1678
 9639W        W25773   8.541  14.887   4.359 -0.0612 -0.2231 -0.2831
 9640W        W25774   0.414  14.206   4.332  0.1731  0.2179 -0.1990
 9641W        W25775  13.783   9.673   2.830  0.2254  0.0748 -0.0483
 9642W        W25776  12.171  11.705   3.319  0.0001 -0.0014  0.0662
 9643W        W25777  12.716  16.714   1.696 -0.2256  0.3642 -0.0116
 9644W        W25778  10.476  12.894  13.583  0.1043 -0.1230  0.1724
 9645W        W25779   0.949   7.164   2.335  0.1874 -0.0172  0.0510
 9646W        W25780   0.424  14.348   3.781  0.1483  0.2220 -0.0297
 9647W        W25781   9.932  18.330   3.758  0.3161 -0.0543  0.0015
 9648W        W25782   4.477  15.174   4.603  0.3805  0.0965 -0.0663
 9649W        W25783   6.401  10.047  12.909  0.2272  0.0386  0.2238
 9650W        W25784   5.566   0.797   4.495 -0.0830 -0.1006 -0.0860
 9651W        W25785   9.330   6.830  13.646  0.1117  0.1474 -0.1966
 9652W        W25786  11.452   8.281  14.605 -0.1180 -0.0849  0.0329
 9653W        W25787  16.836   6.652  11.867  0.0486 -0.2988 -0.2708
 9654W        W25788  13.433  10.201  13.868 -0.3240 -0.0264  0.1059
 9655W        W25789  11.204  14.392   2.104 -0.1717  0.1366 -0.2440
 9656W        W25790  15.542   8.459   9.950  0.1877 -0.0360 -0.0761
 9657W        W25791   7.602  19.043  14.858  0.1932 -0.2692 -0.4131
 9658W        W25792  14.299  18.180   1.589 -0.2044 -0.2620 -0.1184
 9659W        W25793  17.585  17.215  12.770  0.3262 -0.0565 -0.1509
 9660W        W25794   0.646   5.781   3.282 -0.3495 -0.0570 -0.3260
 9661W        W25795  12.991  12.152   1.695 -0.0880  0.0300 -0.0695
 9662W        W25796  10.259  12.289   0.548  0.5226  0.0919  0.0568
 9663W        W25797  10.796   9.876   2.259  0.1862  0.0720  0.3209
 9664W        W25798  14.991  13.932  10.981  0.0907 -0.0412  0.1743
 9665W        W25799   5.259   8.715  10.136 -0.4625 -0.0080 -0.1630
 9666W        W25800   9.664  18.863   0.834  0.2865 -0.0988 -0.1109
 9667W        W25801   0.038  18.341   4.484 -0.0504  0.0600 -0.2465
 9668W        W25802  14.791   7.605   3.290  0.1265 -0.1267 -0.0835
 9669W        W25803   8.740   3.724   1.657  0.1669 -0.1671 -0.0456
 9670W        W25804  13.662   7.906  14.587  0.2959  0.2215  0.1358
 9671W        W25805  13.257  12.368  11.184 -0.1142 -0.1666  0.1272
 9672W        W25806  10.509   9.427  14.510 -0.4257  0.1170 -0.4378
 9673W        W25807   3.818  10.515   3.610  0.1669  0.3820  0.0840
 9674W        W25808  15.377   1.501  11.355  0.1201  0.3768  0.2297
 9675W        W25809  18.844  12.470  13.367  0.1695  0.0586  0.0577
 9676W        W25810  11.299  11.100   1.793  0.1064  0.2793  0.1671
 9677W        W25811   7.402  16.932  14.320  0.0465  0.1398 -0.0635
 9678W        W25812   7.587  17.482   4.438 -0.2107 -0.0305 -0.4235
 9679W        W25813   7.348   2.182   1.547  0.2960  0.0877 -0.0623
 9680W        W25814  11.857   8.291   9.409 -0.0788 -0.0378  0.3079
 9681W        W25815   0.854  17.174   3.679 -0.3154  0.2096 -0.0840
 9682W        W25816  16.353  18.019  13.278  0.2144 -0.0262  0.3436
 9683W        W25817   4.681   2.277   5.257  0.1387  0.2217  0.6764
 9684W        W25818  17.020  15.428   2.935  0.1536  0.0383  0.0047
 9685W        W25819   6.559   4.142  11.660 -0.0901 -0.2116  0.0024
 9686W        W25820  14.762   7.700   0.268 -0.0155  0.0374  0.1331
 9687W        W25821   4.999   8.955   2.054 -0.1262 -0.1296  0.0306
 9688W        W25822   7.618   8.440   1.602  0.1559 -0.1965  0.0594
 9689W        W25823  14.655  10.341  14.827  0.0075  0.3816  0.2177
 9690W        W25824   9.427   7.159  13.244  0.2555  0.0937 -0.1585
 9691W        W25825  11.681   5.962  12.855 -0.0745 -0.1704 -0.2262
 9692W        W25826   4.192   8.629   5.985 -0.0828 -0.0103  0.0584
 9693W        W25827   6.486  18.390  11.857 -0.1009 -0.1012 -0.0544
 9694W        W25828   1.995   6.095  13.298  0.2318  0.3353  0.1155
 9695W        W25829   8.799   3.396   1.159 -0.2145 -0.0623  0.2226
 9696W        W25830  18.886   5.036   5.267 -0.1817 -0.1091  0.0435
 9697W        W25831  12.438  14.524   9.841  0.1087  0.0861  0.0140
 9698W        W25832  12.626   1.890  13.659 -0.0428 -0.3081 -0.1095
 9699W        W25833   1.351  17.105  10.327 -0.1006  0.4276  0.0978
 9700W        W25834  11.032   4.204   9.496 -0.0032 -0.2103 -0.0020
 9701W        W25835  15.026   5.588  11.133  0.0477  0.2181  0.1883
 9702W        W25836   4.270  14.132   3.285  0.3376  0.1524 -0.2979
 9703W        W25837   6.153  14.395   2.666  0.0582  0.2530  0.1066
 9704W        W25838   1.360   5.066   4.481 -0.0157  0.1176 -0.0709
 9705W        W25839   7.536  12.602   1.425  0.2810 -0.1574  0.1013
 9706W        W25840  17.352   3.324   3.335 -0.3137  0.4451  0.1425
 9707W        W25841  18.938   2.369   0.627  0.3971  0.0918  0.0876
 9708W        W25842  14.847   3.115   4.418 -0.1827 -0.0885  0.1352
 9709W        W25843   2.099   0.078  12.283 -0.0883  0.2755  0.0562
 9710W        W25844   7.010   8.855  13.959 -0.0090 -0.1190  0.4596
 9711W        W25845   3.181  13.643  11.106 -0.0891  0.3507 -0.1241
 9712W        W25846   6.717  17.883   1.325  0.1155 -0.2076 -0.1728
 9713W        W25847  17.007  17.617   1.421 -0.1942  0.0362  0.0879
 9714W        W25848  13.916  15.894   4.879  0.0221 -0.0199 -0.0533
 9715W        W25849  10.462   7.791   0.434  0.0797 -0.1316 -0.0907
 9716W        W25850  15.505  13.436   4.480  0.0862 -0.0527 -0.0753
 9717W        W25851   6.134   5.465  11.305  0.1506  0.0378  0.0391
 9718W        W25852  10.908  16.454   9.426  0.0676 -0.1927 -0.2784
 9719W        W25853  10.269  16.896  13.190  0.1333 -0.1552  0.0164
 9720W        W25854  12.439   3.512   2.141  0.2071 -0.1013 -0.0148
 9721W        W25855   3.903  16.209  14.783 -0.3198 -0.0418  0.4667
 9722W        W25856   1.157  10.561  10.509 -0.0961 -0.0641  0.0770
 9723W        W25857   6.777   1.312   2.580 -0.0620 -0.1763 -0.2399
 9724W        W25858  10.088  12.930   4.754  0.1061 -0.0185 -0.0585
 9725W        W25859  11.406  18.023   4.068  0.0248 -0.2536 -0.1543
 9726W        W25860  13.287  13.242   2.863 -0.1324  0.0544 -0.0536
 9727W        W25861  16.058  14.361  14.264  0.0034  0.1429  0.0940
 9728W        W25862   8.772  14.122   1.907  0.1993  0.1655 -0.0987
 9729W        W25863   6.322  14.649   4.243  0.1815  0.2221 -0.0807
 9730W        W25864  14.922   1.460   4.764  0.3485  0.1174 -0.1431
 9731W        W25865   9.620  15.319  13.083  0.0263  0.1125  0.0093
 9732W        W25866   6.482  17.759  11.678  0.1494 -0.2799 -0.0368
 9733W        W25867  13.053   0.204   3.551 -0.1682  0.0826  0.0987
 9734W        W25868   0.605  11.376   9.987  0.0552  0.3586 -0.0557
 9735W        W25869  10.374   8.664   3.834  0.0062  0.1466  0.1723
 9736W        W25870   5.955   7.841   5.267  0.1302 -0.2492  0.1609
 9737W        W25871  11.770  14.883   5.921 -0.1026  0.0542 -0.0114
 9738W        W25872  10.517   4.935   1.066 -0.4227 -0.1444 -0.0596
 9739W        W25873   9.957  18.202  13.423 -0.0304  0.2776 -0.0283
 9740W        W25874   7.626   6.215  13.387  0.0880  0.0553 -0.1272
 9741W        W25875   2.136   7.291  10.872 -0.1075 -0.0784 -0.1010
 9742W        W25876   7.747   7.039  14.794  0.2229  0.0074  0.1241
 9743W        W25877   5.200  18.188  11.024  0.2149  0.0836  0.0500
 9744W        W25878   4.705   7.771  10.687  0.2598  0.0207 -0.3361
 9745W        W25879   5.164  15.935   0.291 -0.0241 -0.1633  0.1115
 9746W        W25880  13.143   9.047   3.805 -0.1468 -0.1457  0.2505
 9747W        W25881  14.958   0.758  10.762  0.0899 -0.0113 -0.0954
 9748W        W25882  18.588   9.630   4.616 -0.0067 -0.4018 -0.0634
 9749W        W25883   7.077  13.967  12.260 -0.0964 -0.2018 -0.0231
 9750W        W25884  13.599  18.862  13.089  0.0741  0.3425 -0.0225
 9751W        W25885   6.592   6.196   5.129 -0.0761  0.0575 -0.0507
 9752W        W25886   9.342   2.744  13.694  0.1445  0.1058  0.1090
 9753W        W25887   2.750  14.094  13.286 -0.2627  0.1361  0.2199
 9754W        W25888   5.184   4.297  14.627  0.0394 -0.0871 -0.2429
 9755W        W25889   0.098   2.405  12.888 -0.0728  0.2171 -0.0414
 9756W        W25890  16.575   4.779  11.094 -0.1247  0.2608 -0.0594
 9757W        W25891  11.937  14.926  14.156  0.3513 -0.4171  0.0762
 9758W        W25892  14.504   6.527   3.549  0.2231  0.0906 -0.2535
 9759W        W25893   7.061  13.203  13.570 -0.1137  0.1680 -0.4180
 9760W        W25894   6.161   1.529   5.542  0.1958  0.0484  0.0031
 9761W        W25895   1.980   9.595   3.186 -0.0910  0.2474 -0.1133
 9762W        W25896  14.799  17.896   3.597  0.1980  0.3132 -0.3509
 9763W        W25897  16.265  17.196   4.980 -0.0137  0.0675 -0.1133
 9764W        W25898  15.033  17.208   2.498 -0.0571  0.0610 -0.0556
 9765W        W25899  13.178  13.520  13.592 -0.0934 -0.0265 -0.2706
 9766W        W25900   0.991  10.978   3.021 -0.1792  0.1180  0.1971
 9767W        W25901  18.769  15.459   4.904  0.1519 -0.2105  0.3130
 9768W        W25902  15.187   3.465  12.382  0.0148 -0.1496  0.1231
 9769W        W25903   2.773   9.918  10.762 -0.0787 -0.2694 -0.0005
 9770W        W25904  14.352  12.227   2.183  0.0002 -0.0269  0.0353
 9771W        W25905   3.716  17.718   2.920  0.2570  0.1091  0.0712
 9772W        W25906  18.719  11.592  14.846  0.1819  0.1803  0.1918
 9773W        W25907   6.480   9.233  12.630  0.3631 -0.3378 -0.0265
 9774W        W25908  17.186   4.733  13.853 -0.0689 -0.0500  0.2002
 9775W        W25909   8.766  15.333   5.272  0.0843  0.4001 -0.0377
 9776W        W25910   5.359  13.699  13.931 -0.2979  0.0034 -0.1355
 9777W        W25911   9.058  13.753   4.518  0.0035 -0.0550 -0.1716
 9778W        W25912  14.294   2.679  11.760 -0.3008  0.2100  0.0370
 9779W        W25913  12.343  14.499   3.418  0.1170  0.2372  0.2737
 9780W        W25914   5.213   7.216  10.755 -0.0542 -0.1174 -0.2364
 9781W        W25915   4.751   4.544  12.017  0.2537  0.3382 -0.3072
 9782W        W25916   6.072  19.138  14.525  0.1962  0.3256  0.0771
 9783W        W25917  10.077  13.694  14.575 -0.1558 -0.0737 -0.0430
 9784W        W25918  19.106  11.249  12.021 -0.0863  0.3202 -0.0018
 9785W        W25919  14.408   7.817   3.008  0.0046  0.2849 -0.0115
 9786W        W25920   8.562  11.645  14.125 -0.0611 -0.0078  0.1169
 9787W        W25921   5.017  14.371   2.709 -0.1077  0.1640 -0.2268
 9788W        W25922  10.596  10.207   4.147 -0.1552  0.2783  0.1214
 9789W        W25923   3.095  16.667  13.580 -0.0198 -0.0518 -0.0419
 9790W        W25924  15.949   6.789  12.059  0.1109  0.0182  0.2961
 9791W        W25925   0.822  10.706   3.608 -0.1648  0.0234 -0.0068
 9792W        W25926   0.245  10.568   0.140 -0.1274 -0.0803  0.0957
 9793W        W25927  13.749  14.403   0.300 -0.2283  0.1231 -0.0978
 9794W        W25928  13.329   2.071   0.709  0.0137  0.1108  0.0724
 9795W        W25929   6.070  17.052   2.785  0.1794 -0.1443 -0.1207
 9796W        W25930  18.117   2.714   5.143  0.0812 -0.1202  0.3244
 9797W        W25931   6.373   3.459   2.392 -0.1790 -0.2520  0.0930
 9798W        W25932  12.453   3.701  14.601 -0.1691 -0.3224  0.1273
 9799W        W25933   0.976   0.173   4.197 -0.2029 -0.0661 -0.0751
 9800W        W25934  19.139   7.084   2.092 -0.0981  0.4078  0.0963
 9801W        W25935   9.371  16.765   4.289  0.3922 -0.0084 -0.0919
 9802W        W25936   9.915  14.290   4.653 -0.2296 -0.1331  0.0760
 9803W        W25937  18.328  11.694  13.161 -0.0953  0.1070 -0.0402
 9804W        W25938   6.405   8.535  11.556  0.1188 -0.1776 -0.0727
 9805W        W25939  14.823  17.463  12.220  0.1602 -0.0891 -0.0247
 9806W        W25940   3.860  14.795   5.059  0.1025 -0.2183  0.1618
 9807W        W25941   4.891  15.260   4.973  0.0741  0.2421 -0.1973
 9808W        W25942  17.936  10.867  12.801  0.3855  0.1086  0.0925
 9809W        W25943  11.749  15.429   5.331  0.0090  0.3510 -0.0712
 9810W        W25944  16.014  18.993  12.456 -0.0493  0.1507 -0.0267
 9811W        W25945  17.658  11.163  14.513 -0.0238  0.1626 -0.0142
 9812W        W25946  14.810   1.847  14.515 -0.1142  0.0645 -0.0993
 9813W        W25947  10.291   6.405  14.637  0.1038 -0.2299 -0.0994
 9814W        W25948  18.309  13.374  14.737 -0.0008 -0.2013  0.1945
 9815W        W25949  13.251  11.125   5.050  0.1036 -0.0277 -0.1786
 9816W        W25950  11.882   6.087  11.009  0.1520 -0.1515 -0.1898
 9817W        W25951   8.475  13.155   4.822  0.2827  0.1666  0.1506
 9818W        W25952  13.220   6.618   4.365  0.0461  0.5271  0.0550
 9819W        W25953   8.221   2.433   4.518 -0.1612  0.3142  0.1175
 9820W        W25954  10.002  17.757  12.538 -0.1577 -0.2339 -0.0165
 9821W        W25955  14.580  12.228   4.622 -0.0265 -0.1258 -0.1239
 9822W        W25956   3.002   0.138  13.851 -0.2870 -0.2460  0.0177
 9823W        W25957  15.040   9.919   1.747 -0.1225 -0.3654  0.0723
 9824W        W25958   8.091  13.461   0.653  0.1040 -0.0426 -0.3128
 9825W        W25959  17.063  11.296   2.927  0.2724  0.1416  0.1267
 9826W        W25960   5.220  11.640  14.260 -0.1936 -0.1654  0.1095
 9827W        W25961  14.390   2.626  13.514 -0.6583  0.0523 -0.3091
 9828W        W25962   7.982  12.668  11.598  0.2545  0.2601 -0.0108
 9829W        W25963  18.299  17.459  12.532 -0.2621  0.0955 -0.1105
 9830W        W25964   5.873   0.505  11.216 -0.0928 -0.0729  0.0124
 9831W        W25965  11.816   6.724   5.193  0.0620 -0.2464 -0.2441
 9832W        W25966  11.101   5.916  10.657 -0.1142 -0.0030  0.1720
 9833W        W25967   0.361   2.407  13.751 -0.0684  0.0406 -0.1276
 9834W        W25968  18.866  16.062  14.896  0.0117 -0.0360  0.4212
 9835W        W25969  18.294  16.438   2.682  0.1940  0.1545 -0.1120
 9836W        W25970   6.566  12.384   2.815 -0.2030 -0.3014 -0.1344
 9837W        W25971   3.308   7.724  14.780 -0.0422  0.0128 -0.3099
 9838W        W25972  14.147  15.086  11.934  0.4813 -0.2166 -0.1070
 9839W        W25973   6.014   4.043   1.021  0.1332 -0.2328  0.1647
 9840W        W25974  17.702  18.382   4.572 -0.1829  0.2021 -0.0239
 9841W        W25975   6.416  14.844  10.934 -0.0171 -0.0004  0.2585
 9842W        W25976   4.806  15.361  13.202 -0.0373 -0.0218 -0.1232
 9843W        W25977  10.044   1.649   1.551 -0.2104 -0.0148 -0.2177
 9844W        W25978  12.710  13.844  13.012  0.1459  0.1911  0.2857
 9845W        W25979   5.708   9.991   3.739 -0.1093 -0.1334  0.2130
 9846W        W25980  16.350   1.975   0.460  0.0734  0.1455 -0.0705
 9847W        W25981  18.952   0.683   2.205 -0.2692  0.1511  0.2406
 9848W        W25982   4.090  16.821   3.854  0.0823 -0.2671  0.3154
 9849W        W25983  15.253   7.664   3.919  0.0560  0.3592  0.1280
 9850W        W25984  15.517  16.048  14.878 -0.0398  0.3257  0.4792
 9851W        W25985  14.332  17.619  13.458 -0.0155 -0.2142  0.2246
 9852W        W25986   0.542   3.975   4.238 -0.0364 -0.0333  0.0521
 9853W        W25987  16.897  11.305  14.254  0.3892  0.0656 -0.0669
 9854W        W25988   1.445   0.901  10.344 -0.1093 -0.2060 -0.4349
 9855W        W25989  18.177  16.217   5.408  0.0887  0.0261  0.2136
 9856W        W25990  19.196   5.237  11.884 -0.0835 -0.2091 -0.0405
 9857W        W25991   1.173   2.684  12.392 -0.3123  0.2054  0.1529
 9858W        W25992   1.980  10.481  12.353 -0.0055  0.0901  0.2272
 9859W        W25993   5.494  19.162   4.058  0.1606 -0.1538  0.1873
 9860W        W25994   3.766  10.585   1.589 -0.1241 -0.1288  0.0135
 9861W        W25995   9.926  13.601   1.068  0.2043 -0.0920  0.0490
 9862W        W25996  14.518   6.505   2.595  0.2332  0.0002  0.0087
 9863W        W25997   8.834   4.374   5.728  0.0321  0.0574 -0.1184
 9864W        W25998  19.053   0.418  12.371 -0.3684  0.0607 -0.0225
 9865W        W25999   9.901   5.713  14.017  0.0635  0.2688 -0.5251
 9866W        W26000  14.620   3.827   4.250 -0.2254  0.0100  0.1508
 9867W        W26001   5.223   8.423  11.013  0.2639 -0.1995  0.0538
 9868W        W26002   7.494   7.589  14.030  0.0869  0.4461  0.1207
 9869W        W26003   9.365  13.527   0.364  0.0927  0.0044 -0.3149
 9870W        W26004  16.428   7.355   2.912  0.3806 -0.0281 -0.0366
 9871W        W26005  13.710  13.715  12.418  0.0591  0.1035  0.2993
 9872W        W26006   8.180   0.967   4.384  0.0873 -0.3150 -0.1922
 9873W        W26007   1.110   0.365  11.309 -0.1634 -0.2282  0.0416
 9874W        W26008   8.153   2.455  12.941 -0.1211 -0.1019  0.2344
 9875W        W26009   8.275  18.321   0.829 -0.1053  0.0199 -0.0494
 9876W        W26010  18.530   2.076  11.171  0.0746 -0.2516 -0.0668
 9877W        W26011  11.759   7.906  10.235  0.1378  0.1467 -0.0316
 9878W        W26012  16.431   1.026  10.442  0.2473 -0.0051 -0.0831
 9879W        W26013  17.136  14.518   4.829 -0.3019  0.0365 -0.3032
 9880W        W26014  11.829  15.378  14.013  0.1413  0.3719  0.0569
 9881W        W26015  11.137   4.660   9.860  0.0023 -0.0912  0.1156
 9882W        W26016  17.887   0.315   4.007 -0.3281  0.0159  0.3003
 9883W        W26017  17.595   3.434   2.262  0.0241  0.0516 -0.0509
 9884W        W26018  11.119  12.752   1.775  0.1922  0.0511 -0.0877
 9885W        W26019  12.372  15.387   3.653  0.1625 -0.2130 -0.3129
 9886W        W26020  12.655   7.490  10.537 -0.4688  0.2874 -0.1441
 9887W        W26021   7.522   4.877   3.943  0.4025 -0.1894  0.0604
 9888W        W26022  15.569  16.986  12.346 -0.1576 -0.2040 -0.1888
 9889W        W26023  13.906  17.332  12.062  0.0728 -0.0097  0.1903
 9890W        W26024   3.136  16.646   4.043  0.0184 -0.0625  0.1962
 9891W        W26025  13.985   2.837  10.557  0.2365  0.1169  0.0646
 9892W        W26026  14.540  13.123   0.311  0.0175  0.0246 -0.0458
 9893W        W26027  10.074  12.482  11.544 -0.1073 -0.0970  0.0791
 9894W        W26028  11.485   4.312  11.601  0.0127 -0.0676  0.0430
 9895W        W26029   4.635  15.735  14.173 -0.0188  0.1852  0.1324
 9896W        W26030   9.368  14.857  11.987  0.0168  0.1858  0.0205
 9897W        W26031   5.057   4.387  10.880  0.1142 -0.3612  0.0876
 9898W        W26032   8.141   6.119  14.605 -0.0316  0.0086  0.2890
 9899W        W26033  10.587  12.723  12.686 -0.0225 -0.4425 -0.1443
 9900W        W26034   6.834   1.022  11.374  0.2079 -0.0039  0.0076
 9901W        W26035   5.331   7.812   0.930  0.0404 -0.1414 -0.0718
 9902W        W26036   6.234  18.841   0.500 -0.1105  0.1752  0.4268
 9903W        W26037  12.370  19.006  14.213  0.1891  0.0337  0.1900
 9904W        W26038   6.735  15.751  11.352  0.2830 -0.2325 -0.1514
 9905W        W26039  18.312  15.685   4.668  0.2217  0.0073 -0.3968
 9906W        W26040  13.787   4.207   0.995 -0.0465 -0.3880  0.2229
 9907W        W26041  13.160   6.337   3.228  0.1258  0.1107  0.0639
 9908W        W26042  11.122   7.899   5.533  0.1918  0.3889  0.0876
 9909W        W26043  15.883  15.122  11.113 -0.2829  0.1700  0.1884
 9910W        W26044   7.763   1.429   1.599 -0.2779 -0.1585  0.2280
 9911W        W26045  15.663   8.456   0.338 -0.2530  0.0532 -0.2221
 9912W        W26046   9.547   4.726  12.442 -0.0502 -0.0043 -0.1688
 9913W        W26047  10.832   9.274  13.074  0.2389  0.3458  0.1495
 9914W        W26048   9.739  15.993   0.156 -0.0089 -0.3238 -0.1324
 9915W        W26049   0.148  11.228  11.095 -0.0512 -0.0671 -0.0886
 9916W        W26050  10.090  17.339  10.600  0.0582 -0.2954 -0.0859
 9917W        W26051   0.007  17.466   1.791  0.0125 -0.0247 -0.2240
 9918W        W26052   0.082   5.437   4.438  0.2234  0.1406  0.2601
 9919W        W26053   0.428   4.792  14.630 -0.1437 -0.1555  0.1870
 9920W        W26054  11.954  16.862  12.092  0.2086 -0.0679 -0.2331
 9921W        W26055   5.151   9.781   1.933 -0.0024 -0.1079 -0.1709
 9922W        W26056  17.052  15.537   0.188  0.0771 -0.0350 -0.0631
 9923W        W26057   1.712   0.511  12.176 -0.2183  0.4824  0.0687
 9924W        W26058  10.781   7.217  13.417 -0.2922  0.2150  0.1039
 9925W        W26059  11.433   7.568   9.208 -0.2012  0.1646 -0.4315
 9926W        W26060  17.343  18.840   3.487 -0.2817  0.1045 -0.2605
 9927W        W26061   2.574  19.043  10.465 -0.0714 -0.0253  0.0286
 9928W        W26062  11.287  18.873   2.375  0.0782  0.0488 -0.2502
 9929W        W26063  15.684   1.865   5.031 -0.4899 -0.1130 -0.2267
 9930W        W26064   8.651   5.814   2.126  0.0032 -0.0930 -0.1531
 9931W        W26065   2.514   8.692  11.755 -0.2712  0.0408  0.3666
 9932W        W26066  14.019   0.750   9.907 -0.1047  0.4157  0.2427
 9933W        W26067   7.532   2.253  13.657 -0.2974  0.0307 -0.2568
 9934W        W26068   0.868  14.572   4.528  0.1507  0.1132 -0.1469
 9935W        W26069   9.744  14.577   3.402  0.2967 -0.0450 -0.0477
 9936W        W26070   2.396  18.757  13.479 -0.2261 -0.1171 -0.1272
 9937W        W26071  12.449  13.038  11.156  0.4946  0.1411  0.1679
 9938W        W26072   9.822  15.300   2.892  0.3607  0.2610 -0.0374
 9939W        W26073  17.043  19.039   3.099 -0.2784  0.0148  0.1618
 9940W        W26074  17.704   8.545  11.349 -0.1028  0.2520 -0.0877
 9941W        W26075  19.144   3.505   3.232  0.0581  0.0698 -0.0241
 9942W        W26076  14.013   2.400   1.040 -0.0410  0.0009  0.0852
 9943W        W26077  14.304   8.798   2.521  0.0978 -0.0179  0.1268
 9944W        W26078  17.344  10.792  10.616  0.0868 -0.0037  0.1946
 9945W        W26079   3.891  10.332  13.645  0.0704  0.1434  0.2730
 9946W        W26080   8.130  17.765   5.309  0.1043 -0.1432  0.2745
 9947W        W26081   4.663   9.732  14.908 -0.2464  0.2382  0.0249
 9948W        W26082  11.713   0.484  10.824 -0.0119 -0.0277  0.4551
 9949W        W26083   5.485   7.807  11.833 -0.0891 -0.1887 -0.0161
 9950W        W26084  10.563   8.819   1.294 -0.2518 -0.3127  0.0263
 9951W        W26085  12.740   4.738  14.809 -0.1081  0.0725  0.0182
 9952W        W26086   6.892   0.096   4.329 -0.0463 -0.1208 -0.2920
 9953W        W26087   2.437   1.953   1.856 -0.1127 -0.2253  0.1457
 9954W        W26088  17.776   9.236   4.139  0.0466 -0.0847  0.0970
 9955W        W26089   8.607   4.117  10.149  0.1881  0.0347  0.1439
 9956W        W26090   2.919   5.234  11.012  0.0614 -0.0549  0.2093
 9957W        W26091  14.704   7.737  12.739  0.0173  0.1562 -0.1896
 9958W        W26092  14.231  17.141   0.855  0.1122  0.0901  0.2847
 9959W        W26093  12.562  11.623  12.593  0.0295 -0.3093 -0.0591
 9960W        W26094  16.239  15.959   2.145  0.2576 -0.1520 -0.2770
 9961W        W26095  17.950  16.037  10.672 -0.1441 -0.2203 -0.1679
 9962W        W26096   5.322   1.174   3.806 -0.0690  0.5139  0.0086
 9963W        W26097  15.041   3.096  10.370  0.1390 -0.3108  0.3073
 9964W        W26098   4.054  11.225  13.628  0.1833 -0.0785  0.1157
 9965W        W26099  10.274   0.424  13.893 -0.1981 -0.4085  0.3220
 9966W        W26100  18.212   1.616   1.304  0.1541 -0.1478 -0.0787
 9967W        W26101   3.677   6.812  14.839  0.1754 -0.0263 -0.1583
 9968W        W26102  15.538  14.075  11.902  0.2737 -0.4876 -0.1551
 9969W        W26103  15.096   8.444   1.555  0.0764 -0.1437  0.2979
 9970W        W26104  12.753   0.644  13.863 -0.2319 -0.0693  0.0665
 9971W        W26105   9.060  10.295   1.076 -0.0766  0.0832 -0.0806
 9972W        W26106   8.035   4.541   2.889  0.3822  0.0712 -0.1313
 9973W        W26107   9.033  18.821  13.726 -0.1949  0.3847  0.1593
 9974W        W26108   0.229   5.195   2.352  0.1959 -0.0523  0.0860
 9975W        W26109  11.366   5.816   3.458  0.0234 -0.0513  0.2649
 9976W        W26110   6.583   3.942   1.403  0.2987  0.0308 -0.0166
 9977W        W26111   6.826   0.018  12.330  0.0077 -0.2083  0.2562
 9978W        W26112  10.244   8.092  14.234 -0.2939  0.1036  0.0078
 9979W        W26113  18.128  11.220  11.879  0.0668 -0.3068  0.1917
 9980W        W26114   9.330   3.797  14.541 -0.0615 -0.2790  0.1775
 9981W        W26115  15.911   2.555   1.298 -0.2192  0.1588 -0.4733
 9982W        W26116  18.709  14.760   4.971  0.5791 -0.1267 -0.1089
 9983W        W26117  11.322  17.338   2.452 -0.2116  0.0267  0.0088
 9984W        W26118   3.817  15.048  10.029 -0.3012 -0.2492  0.2635
 9985W        W26119   3.280  18.263   0.166  0.1231 -0.1935 -0.1864
 9986W        W26120   4.730  17.085  13.122  0.0774  0.1022 -0.2538
 9987W        W26121   9.908  10.400  14.950 -0.0041  0.0166 -0.1494
 9988W        W26122   3.514  18.689   1.813  0.1215 -0.0406  0.2270
 9989W        W26123   7.235   1.330   5.076  0.2206  0.0677 -0.0398
 9990W        W26124  18.709   7.117   4.132 -0.0542 -0.1603 -0.0807
 9991W        W26125   2.654   0.923  12.190  0.1322  0.4233 -0.1076
 9992W        W26126  13.041  10.716   0.495 -0.3319 -0.0775  0.1892
 9993W        W26127  15.305  13.578  14.193 -0.1930  0.0779 -0.1033
 9994W        W26128  13.719  15.090   0.884  0.0115  0.1174  0.1873
 9995W        W26129   1.911  11.435  10.894  0.0281  0.4124 -0.4090
 9996W        W26130  10.901  14.176   1.104 -0.0030 -0.0257 -0.3542
 9997W        W26131  18.478  17.288   5.674 -0.1030  0.3298  0.0128
 9998W        W26132   2.273  15.576  13.755 -0.0596 -0.1735 -0.2568
 9999W        W26133  12.901   3.830   3.152 -0.0079 -0.1021  0.1303
10000W        W26134   2.621   2.628   2.853  0.4607  0.2356  0.0755
10001W        W26135   4.385  16.060   2.199 -0.2456 -0.2332 -0.1643
10002W        W26136   4.521  14.321   0.609  0.2647 -0.2129 -0.0807
10003W        W26137   5.533  13.975  11.978  0.2351  0.0742  0.1987
10004W        W26138  18.376  18.280   1.159 -0.1829  0.1734  0.0310
10005W        W26139   3.780  14.560   4.590  0.2130 -0.1216  0.0415
10006W        W26140  15.084  19.006   1.393  0.1443 -0.0141 -0.2437
10007W        W26141   7.618   4.366   0.500  0.3169 -0.2232 -0.0280
10008W        W26142   1.645  12.297  10.617  0.1030  0.0282  0.3135
10009W        W26143   3.151  16.168   3.853  0.4119 -0.1093  0.1794
10010W        W26144   1.324   3.899   3.633  0.1518 -0.1057  0.1604
10011W        W26145   9.807   9.363   2.610 -0.2482  0.0128 -0.0058
10012W        W26146  14.056   0.552  14.667 -0.3380 -0.1898  0.2088
10013W        W26147  12.288  16.441  13.163  0.0761  0.1594  0.1109
10014W        W26148  18.847  15.058   2.650 -0.2380  0.3982 -0.0467
10015W        W26149  16.275   4.421   2.389  0.1048 -0.2932 -0.2291
10016W        W26150   8.887   1.543  10.414 -0.2007  0.4989  0.0148
10017W        W26151  11.711  17.242  12.467  0.0490 -0.0986 -0.3406
10018W        W26152   2.026  10.298  13.983 -0.1535  0.1974 -0.0338
10019W        W26153   0.181   4.703   2.449  0.1908 -0.1069  0.2277
10020W        W26154   1.061   3.215   2.482  0.1103  0.0244  0.0002
10021W        W26155   0.193   9.632  14.240 -0.0840 -0.1478 -0.0359
10022W        W26156   1.578  15.465  14.551 -0.0867 -0.0835  0.2949
10023W        W26157  14.910   9.693   2.969  0.0684 -0.0652 -0.0952
10024W        W26158   8.208   8.597   1.435  0.0800  0.2400 -0.0916
10025W        W26159   2.443  17.099  12.552  0.2195  0.2013 -0.0974
10026W        W26160   7.870   4.200   1.898  0.3445  0.2388 -0.2451
10027W        W26161   7.524  15.481  14.864 -0.2729 -0.0538  0.1399
10028W        W26162  18.251   1.758   4.509  0.0492 -0.1172 -0.0077
10029W        W26163  16.398  12.799   2.605 -0.2154 -0.0863  0.1076
10030W        W26164   0.204   5.359  13.398 -0.1027 -0.0721  0.1749
10031W        W26165   5.801  13.344  11.753 -0.1866  0.0306 -0.3474
10032W        W26166  15.439   4.712  10.868 -0.0743 -0.2445  0.2191
10033W        W26167  12.225   1.276   3.092  0.1516  0.1262 -0.0402
10034W        W26168   5.900  18.860  10.926 -0.0198  0.0874 -0.0964
10035W        W26169   2.940  16.919   2.300  0.0816  0.0959  0.1849
10036W        W26170   5.496   4.785  14.787  0.2084 -0.1237 -0.0212
10037W        W26171  14.341   6.049   2.575  0.3439 -0.1417 -0.0780
10038W        W26172  15.472   9.473   1.653 -0.1475 -0.1194  0.0600
10039W        W26173  12.431   7.724  12.981 -0.2217  0.0820  0.2083
10040W        W26174  13.963  17.237  12.676 -0.0882 -0.0281  0.0406
10041W        W26175  13.761  12.848  11.873  0.3216 -0.0419  0.0869
10042W        W26176  10.762   9.429   3.707  0.2427 -0.0657  0.0596
10043W        W26177  16.719   1.186  13.137 -0.0423 -0.1856  0.2447
10044W        W26178  14.701   7.921   1.304  0.1723  0.2177  0.0468
10045W        W26179   9.307   2.932  10.871  0.1975 -0.3528  0.2722
10046W        W26180   6.707   6.840   4.216  0.0785 -0.0106  0.3451
10047W        W26181   3.619   4.337   1.589 -0.2372  0.1167  0.2355
10048W        W26182  11.435  11.193   0.930 -0.2775  0.1829  0.1236
10049W        W26183  10.321  17.406  13.431  0.0862  0.2593 -0.0082
10050W        W26184   4.406  16.058  14.595  0.1493 -0.0403 -0.0471
10051W        W26185   7.299  15.977  14.153  0.1727  0.2681  0.0729
10052W        W26186  17.323  13.515   4.213 -0.1782  0.0481  0.3295
10053W        W26187  16.384  13.660   2.015 -0.1128 -0.4063 -0.1762
10054W        W26188   6.833   2.840  13.068 -0.0458  0.1230  0.3302
10055W        W26189  17.558  11.100   9.668  0.3472  0.0145 -0.1344
10056W        W26190   1.326   4.058   2.039  0.1704 -0.2344 -0.0441
10057W        W26191  19.070   3.127  13.425  0.4126 -0.1778  0.1347
10058W        W26192  16.363  12.729   1.159 -0.0445 -0.0434 -0.2583
10059W        W26193  16.065   3.439   0.666 -0.1929 -0.3863  0.0361
10060W        W26194   3.362   4.218   0.231  0.0583 -0.1422  0.2069
10061W        W26195  10.461  18.274   3.648  0.3064 -0.0004  0.2416
10062W        W26196  16.866   0.262   0.463  0.0481 -0.2781 -0.1255
10063W        W26197  12.541   3.090   3.385  0.2190 -0.1139  0.1068
10064W        W26198   5.199   4.170   4.812 -0.1191 -0.0495  0.0413
10065W        W26199  16.864  18.085   3.002 -0.1078  0.0371 -0.1974
10066W        W26200   8.893   8.543  13.967 -0.0853 -0.0478 -0.1722
10067W        W26201  12.504   9.500  11.973  0.0316  0.1533  0.4319
10068W        W26202   6.793   1.017  12.762 -0.3684 -0.1163  0.0908
10069W        W26203  15.744   0.854   9.935 -0.1338  0.0440 -0.0688
10070W        W26204   5.900   9.399  12.561  0.2196  0.1039  0.0542
10071W        W26205   6.874   2.708  14.961  0.2710  0.0579  0.0321
10072W        W26206  12.678   7.813  14.906  0.4545  0.0137 -0.3132
10073W        W26207   1.315   3.965  13.788 -0.3983  0.1154  0.0238
10074W        W26208  10.933  12.339   2.167 -0.2625 -0.0719 -0.1319
10075W        W26209  16.609  17.966   4.049 -0.1196  0.1812 -0.0695
10076W        W26210   4.224  19.173  10.194 -0.1474  0.2150 -0.1350
10077W        W26211   8.239  18.148  11.644  0.0319 -0.0843 -0.2338
10078W        W26212   9.406  12.169  14.681 -0.0231 -0.0600  0.3401
10079W        W26213  15.278   1.815   0.845  0.0748  0.0947 -0.1138
10080W        W26214   3.079  17.242   2.693  0.3380  0.1889  0.1280
10081W        W26215  11.693  17.762  11.061  0.2984  0.2592  0.0279
10082W        W26216   9.076  15.728   0.954 -0.1432 -0.1343  0.3430
10083W        W26217   6.116  11.636  13.980 -0.1302  0.0085 -0.1997
10084W        W26218   2.914   8.275   4.568 -0.3269  0.0954  0.2117
10085W        W26219  18.206   8.625  10.513  0.0458 -0.0063  0.0034
10086W        W26220  12.395   6.097   3.469  0.0481  0.1493 -0.0336
10087W        W26221   7.498  16.447   3.119  0.2366 -0.4516  0.2524
10088W        W26222  16.814  11.059   0.231 -0.2801 -0.2044 -0.0501
10089W        W26223   8.052  11.543   5.210 -0.1385  0.0130  0.3081
10090W        W26224  17.376   9.562  10.768  0.2580 -0.1155  0.0760
10091W        W26225   8.226   8.234   1.902 -0.1114 -0.1906  0.0127
10092W        W26226  11.983  18.510   0.481  0.0340 -0.0599  0.0536
10093W        W26227   0.396  16.600  12.222 -0.1622 -0.0445  0.0183
10094W        W26228  10.712  11.679   0.811  0.3254  0.2875  0.3254
10095W        W26229  12.416  13.416   1.820 -0.0592 -0.1379  0.2395
10096W        W26230   2.492   7.179  14.416  0.0444  0.1402  0.1660
10097W        W26231  16.797  18.780   4.682  0.0051  0.2662 -0.1998
10098W        W26232   6.475   0.193  14.414  0.1348 -0.2670  0.0752
10099W        W26233   4.066   6.407   9.878  0.0675 -0.3482 -0.1787
10100W        W26234   0.202   9.044  13.117  0.0255 -0.0053  0.3515
10101W        W26235  13.500  14.119   4.455  0.2335 -0.0684 -0.0249
10102W        W26236  10.331  10.286  11.813 -0.1735  0.1437  0.0331
10103W        W26237   6.029  16.585   0.383 -0.2602 -0.1259  0.0570
10104W        W26238   8.959   0.453  11.624 -0.1036  0.0770  0.2414
10105W        W26239  11.507  11.046   2.555 -0.2324 -0.1992  0.3116
10106W        W26240   5.906   6.473   3.233 -0.1280  0.0889 -0.1915
10107W        W26241  11.637   8.926  12.616 -0.0472  0.2456 -0.3127
10108W        W26242   6.588   9.524  10.842 -0.0362  0.0605  0.2542
10109W        W26243  18.520   3.433   0.869  0.0522 -0.0109 -0.0616
10110W        W26244  15.633   5.471   0.442  0.0588  0.1639 -0.1660
10111W        W26245  11.588  10.599  12.322 -0.0725 -0.2986  0.0947
10112W        W26246   2.929   7.073   4.581 -0.1105  0.1045 -0.0091
10113W        W26247   6.088  18.151  10.707  0.2418  0.3538 -0.1589
10114W        W26248   1.404   7.124  11.729 -0.0430  0.0795 -0.0674
10115W        W26249  12.398   0.209  14.799 -0.0775  0.1735  0.0192
10116W        W26250   0.103   7.154   2.861 -0.0001  0.2400  0.2514
10117W        W26251  16.071   6.148   1.916  0.4960  0.2324  0.1129
10118W        W26252   7.840   3.685   4.573 -0.1879 -0.0860 -0.2683
10119W        W26253  11.887   5.524   5.084 -0.0617 -0.2094  0.0188
10120W        W26254  15.578   1.291  13.116  0.0461  0.0649  0.0614
10121W        W26255   1.476   5.123   2.711  0.1541 -0.3419 -0.3542
10122W        W26256   6.395  12.410  10.914 -0.1924  0.0377  0.0613
10123W        W26257  10.977  13.370   4.426  0.3340  0.0326 -0.0116
10124W        W26258  11.049   3.417   4.108 -0.0569 -0.2494  0.0356
10125W        W26259   5.179   0.264   3.261 -0.1446 -0.2619  0.1354
10126W        W26260  13.789   5.001   4.405 -0.0511  0.1252 -0.0237
10127W        W26261  13.591  18.349  13.874  0.2549  0.0435  0.1518
10128W        W26262   6.768   8.786  12.529 -0.1210 -0.0309 -0.2424
10129W        W26263  18.192   5.944   2.344  0.2191 -0.0299 -0.4934
10130W        W26264  17.534  18.576   5.891 -0.0522 -0.3904 -0.1660
10131W        W26265  13.690  12.985  10.434  0.1414  0.0810 -0.0712
10132W        W26266  13.545   4.165  12.136 -0.1605 -0.1108 -0.0018
10133W        W26267  12.366  12.634  14.160 -0.0378  0.3083 -0.2093
10134W        W26268   2.620  10.719  11.200  0.1401 -0.1318  0.0655
10135W        W26269   0.651   2.575  11.616 -0.1336 -0.1341  0.3383
10136W        W26270  10.965   0.664  11.995 -0.1662 -0.1949 -0.3369
10137W        W26271   2.989   8.167  11.357  0.2615 -0.4097 -0.0894
10138W        W26272  10.615  17.549   4.435  0.0677  0.1449 -0.1478
10139W        W26273  15.012   3.971  11.480 -0.0643  0.1737 -0.0257
10140W        W26274  10.605   2.252  10.081 -0.1546  0.1217 -0.1211
10141W        W26275  12.146  12.211  10.331 -0.0767 -0.0835 -0.0592
10142W        W26276   8.034  13.070  10.090  0.0618 -0.0525  0.0540
10143W        W26277  18.472  19.117   1.240 -0.1144 -0.0418 -0.0925
10144W        W26278   6.839  18.665   3.012  0.1400  0.0212  0.1734
10145W        W26279   0.871   5.870   5.769 -0.1833  0.2962  0.0446
10146W        W26280   7.434   5.223   0.787 -0.0255 -0.1282  0.2496
10147W        W26281   2.219  17.406  10.826 -0.0915 -0.0568  0.0104
10148W        W26282   2.151   3.270   4.748 -0.3351 -0.0287  0.0146
10149W        W26283   2.243  10.865   4.650 -0.1674 -0.0825 -0.1643
10150W        W26284  18.703   2.764   1.565  0.0193  0.0293 -0.0869
10151W        W26285  10.478   1.397  13.035 -0.2518 -0.0436  0.0212
10152W        W26286  12.412  12.730   1.046  0.3014  0.1456  0.0798
10153W        W26287   0.432  18.343   1.120  0.1400  0.1849  0.1608
10154W        W26288  13.606  13.208   3.368 -0.0561  0.0052  0.2883
10155W        W26289   1.470  14.321  12.468  0.0232 -0.0136 -0.0444
10156W        W26290  11.300  15.425   4.091 -0.1983  0.1221 -0.2330
10157W        W26291   9.320  10.875  11.847 -0.1049 -0.0189  0.1606
10158W        W26292  13.416   5.713   5.631 -0.1190  0.1725  0.2394
10159W        W26293  16.152   0.535  10.570  0.0023 -0.0479 -0.2747
10160W        W26294  16.289  13.829   2.457  0.2119 -0.0025 -0.0859
10161W        W26295   4.294   8.871   4.372  0.0821  0.0443  0.1000
10162W        W26296  14.051   2.047  10.763  0.0843 -0.1523 -0.0372
10163W        W26297   5.743  12.184   5.305  0.1552 -0.0120 -0.2963
10164W        W26298  17.782   9.093   0.151  0.1406  0.2888  0.0727
10165W        W26299  10.236   0.272   4.225  0.0388  0.4326 -0.0184
10166W        W26300   9.851   5.579  11.687 -0.1676  0.0605  0.2745
10167W        W26301  16.264  15.229  14.715  0.0695 -0.0450  0.1757
10168W        W26302  10.312  16.661   0.357  0.0896 -0.0638  0.3517
10169W        W26303   4.565   7.122   3.114  0.0697 -0.0018  0.1298
10170W        W26304  11.235   5.478  10.446  0.0364 -0.0496  0.0127
10171W        W26305  14.145  15.043  12.456 -0.0538 -0.4616  0.0473
10172W        W26306  17.778   8.850   1.136 -0.0362 -0.2358  0.1494
10173W        W26307  16.986  10.250  13.804  0.1293 -0.2084 -0.0627
10174W        W26308   0.722  11.314  14.781 -0.3166 -0.0240  0.0960
10175W        W26309  10.579  19.137   1.177  0.2738 -0.1239  0.1150
10176W        W26310   7.079  16.580   2.303 -0.0075  0.0365  0.1568
10177W        W26311   9.189   9.449  10.980 -0.0815  0.0898 -0.2012
10178W        W26312   6.747   8.190  15.025  0.0187  0.1072  0.1778
10179W        W26313   8.032  18.287   4.452  0.0156  0.4072 -0.1972
10180W        W26314  17.193   0.039   3.616  0.0657 -0.1135  0.4742
10181W        W26315   2.129   1.850   3.352 -0.1264 -0.3813 -0.3256
10182W        W26316  17.679  16.940   1.129 -0.3628 -0.0218 -0.1734
10183W        W26317   7.582  14.565  14.167  0.0444  0.0039 -0.2591
10184W        W26318  10.557   1.354   2.657  0.2338 -0.2225 -0.1840
10185W        W26319  14.472  18.361   9.575  0.1553 -0.4651 -0.2006
10186W        W26320   8.670   3.077  14.982 -0.1994 -0.1649  0.2100
10187W        W26321   5.633   5.804  14.654 -0.1956 -0.4367 -0.0333
10188W        W26322   6.312   0.364   1.312  0.2026 -0.1386  0.1585
10189W        W26323  13.145  17.354   5.396  0.0301 -0.0954 -0.0086
10190W        W26324  11.965   7.882  12.572  0.1888 -0.0744  0.1759
10191W        W26325   8.278   3.275   1.937  0.2822 -0.1147  0.3570
10192W        W26326  15.229   8.661  13.221  0.4768 -0.3882  0.2521
10193W        W26327   8.113   0.380  14.051 -0.1007  0.1559 -0.0969
10194W        W26328  16.153   1.166   4.483  0.0155  0.0365  0.1776
10195W        W26329  16.100  10.993  10.058 -0.1440 -0.1912  0.0487
10196W        W26330  12.231   3.442  11.738 -0.0075 -0.0471  0.3910
10197W        W26331  13.636   4.586  11.351 -0.0065  0.4017  0.0801
10198W        W26332   2.754   9.597  13.817  0.2324  0.0861 -0.0327
10199W        W26333   3.932  15.194  14.368 -0.0171 -0.0025  0.0789
10200W        W26334  18.821  13.293   0.626  0.1424 -0.0450  0.0188
10201W        W26335  12.432   8.730  12.611  0.3055  0.0125  0.3946
10202W        W26336  17.188   4.956  14.415  0.0601  0.2383  0.0416
10203W        W26337  10.966  17.295  10.923 -0.0602 -0.3383 -0.5953
10204W        W26338  12.239  12.196  11.282  0.4190  0.0114  0.0201
10205W        W26339   7.918  14.234   2.855  0.0785 -0.0934  0.0036
10206W        W26340   0.615   9.036   2.890 -0.0768  0.0999 -0.1037
10207W        W26341   0.481   7.181  11.766  0.0777  0.0870  0.0253
10208W        W26342   4.740  12.192   2.738 -0.3032  0.1121 -0.1887
10209W        W26343  10.991  11.847  11.420 -0.2711  0.0315  0.2644
10210W        W26344   8.084  16.974   2.626 -0.0464 -0.0576  0.1217
10211W        W26345   4.880  19.015   4.063 -0.0149  0.4153 -0.1432
10212W        W26346  14.654  11.692  13.088 -0.4973  0.0594 -0.1396
10213W        W26347  15.836  14.058  13.897 -0.1604  0.0796 -0.2133
10214W        W26348   2.648  12.019   0.932  0.3093  0.0369  0.0146
10215W        W26349  10.518   0.803  11.466  0.1465 -0.1803 -0.1868
10216W        W26350   1.527   5.126  12.614 -0.1061 -0.1411 -0.0780
10217W        W26351   0.015   0.964  11.311  0.1977 -0.0137 -0.1544
10218W        W26352   1.046   1.857   4.011 -0.1835 -0.2809  0.0341
10219W        W26353  11.632   9.344   2.130 -0.1515 -0.2160  0.2446
10220W        W26354   6.105   6.804  10.715  0.1260 -0.1471  0.1366
10221W        W26355   2.343  16.189  11.221  0.1718  0.1849  0.1945
10222W        W26356  11.343  17.836   3.268 -0.0499 -0.1574  0.2085
10223W        W26357  15.715  15.105  12.342  0.0807 -0.0088  0.1123
10224W        W26358  18.207  15.358   0.234 -0.0050  0.2047 -0.0851
10225W        W26359   0.020  14.120   4.045 -0.0041 -0.0645  0.0192
10226W        W26360   7.647  11.382  13.946 -0.3943 -0.0998  0.0778
10227W        W26361   7.903   2.882  14.120  0.2673 -0.1355 -0.0290
10228W        W26362  12.143  15.908  11.037 -0.1318  0.1445 -0.0106
10229W        W26363   1.091   5.363  14.422 -0.1875 -0.2741 -0.0274
10230W        W26364  17.486   9.365  13.427 -0.0967  0.0310 -0.0725
10231W        W26365  12.139   0.333  14.411  0.0500  0.3148  0.0177
10232W        W26366  18.499   7.227  12.195  0.0071  0.2113  0.0295
10233W        W26367  10.032   8.494  12.314  0.2034 -0.1969 -0.0426
10234W        W26368  16.455  14.843   1.477 -0.2474 -0.1307  0.0809
10235W        W26369  18.737  15.021  14.475 -0.1676 -0.1761  0.0625
10236W        W26370   3.362  17.243   3.753 -0.0201  0.1855  0.0502
10237W        W26371  17.231  12.076   4.128 -0.0172 -0.1720  0.3540
10238W        W26372  17.962   2.230   5.455  0.4175  0.0461  0.2262
10239W        W26373  10.632  11.004   3.401  0.2082 -0.4231  0.3075
10240W        W26374  14.728  16.995  11.798  0.1198 -0.1214  0.0022
10241W        W26375  14.719  13.352   5.319  0.0984  0.2600 -0.3734
10242W        W26376  11.541  12.352  14.393  0.0223  0.2068 -0.2136
10243W        W26377  10.596  13.381  12.347 -0.0833 -0.2577  0.0570
10244W        W26378  18.356  18.962  11.419 -0.0039  0.0308 -0.0943
10245W        W26379  11.674  14.487   4.417  0.0400 -0.3844 -0.0264
10246W        W26380  10.583  15.488   4.534  0.2392  0.0942  0.0138
10247W        W26381  13.996   6.757   4.671 -0.2670 -0.0019  0.2022
10248W        W26382   5.969   5.094  10.021  0.2183  0.1800  0.3495
10249W        W26383   5.117  12.194  12.654  0.2903 -0.3432 -0.2296
10250W        W26384  12.082   6.449   3.208 -0.0707  0.3177 -0.2847
10251W        W26385   6.738  12.887  13.646  0.1371 -0.0641  0.0606
10252W        W26386  10.183   3.021  14.331 -0.3191 -0.1043  0.2616
10253W        W26387  15.540  16.529  12.154  0.0144 -0.1339  0.2074
10254W        W26388   8.651   4.587  10.199 -0.0602 -0.0035  0.0074
10255W        W26389  13.186   0.080   0.340 -0.1017 -0.2301 -0.0723
10256W        W26390   0.673  11.452   4.836 -0.4087  0.1378  0.0208
10257W        W26391   8.183   8.581  13.456 -0.0118  0.0133  0.0529
10258W        W26392  17.383   1.635  13.686 -0.2965 -0.0366 -0.1304
10259W        W26393  12.630   6.814   1.419 -0.0509  0.3063 -0.4183
10260W        W26394   7.168   6.931  11.839 -0.2790 -0.0302  0.0204
10261W        W26395   1.283  16.661   2.413 -0.0459  0.1171 -0.1332
10262W        W26396   8.605  15.023   0.525 -0.0012  0.1281  0.1150
10263W        W26397   9.012   1.986   4.110  0.0346  0.0301 -0.0077
10264W        W26398  12.298  10.484  11.818  0.1765  0.2064 -0.0692
10265W        W26399  10.006  17.569   1.951  0.1185 -0.0861  0.0593
10266W        W26400  17.113  16.148  12.885 -0.2580 -0.3701 -0.2708
10267W        W26401  18.430   7.908   0.508  0.0828 -0.1057  0.2892
10268W        W26402  16.205   9.379   2.601  0.1044  0.0610 -0.1961
10269W        W26403   6.852   5.326   5.040  0.2086 -0.1158  0.1714
10270W        W26404  16.943  14.446   1.875 -0.0420 -0.3078 -0.1075
10271W        W26405   9.006  13.214   1.061  0.2314 -0.0340  0.1183
10272W        W26406   7.768  13.443   3.944  0.0248  0.1248  0.1390
10273W        W26407  10.269  10.053   0.136  0.1704 -0.0894  0.0600
10274W        W26408  11.193  15.306  13.292  0.3462  0.3143 -0.2678
10275W        W26409  14.637   5.050   2.436 -0.0088 -0.0063 -0.1104
10276W        W26410  14.467   1.009  12.473  0.0414 -0.3260 -0.1883
10277W        W26411  11.512   1.238  10.040 -0.0903 -0.1304 -0.0159
10278W        W26412  16.071  12.398   3.011  0.1866  0.2648  0.1116
10279W        W26413  11.337   7.657  13.767  0.1061 -0.1370  0.4276
10280W        W26414   4.866   5.687  12.260 -0.1882  0.2241  0.1658
10281W        W26415   2.674  11.995  13.536 -0.0381  0.3090 -0.1298
10282W        W26416  15.699   0.168  13.858 -0.3917 -0.0787 -0.2177
10283W        W26417  12.854  13.407   1.601 -0.0107  0.1192  0.2470
10284W        W26418   6.000   0.929  11.120  0.4456  0.1100  0.0085
10285W        W26419   2.733   3.779   2.959  0.1894 -0.0409 -0.1261
10286W        W26420  10.307  16.185  10.380  0.0819  0.1116  0.0097
10287W        W26421  14.029  13.009  14.537  0.1886 -0.0426  0.2204
10288W        W26422   6.709   1.320  11.917  0.1227 -0.1265 -0.0301
10289W        W26423   9.114  10.095  13.480 -0.1050  0.2272  0.3329
10290W        W26424  13.208  12.494   3.852 -0.3071 -0.1249 -0.0899
10291W        W26425  14.887   5.969  13.259  0.2200  0.5013 -0.1635
10292W        W26426   1.005  16.784   4.549  0.0157  0.0860  0.2957
10293W        W26427   8.135  13.103  12.005 -0.1671 -0.1215  0.2906
10294W        W26428   6.684   8.118   9.800  0.4264  0.2340  0.1356
10295W        W26429   4.284   4.128  11.000  0.1634 -0.1239  0.1810
10296W        W26430  11.815  17.475   5.396 -0.0312 -0.0583  0.3213
10297W        W26431   7.369  14.682   3.022 -0.0261 -0.3235 -0.1691
10298W        W26432   2.548  12.893  10.054 -0.3353  0.4986  0.0066
10299W        W26433   3.958  13.900   9.653  0.0641 -0.0302  0.1615
10300W        W26434  14.385  18.645  10.889 -0.3046  0.0240  0.1463
10301W        W26435   5.052   1.734   2.959 -0.0763  0.3296 -0.3051
10302W        W26436  12.244  13.991  12.352 -0.0950  0.1537  0.5144
10303W        W26437  16.718  11.978   0.143  0.1100 -0.0211 -0.1096
10304W        W26438   4.357  16.363  11.368 -0.1459  0.0544 -0.1879
10305W        W26439  11.533   1.255  13.018 -0.0998  0.0650  0.0214
10306W        W26440  10.485   6.195   3.592 -0.0875 -0.0493  0.1862
10307W        W26441   2.860   9.671   9.879 -0.1747 -0.0703 -0.3180
10308W        W26442   4.764   5.864   1.555 -0.0239 -0.1130  0.0521
10309W        W26443  11.703   8.005  14.087  0.5072 -0.2656 -0.0741
10310W        W26444   9.332  18.297   5.047 -0.0357 -0.1297  0.3049
10311W        W26445  10.255   3.383   2.609 -0.1629  0.0219  0.3307
10312W        W26446   5.340  13.596  11.691 -0.1077  0.1298  0.0432
10313W        W26447   3.225   9.969   2.418  0.1796 -0.0902  0.1719
10314W        W26448   9.301  13.496  11.172 -0.3480  0.0451  0.2657
10315W        W26449  12.424  11.433  14.515  0.1237 -0.1156 -0.0696
10316W        W26450  15.260  10.912  13.421 -0.1329  0.0745  0.3053
10317W        W26451   1.730   5.428  10.463  0.2371 -0.3957  0.0725
10318W        W26452   5.248  17.674   4.854 -0.1727 -0.0582 -0.0680
10319W        W26453   3.953   7.123   1.054 -0.0595  0.3758 -0.0916
10320W        W26454  16.772   8.964   0.511 -0.3171 -0.0258 -0.1765
10321W        W26455   7.689  16.184   2.159 -0.0195  0.2141 -0.1443
10322W        W26456   4.288  10.337   1.824 -0.3395  0.1214  0.0366
10323W        W26457  13.509  16.464  10.180 -0.2054  0.0621 -0.3255
10324W        W26458   9.547   5.512   2.219 -0.0221  0.2576 -0.1833
10325W        W26459  18.693  14.751  11.602 -0.5258 -0.0224 -0.4217
10326W        W26460   3.316  17.483   4.258 -0.1460 -0.1056  0.0554
10327W        W26461   1.078   1.532   4.377  0.1476 -0.0827  0.1445
10328W        W26462  18.824   8.347   3.509  0.0776 -0.0892  0.2774
10329W        W26463  12.000  17.311  10.810 -0.0092 -0.4879 -0.1239
10330W        W26464   1.307  13.204  11.076  0.3567  0.3416  0.0445
10331W        W26465  14.797   1.162  14.422 -0.1430 -0.3053  0.2209
10332W        W26466   3.099   3.185  12.486  0.1250 -0.0075 -0.0525
10333W        W26467  13.522   5.244   1.313  0.0158  0.2935  0.0317
10334W        W26468   2.505   8.988   3.037  0.0037 -0.1504 -0.4143
10335W        W26469  17.379   8.865  12.246 -0.1193 -0.3005 -0.0725
10336W        W26470  16.450  12.834  10.450 -0.3096 -0.0958 -0.0685
10337W        W26471  15.671  18.877   2.273 -0.1874 -0.0029  0.3357
10338W        W26472   1.094   2.687  14.636 -0.0667 -0.0350  0.0911
10339W        W26473  14.083   5.707  11.340  0.2142 -0.1045  0.0337
10340W        W26474  10.189   1.192   1.400 -0.0505 -0.1148 -0.1651
10341W        W26475   6.752  13.830  11.924 -0.0625 -0.1420  0.3006
10342W        W26476   4.310  15.527  11.387 -0.1506 -0.1104  0.1201
10343W        W26477  11.698  16.900  11.626  0.0472 -0.3185  0.3724
10344W        W26478  18.464   8.937   3.423 -0.3291 -0.2057 -0.1330
10345W        W26479  13.003   7.846  13.794 -0.1988 -0.0673  0.2890
10346W        W26480   3.445   0.564   9.583 -0.1349  0.1701  0.5444
10347W        W26481  12.230   8.537   1.721  0.0094  0.0016 -0.1720
10348W        W26482  17.308   4.053   0.983 -0.0727 -0.0554  0.0467
10349W        W26483   9.699  18.359   2.451 -0.0731  0.1643  0.1296
10350W        W26484  12.233   5.585  13.796  0.0619  0.0395  0.2819
10351W        W26485  10.637   4.293   1.124  0.2554  0.0793 -0.0621
10352W        W26486   2.879  17.853   1.240 -0.1718  0.1902  0.2464
10353W        W26487   1.954  16.050  14.040 -0.0632  0.2055  0.0913
10354W        W26488   7.645   8.862   2.391 -0.3662 -0.1580 -0.0793
10355W        W26489   4.085   8.201   3.339  0.4051  0.1041 -0.2206
10356W        W26490   3.373  17.516  12.285  0.0299 -0.0674 -0.1684
10357W        W26491  18.954   8.348   0.488 -0.0218  0.1593 -0.1615
10358W        W26492  17.612  15.116   3.515 -0.0297 -0.0457  0.1885
10359W        W26493   6.376   4.991  10.991  0.0529 -0.0136  0.0477
10360W        W26494  18.660   3.704   1.774 -0.0045  0.0110 -0.1804
10361W        W26495   6.473  11.058  13.903 -0.0636 -0.1846  0.2557
10362W        W26496   5.751  16.923   4.554  0.0993 -0.1734  0.0803
10363W        W26497  17.241   0.839   5.122 -0.0939 -0.1704  0.0185
10364W        W26498   0.609  10.543  10.538  0.0371  0.2017 -0.0648
10365W        W26499   6.688  10.160  13.523  0.0343 -0.0953  0.1756
10366W        W26500  18.810  10.397  13.402 -0.3640 -0.0826 -0.1958
10367W        W26501  10.993  12.621   3.643 -0.3221  0.0404  0.0538
10368W        W26502  14.586   1.253  10.613  0.2198 -0.0275  0.3139
10369W        W26503  13.476   6.872  13.762 -0.2313 -0.5014  0.0111
10370W        W26504   0.733  15.860  11.324  0.1628 -0.1173 -0.1584
10371W        W26505  10.548  11.030  11.571  0.0845 -0.1762 -0.0775
10372W        W26506   4.330   1.862   5.336  0.2669  0.1193  0.2852
10373W        W26507   3.013  16.258  11.014  0.4093  0.0407 -0.1744
10374W        W26508  19.225  15.697  14.705  0.0927 -0.1618 -0.0661
10375W        W26509   1.785   8.041  11.511  0.1874 -0.0685  0.2020
10376W        W26510   2.202   4.958   3.821  0.0936  0.1213 -0.1772
10377W        W26511  19.049  18.282   3.322 -0.1139  0.1441 -0.5384
10378W        W26512   9.448   2.804   0.851  0.1473  0.0396  0.0219
10379W        W26513  15.721   6.692   3.889 -0.1607  0.2911 -0.0274
10380W        W26514   0.958  16.699  11.053 -0.2742  0.0439 -0.1669
10381W        W26515   1.729   7.395  10.150 -0.1033 -0.2345 -0.0540
10382W        W26516   9.196  11.727   2.417  0.1320  0.2563 -0.0258
10383W        W26517   2.909   8.018   1.771  0.5304  0.2408 -0.2543
10384W        W26518  16.561   2.097   5.227 -0.2805 -0.1270 -0.1052
10385W        W26519   8.385  12.440   1.704 -0.1913  0.0941  0.1681
10386W        W26520   0.665   2.062   1.899  0.2333 -0.2399  0.2064
10387W        W26521   5.236  14.342   0.546 -0.0722 -0.0217  0.0414
10388W        W26522  10.482  15.082   0.784  0.4115 -0.0665 -0.2807
10389W        W26523   3.905  16.345  11.006 -0.2999 -0.0007 -0.2160
10390W        W26524  15.883   7.283   4.342  0.2333  0.1856  0.0035
10391W        W26525   8.926   2.956  10.546 -0.0448 -0.0109 -0.0035
10392W        W26526  12.160  14.912  11.102 -0.2027 -0.0031 -0.1208
10393W        W26527  16.117   1.134   5.466  0.2197  0.2108 -0.2462
10394W        W26528  12.002   6.874  11.756  0.2470  0.3892 -0.1020
10395W        W26529  15.443  18.728  13.107  0.0304 -0.2342 -0.0116
10396W        W26530   9.070   6.085   2.908  0.2525  0.0551 -0.0730
10397W        W26531  14.060   6.643   2.363 -0.1954 -0.2789  0.0117
10398W        W26532   2.238  17.422  12.241 -0.0865 -0.1375 -0.3509
10399W        W26533   1.230   0.736  12.701 -0.1923 -0.0284 -0.3110
10400W        W26534  11.250  14.746   2.444 -0.2851  0.2377  0.2969
10401W        W26535   3.103  17.157   3.306 -0.0630  0.0317  0.2267
10402W        W26536   6.734   7.672  10.048  0.0087  0.2075  0.0772
10403W        W26537   3.274  10.833  14.179  0.0252 -0.3210 -0.3513
10404W        W26538  12.371  14.171   5.144  0.1226  0.2092  0.0561
10405W        W26539  18.302  10.134  10.322 -0.1407 -0.0253 -0.1741
10406W        W26540  13.487  13.322  13.257  0.2836 -0.1124 -0.0137
10407W        W26541  12.482  13.953   5.561 -0.0846 -0.0978 -0.0509
10408W        W26542   8.971  10.365  12.600 -0.2233  0.0893 -0.3835
10409W        W26543  11.845   5.155   1.645 -0.0143  0.0049  0.1748
10410W        W26544   3.255  18.214  13.834 -0.1061  0.2322  0.0062
10411W        W26545   8.861   1.652  13.013 -0.0417 -0.5681  0.0243
10412W        W26546  13.673   3.175  12.455  0.0179 -0.1039  0.3102
10413W        W26547   9.244  18.741  11.202 -0.1194  0.0351  0.3633
10414W        W26548   6.743  16.339  11.872  0.1436  0.5203  0.0403
10415W        W26549   4.753   0.196  13.261 -0.1226  0.1627 -0.2206
10416W        W26550   2.406  14.953  11.464  0.0194  0.3554 -0.1936
10417W        W26551  10.738  19.192  10.481  0.5599  0.0673 -0.0314
10418W        W26552   5.947  16.265   1.541  0.0191  0.1556 -0.2182
10419W        W26553   9.792   1.637   0.055  0.0070  0.1699 -0.3529
10420W        W26554   6.025  17.757   3.121  0.0770  0.1898  0.0722
10421W        W26555  13.925   7.438   1.670 -0.0472  0.2190 -0.0597
10422W        W26556  14.415  17.818   9.693  0.1464 -0.1540  0.1079
10423W        W26557  18.348   5.447   2.324 -0.0635 -0.0993 -0.2312
10424W        W26558  14.625  11.143   0.903  0.2716 -0.0202 -0.1138
10425W        W26559   5.062   5.861   0.469  0.1948  0.0000  0.3426
10426W        W26560   3.988   9.506  13.427  0.1943 -0.1662  0.2664
10427W        W26561   0.481  16.558   3.416 -0.1700 -0.0035  0.0743
10428W        W26562  17.346  13.033  11.855 -0.2830  0.1242  0.0279
10429W        W26563   8.725   9.398  10.199 -0.2200  0.2315  0.0357
10430W        W26564   5.263  18.228   9.929 -0.3296 -0.1392 -0.1429
10431W        W26565   2.012   1.723   1.370  0.1898  0.1473 -0.1520
10432W        W26566   7.986   1.769  10.261 -0.1564 -0.2742  0.1069
10433W        W26567   0.063  15.521  11.054 -0.0887  0.1995  0.2070
10434W        W26568  12.084   8.190   9.829  0.0672  0.1761 -0.4094
10435W        W26569  14.320   8.461   3.313  0.0153 -0.1415  0.2244
10436W        W26570  11.586   8.021   4.564 -0.4019  0.2123  0.2512
10437W        W26571   4.021  16.968  14.136  0.0436  0.1866 -0.0916
10438W        W26572  14.106   4.150   3.975  0.1139  0.1342 -0.0696
10439W        W26573   2.460  11.199   3.320  0.0248 -0.2326  0.3609
10440W        W26574   7.270   5.258  12.559 -0.0672 -0.0621 -0.0738
10441W        W26575  17.150  18.664  12.667  0.1949  0.3119  0.0807
10442W        W26576   0.933  19.117  11.304 -0.0435  0.0549  0.0598
10443W        W26577   3.944   9.257   1.886 -0.0151 -0.2625  0.0034
10444W        W26578  14.194   4.147  12.992  0.0235  0.1537  0.1324
10445W        W26579   9.959   0.484   2.447  0.0213 -0.1947  0.3631
10446W        W26580  11.928   0.216   9.871 -0.3872 -0.1001  0.3219
10447W        W26581  15.891   7.166  12.523  0.0212 -0.0587  0.2652
10448W        W26582   1.571  17.441   1.969  0.2971  0.1102 -0.3067
10449W        W26583  13.397  15.971  10.089 -0.2727  0.1423 -0.1331
10450W        W26584   3.960   5.758   1.187 -0.1681 -0.1219 -0.0686
10451W        W26585   7.624  14.578   2.591  0.0256  0.1534  0.0606
10452W        W26586   9.779   5.111   1.600  0.1456  0.1279 -0.1109
10453W        W26587  15.602  17.653  13.403 -0.0224  0.0349  0.0962
10454W        W26588  18.595   6.670   4.512  0.0647  0.1580 -0.1261
10455W        W26589  19.143   7.955   2.798  0.3051 -0.0783 -0.0156
10456W        W26590   9.722   5.107  11.062 -0.1278 -0.1237 -0.0429
10457W        W26591  10.582   9.834  12.102  0.1812 -0.0651 -0.4474
10458W        W26592   9.576   3.819  11.789  0.2824 -0.0731 -0.0549
10459W        W26593  13.983  12.673   0.026  0.3497 -0.1726  0.0593
10460W        W26594  17.269  15.829   3.880  0.0959  0.0677 -0.3500
10461W        W26595   6.558   3.577   2.937 -0.0040 -0.2521  0.1417
10462W        W26596   6.241  16.638   3.335  0.0509  0.1193 -0.2346
10463W        W26597   7.887  16.820   1.116  0.2381  0.1124  0.2921
10464W        W26598   3.767  10.001   2.563  0.2504  0.4195 -0.1422
10465W        W26599  13.704   9.329  10.894 -0.1385 -0.0816 -0.5149
10466W        W26600  16.465   4.449   4.896  0.2232 -0.2057  0.2327
10467W        W26601  17.398  10.731   5.245  0.4563  0.2660 -0.2033
10468W        W26602   3.804   3.934   1.415  0.0523  0.3981 -0.0530
10469W        W26603  17.084  18.754   0.800  0.0751  0.0718  0.3020
10470W        W26604   5.255  12.834  14.573 -0.2666  0.2189  0.1713
10471W        W26605  17.053   6.036   4.763  0.0543  0.1530  0.0409
10472W        W26606   2.389  17.950   2.847  0.1098 -0.0562  0.2257
10473W        W26607   1.972  12.474   1.461 -0.1443 -0.0755  0.2404
10474W        W26608   9.429  18.051   3.657  0.2233 -0.0187  0.0605
10475W        W26609   1.488  13.457   1.680 -0.2676  0.1820 -0.1358
10476W        W26610  14.734   9.665  13.154  0.0216  0.2913 -0.3476
10477W        W26611   8.305   2.390   5.291 -0.1865 -0.0125  0.3570
10478W        W26612  17.795   2.280  11.819 -0.0215 -0.0844 -0.2236
10479W        W26613   3.209  15.627   3.414 -0.0370 -0.1117 -0.1112
10480W        W26614  10.477   0.872  10.790  0.3452  0.2672 -0.0384
10481W        W26615   8.073  10.647  11.064  0.0654 -0.1622  0.1862
10482W        W26616  12.771  17.246  13.278 -0.1542  0.2599  0.0344
10483W        W26617   2.740   5.581   2.827  0.1197  0.2579 -0.0016
10484W        W26618  17.633   0.861   1.608 -0.0095 -0.0704  0.1855
10485W        W26619  17.922  16.508   1.521 -0.1120 -0.0622 -0.0201
10486W        W26620  12.272   3.524   3.906 -0.0581 -0.1603 -0.1649
10487W        W26621   2.818   4.408   2.290 -0.1904  0.1052 -0.2321
10488W        W26622  18.211  15.362   3.701 -0.3447 -0.1346  0.3142
10489W        W26623   2.397   0.093   4.547  0.0389  0.2020  0.4984
10490W        W26624   3.650   1.315   0.669 -0.0970 -0.4566 -0.1642
10491W        W26625  11.053   4.558  10.769  0.1491 -0.0050 -0.3146
10492W        W26626   8.870   5.482  13.446 -0.0555  0.1011  0.1598
10493W        W26627   5.045   1.496   3.626  0.1629  0.0288 -0.2765
10494W        W26628   4.061  17.426   3.137  0.3121 -0.3201  0.0771
10495W        W26629  18.472  12.400  11.055  0.0803 -0.2685  0.0105
10496W        W26630   6.215   3.240   2.800  0.0401  0.0828 -0.5080
10497W        W26631  13.255  10.340   1.453  0.0917 -0.1860  0.0923
10498W        W26632   3.428  12.082   3.263  0.1837  0.1895 -0.1033
10499W        W26633   7.256  13.558  12.816  0.1209  0.1685 -0.2382
10500W        W26634   4.177  12.273   1.165  0.3204  0.0094 -0.4591
10501W        W26635   4.467   6.823   1.817  0.0240 -0.2096 -0.0026
10502W        W26636   2.950  14.039  14.632 -0.2157 -0.1388 -0.3319
10503W        W26637   8.559   8.279   0.030 -0.2597 -0.1987  0.1042
10504W        W26638  16.974   1.769  11.947  0.2565  0.2093  0.0224
10505W        W26639   6.815   6.617  11.563 -0.0036  0.1619 -0.0069
10506W        W26640   0.284  11.962  14.376  0.0582  0.3890 -0.1939
10507W        W26641  17.897  10.354  13.415 -0.2616 -0.1048  0.0618
10508W        W26642  17.845  18.740   0.210 -0.0868  0.1263  0.6124
10509W        W26643  11.689  13.143  13.554  0.2729  0.0628 -0.1144
10510W        W26644   4.439   6.217   4.175 -0.0830 -0.0268  0.0005
10511W        W26645  11.873   4.579  10.298 -0.2003 -0.1875  0.3642
10512W        W26646  18.249  17.532  13.518 -0.0492  0.1108  0.2967
10513W        W26647   5.986   9.172   3.695  0.2542 -0.1078 -0.1141
10514W        W26648   1.807  18.749  14.959 -0.0753  0.1602 -0.0629
10515W        W26649   6.908   7.888   1.942  0.1474  0.0613  0.0324
10516W        W26650  13.239   4.434  10.772 -0.2709  0.0830  0.3227
10517W        W26651  11.589  18.054   1.817 -0.1125  0.1516 -0.0702
10518W        W26652  12.712  13.577  14.006  0.0246 -0.1398 -0.2775
10519W        W26653   2.224   9.350  10.408 -0.2460  0.3913 -0.0623
10520W        W26654   4.980   6.230   3.393  0.4114  0.3525  0.1182
10521W        W26655   0.674  11.111  13.963 -0.0059 -0.2110 -0.0875
10522W        W26656   5.915   3.094   0.091 -0.1142  0.0636 -0.1584
10523W        W26657   8.912  15.930   3.192 -0.2414  0.0865  0.0957
10524W        W26658   8.581  16.198   0.028 -0.2221  0.0717 -0.0615
10525W        W26659  10.055  16.550   0.809 -0.1507  0.0315 -0.2534
10526W        W26660  14.184   9.190  11.361 -0.0120 -0.3580  0.1703
10527W        W26661   7.873  14.541   1.815 -0.1532 -0.0523  0.1074
10528W        W26662   4.159   2.893   5.312 -0.2198 -0.0130  0.0608
10529W        W26663  18.569  11.254   1.230 -0.1001  0.2576  0.0478
10530W        W26664  12.258   7.224  12.166  0.1607  0.0170 -0.0568
10531W        W26665   8.168  17.781   0.890  0.3974  0.1878 -0.0355
10532W        W26666   1.447  15.909   0.511  0.0445 -0.0773  0.0075
10533W        W26667  14.343   1.470  14.531 -0.1375 -0.0293  0.0666
10534W        W26668  12.274  18.072   3.510 -0.1099  0.0408 -0.1144
10535W        W26669   6.699   6.675  13.653 -0.3132 -0.2604  0.0985
10536W        W26670   7.109   4.056   2.155  0.0337 -0.2202  0.4311
10537W        W26671   6.252   1.604   2.033  0.0110 -0.5518 -0.0539
10538W        W26672  10.372  16.002  12.061  0.4123  0.2001 -0.1966
10539W        W26673  12.958   2.198   0.388 -0.0047 -0.2327  0.2894
10540W        W26674  13.176   6.764   1.402 -0.1983 -0.2393  0.1361
10541W        W26675   1.398  19.025  14.762 -0.2011 -0.3122  0.1033
10542W        W26676   8.125  11.305  11.642 -0.0833 -0.0994 -0.1346
10543W        W26677   9.229  11.875  13.438  0.3194 -0.1532 -0.0697
10544W        W26678   3.624   4.026  12.343 -0.1067 -0.4066  0.3452
10545W        W26679   9.838   2.616  13.563 -0.0582 -0.2069  0.4202
10546W        W26680  10.463  10.007   1.013  0.1542  0.1395 -0.2418
10547W        W26681   5.702  18.895  12.543 -0.0802  0.1376  0.0878
10548W        W26682  11.907  15.776   0.999 -0.0155 -0.1508  0.1057
10549W        W26683   4.767   5.018  12.230  0.3050 -0.0703  0.2153
10550W        W26684  12.505   4.950  14.099  0.0531  0.4340 -0.3217
10551W        W26685   1.531  13.682   5.033  0.2578 -0.0242 -0.2226
10552W        W26686  18.403  15.832  11.029  0.1512  0.1274 -0.2015
10553W        W26687   1.130  18.605  11.217 -0.1404 -0.1034 -0.0987
10554W        W26688   1.166  10.461   0.918  0.4037  0.0286 -0.2265
10555W        W26689   5.804   7.553   1.826 -0.1873 -0.0184  0.2985
10556W        W26690   3.390  18.864   3.731 -0.0951  0.1010  0.2450
10557W        W26691   3.049  15.059   1.808 -0.1019  0.1263 -0.2561
10558W        W26692   9.628  15.252  12.472  0.2920 -0.2523  0.0154
10559W        W26693   7.390  17.855   3.681 -0.0784  0.1633 -0.1669
10560W        W26694  10.544  14.174  14.102  0.3529 -0.0901  0.2102
10561W        W26695  11.348  15.106  14.167  0.2679 -0.3331 -0.0092
10562W        W26696   5.622  18.499  14.241  0.3694  0.1904 -0.2641
10563W        W26697   1.623  17.931  12.439 -0.3027  0.3868 -0.2900
10564W        W26698   6.668  15.172   1.884 -0.0863  0.1126  0.1617
10565W        W26699  13.296   2.258   2.707  0.1440 -0.2066 -0.0526
10566W        W26700   3.692  12.332   3.696 -0.2063  0.2716 -0.0063
10567W        W26701   6.667   1.068   0.326  0.0080  0.2561  0.1380
10568W        W26702   2.911   8.964  10.412 -0.0332  0.2550  0.0519
10569W        W26703  11.602   6.608  10.689 -0.0747 -0.1427 -0.0932
10570W        W26704   1.310   5.253   0.393  0.1283 -0.1941 -0.1228
10571W        W26705   3.906  10.384   0.849  0.1047  0.1835 -0.2392
10572W        W26706  13.208  13.086  10.634 -0.1225 -0.0371  0.0822
10573W        W26707   2.018   0.659   5.082  0.0949  0.0094 -0.0452
10574W        W26708   3.150   8.932   1.648 -0.1408 -0.0354  0.0562
10575W        W26709  18.247   4.314  11.071  0.0893 -0.2653  0.0260
10576W        W26710   9.859  16.597  12.861  0.1050  0.0729 -0.2116
10577W        W26711   6.441  15.092  14.025  0.0071  0.0016  0.3088
10578W        W26712  15.145  17.687   0.631 -0.1030  0.2344  0.0254
10579W        W26713  17.803   8.018   5.933  0.0422 -0.0060 -0.1625
10580W        W26714   4.943  13.479  13.656  0.0509  0.0637 -0.1439
10581W        W26715   6.622   9.458  11.696  0.4302 -0.1493 -0.1145
10582W        W26716   6.218   7.237   1.964  0.2187 -0.1218 -0.1346
10583W        W26717  17.201   6.406  13.738 -0.2059  0.4865 -0.1075
10584W        W26718  13.480  16.106  12.764  0.3381  0.1574  0.0011
10585W        W26719   2.569  17.673  11.190  0.1858  0.0837  0.0324
10586W        W26720   7.030   1.418  15.014  0.0554  0.0789 -0.3173
10587W        W26721   7.869  14.429  12.151 -0.1096 -0.2071 -0.0982
10588W        W26722  13.954   1.172   4.678  0.4550 -0.0400 -0.0024
10589W        W26723  14.558   3.395  14.167  0.1693 -0.0524  0.1831
10590W        W26724  14.145  17.492   5.067 -0.3049  0.1080  0.0386
10591W        W26725  19.134  12.461  12.718  0.4920 -0.1823  0.2195
10592W        W26726   2.243   7.823  12.858  0.1263  0.0072  0.1552
10593W        W26727  13.904   9.893  12.478 -0.3340  0.1645 -0.2315
10594W        W26728  18.371  16.077   1.557 -0.0224  0.2563 -0.0900
10595W        W26729   4.396   6.454  10.281 -0.2152  0.1431 -0.2550
10596W        W26730   5.993  15.378  14.329  0.1734 -0.3839 -0.0081
10597W        W26731  14.387   2.279  13.114 -0.0352  0.0642  0.0670
10598W        W26732   6.004   7.898   1.405  0.0285 -0.3904  0.2992
10599W        W26733  10.384  18.725  12.711 -0.0852  0.2127 -0.0336
10600W        W26734   8.694   2.192   1.863 -0.1232  0.1127  0.1854
10601W        W26735  12.030   7.897   4.344  0.0573  0.1387  0.0544
10602W        W26736   1.048  10.091  12.015 -0.0448 -0.0076 -0.0089
10603W        W26737   0.574   8.288   1.664  0.3601  0.1044  0.2476
10604W        W26738  13.818  14.181  10.574  0.1402  0.2841 -0.0769
10605W        W26739  16.364   5.073  14.966  0.0207 -0.2000  0.1747
10606W        W26740   7.772  14.562  14.695 -0.0640 -0.1192 -0.1241
10607W        W26741   0.894  15.728  10.419  0.1559 -0.0035  0.1036
10608W        W26742  12.055  16.835  14.350 -0.2470  0.0426 -0.0574
10609W        W26743   7.584   0.752   2.929  0.0935  0.2194 -0.2040
10610W        W26744   2.520   3.453  10.319 -0.4584 -0.1629  0.0638
10611W        W26745  13.024  16.925   4.319 -0.4201  0.0383 -0.1799
10612W        W26746   4.945   5.468  11.383 -0.1164  0.0228 -0.2264
10613W        W26747  14.299   8.116  12.000 -0.2763  0.2089 -0.0316
10614W        W26748   5.682   6.662   5.048 -0.1006 -0.1323  0.1453
10615W        W26749   3.080   1.271  13.990 -0.2458  0.1343  0.0578
10616W        W26750  15.032  13.162  14.254  0.1189  0.2667 -0.0254
10617W        W26751  11.560   0.821  12.176  0.2542  0.0068 -0.2223
10618W        W26752  13.854   3.690   4.332  0.3520 -0.0115 -0.1423
10619W        W26753   4.026   8.411  14.180  0.0961  0.3423 -0.0711
10620W        W26754   3.789   9.631   2.987 -0.0589  0.3692 -0.0123
10621W        W26755   8.444  12.107   3.451  0.0856 -0.2184  0.0560
10622W        W26756   4.132   5.750   4.588  0.0790  0.0631  0.0255
10623W        W26757  11.015  14.381   0.279  0.0462 -0.0540  0.0856
10624W        W26758   7.376  12.765   3.742  0.3935 -0.2124 -0.0687
10625W        W26759   0.003   4.976   3.264 -0.1429  0.0311  0.0603
10626W        W26760  13.190   9.254  14.404 -0.0548 -0.0475  0.0606
10627W        W26761  18.838   0.441  14.537  0.0444 -0.0771 -0.1452
10628W        W26762   2.754   1.991   2.923  0.0718  0.1768 -0.0522
10629W        W26763  17.626  12.557   2.733 -0.1077 -0.2613 -0.2507
10630W        W26764  10.039  13.268  14.339  0.0044  0.0673  0.0855
10631W        W26765  13.238  17.823  10.114  0.1690 -0.0940  0.3176
10632W        W26766   4.902  16.784  14.749  0.2954  0.0293  0.5931
10633W        W26767  10.154  11.703  12.637 -0.2271  0.1782 -0.1513
10634W        W26768  18.444  13.392  12.542 -0.2458  0.4304 -0.0260
10635W        W26769  13.699   0.154   2.897 -0.0018 -0.1868  0.0740
10636W        W26770   7.195  17.544   1.100 -0.2593 -0.0969 -0.1703
10637W        W26771  18.651   6.174  11.423 -0.2923  0.0357 -0.3383
10638W        W26772  13.109   8.235  12.084  0.0107 -0.2058  0.0577
10639W        W26773   1.429   7.008   4.280 -0.1762  0.0884 -0.0348
10640W        W26774   4.910  11.607   1.378 -0.0757 -0.1070 -0.0518
10641W        W26775   7.333   7.829  12.941  0.0867  0.1601  0.1492
10642W        W26776   7.347   3.911  13.799  0.1181 -0.0275 -0.3556
10643W        W26777   5.157   0.521  13.268 -0.3779 -0.1445  0.0143
10644W        W26778   9.100  15.205   0.495  0.0416 -0.2234 -0.1437
10645W        W26779   8.068  14.986  13.530  0.2373  0.2019  0.0612
10646W        W26780   4.972  11.676   0.841 -0.0399  0.1768 -0.3897
10647W        W26781  14.230   5.341   4.565 -0.3144 -0.0753  0.1084
10648W        W26782  14.092   1.522  12.609  0.0055 -0.0631 -0.2246
10649W        W26783   5.133  14.598  10.913  0.2188  0.4760  0.2668
10650W        W26784   2.208   7.034  11.320 -0.0189  0.4618  0.3131
10651W        W26785  15.864  17.097   2.843 -0.1670  0.0005  0.0383
10652W        W26786   0.474   6.979   1.179 -0.0409  0.1134  0.0437
10653W        W26787   7.190  14.011  14.083 -0.2198 -0.1201  0.2266
10654W        W26788   0.265  18.505   3.314  0.0633 -0.3175 -0.3800
10655W        W26789  13.497  15.449   1.764 -0.1900  0.1578  0.2496
10656W        W26790  13.306   1.845   2.907  0.0910  0.2953  0.2423
10657W        W26791  14.105  16.794   2.321  0.1422  0.0492 -0.2510
10658W        W26792   6.578  15.737   3.103 -0.1758 -0.0843 -0.2440
10659W        W26793   6.613  14.742   0.651 -0.2223  0.0900 -0.3604
10660W        W26794   3.263   2.798   5.634 -0.3808  0.3077 -0.1278
10661W        W26795  12.287  17.515  10.386  0.0392 -0.0491  0.0474
10662W        W26796   7.430   1.251  12.501 -0.4328  0.1432  0.1612
10663W        W26797  18.009   9.903  11.168  0.0180 -0.1772 -0.1335
10664W        W26798   1.431   7.494   3.515 -0.1529  0.2469 -0.2762
10665W        W26799  13.089  18.349   0.073  0.0979  0.3626  0.0325
10666W        W26800   8.838   4.671  14.495 -0.1015  0.1407 -0.0267
10667W        W26801  18.455   2.346   5.406  0.0407  0.4281 -0.1071
10668W        W26802   9.146   5.629  14.646  0.1897  0.1929 -0.2459
10669W        W26803   3.357   3.095   4.379 -0.1760 -0.1795 -0.2535
10670W        W26804   8.388  16.917  13.956 -0.1659 -0.1318  0.0363
10671W        W26805   3.683  18.931  14.740  0.0215 -0.0011  0.3420
10672W        W26806  18.801   4.087  10.449 -0.2164 -0.2671 -0.1877
10673W        W26807  17.174  11.521   4.184 -0.1473  0.0157  0.0281
10674W        W26808  13.983  11.534  14.192 -0.0853 -0.3209  0.0389
10675W        W26809  11.448   2.599   2.894  0.0432  0.1516  0.0091
10676W        W26810   1.207   0.700   1.150  0.2214 -0.0323 -0.1088
10677W        W26811   7.418   7.186   2.450  0.3617  0.1671 -0.3060
10678W        W26812   8.339   6.133  12.298  0.1956 -0.3163  0.3665
10679W        W26813   5.487   7.846   0.471 -0.1298  0.2244 -0.0501
10680W        W26814  11.623  15.474  13.547  0.0407  0.0847 -0.1507
10681W        W26815  15.510   8.514  11.009 -0.0079 -0.3583 -0.1057
10682W        W26816  18.785   3.038  10.929  0.2682  0.1191 -0.1384
10683W        W26817   3.666   0.062   2.452  0.0825 -0.2814 -0.3611
10684W        W26818  10.775  13.082  11.267  0.0230 -0.2964  0.2391
10685W        W26819   1.384   3.533  10.499  0.0670  0.0999 -0.1303
10686W        W26820   8.003   7.290  13.800  0.0519  0.1710  0.1339
10687W        W26821   2.835   9.805   3.475  0.0338  0.1084  0.0922
10688W        W26822  14.916  13.088  14.989 -0.2461  0.3474 -0.5554
10689W        W26823   1.764  10.661   9.848 -0.1057 -0.0912 -0.2998
10690W        W26824   3.599   3.007  11.246 -0.0307 -0.5532  0.0037
10691W        W26825   4.295   8.979   2.799 -0.3270  0.1648 -0.2512
10692W        W26826  15.983  10.584  11.396 -0.4464  0.4437  0.0107
10693W        W26827   3.016  10.812  11.799 -0.2662  0.1937 -0.0136
10694W        W26828   7.549   2.657   2.418 -0.0484 -0.3762  0.1748
10695W        W26829   7.552   1.060  10.610 -0.2571 -0.2014 -0.0182
10696W        W26830   6.483   3.943  14.782 -0.4437  0.1264 -0.0134
10697W        W26831   5.070  18.411  12.177 -0.4044  0.2296  0.1463
10698W        W26832   1.417  10.013   4.871  0.2950  0.2244  0.1036
10699W        W26833   4.007  10.308  11.316  0.2478  0.1184 -0.0695
10700W        W26834  18.152   9.783   5.022  0.1195 -0.1998 -0.0944
10701W        W26835  16.706  16.455  11.245  0.1829  0.2062  0.2518
10702W        W26836  19.110  14.722  14.247  0.1156  0.2007  0.1090
10703W        W26837  17.266   8.676  14.560 -0.2450  0.3682  0.0791
10704W        W26838   4.989   0.295   4.278 -0.4811 -0.5413  0.1635
10705W        W26839  14.331   9.398   3.783  0.0944 -0.3125  0.2331
10706W        W26840  17.821   5.206  14.144 -0.3789 -0.2784 -0.1256
10707W        W26841   5.849  15.274  12.460 -0.1835 -0.0079 -0.0076
10708W        W26842  17.085  13.840  11.500  0.0479 -0.1228 -0.1407
10709W        W26843   5.345  14.032   1.650  0.1298  0.3206 -0.2975
10710W        W26844  13.069  12.516  13.425  0.0659  0.4114  0.1542
10711W        W26845   3.652  16.661  10.520 -0.2309  0.1557 -0.2108
10712W        W26846   3.484   9.766   1.050  0.0003  0.0523  0.2579
10713W        W26847  11.379  18.763  12.683  0.0293  0.1397 -0.0110
10714W        W26848  18.139  17.190  14.730  0.2705  0.0816  0.0661
10715W        W26849   1.056  11.090  11.343  0.5028  0.1389 -0.0339
10716W        W26850  15.614   4.960   2.342  0.0093 -0.1223  0.0134
10717W        W26851   3.902  13.813   5.073 -0.0247  0.1178 -0.1023
10718W        W26852   0.844  17.285  10.910 -0.2294 -0.3092  0.1911
10719W        W26853  18.911  17.186   2.593  0.0503 -0.0952 -0.0055
10720W        W26854  11.850   1.552  12.648 -0.1011  0.0136 -0.0030
10721W        W26855  10.240  18.874  11.556 -0.1488 -0.1160  0.0715
10722W        W26856  15.423  10.114   4.581 -0.1298 -0.0323  0.1098
10723W        W26857   3.081   3.622   3.789 -0.4093  0.4161 -0.2724
10724W        W26858  13.103  11.254  11.576  0.0501 -0.0471  0.0462
10725W        W26859  14.477  13.261   4.517  0.3354  0.4051  0.0815
10726W        W26860   3.817  10.143   3.040  0.1448 -0.0849 -0.0669
10727W        W26861   1.466  17.049   4.907 -0.1933 -0.1250  0.1833
10728W        W26862   2.227  16.338   2.040 -0.3691  0.2287 -0.1110
10729W        W26863   9.246  13.065  12.692 -0.1411 -0.0723  0.0917
10730W        W26864  16.877  15.834   1.862 -0.1264 -0.3621 -0.4958
10731W        W26865  11.303  18.018   5.063 -0.1707 -0.2907  0.0220
10732W        W26866  18.107   8.190  11.462  0.1713 -0.0764 -0.1766
10733W        W26867  13.360  17.441  13.347  0.1276  0.0817 -0.1157
10734W        W26868   3.104  15.006   0.938 -0.0316  0.3099  0.0553
10735W        W26869   7.106   6.590   4.390 -0.1959  0.0114  0.1349
10736W        W26870  13.299  17.122  11.257 -0.4995 -0.1501 -0.0864
10737W        W26871   2.858   2.976  11.116  0.4892 -0.0714 -0.0761
10738W        W26872   6.669  16.521   4.784  0.1380 -0.0794  0.1705
10739W        W26873   1.112   3.014   4.675 -0.1462  0.2610  0.0863
10740W        W26874  14.556  16.587  14.449  0.1008 -0.0663  0.3121
10741W        W26875  19.216   1.005   2.534  0.0410 -0.1572 -0.0307
10742W        W26876   8.220   3.826  14.503  0.1681  0.2865  0.0585
10743W        W26877   8.502   3.880  10.663 -0.0365  0.1181  0.2601
10744W        W26878   0.273   7.529  12.210 -0.2713  0.2823 -0.3078
10745W        W26879   2.636   8.035   3.061  0.0708 -0.3787  0.0133
10746W        W26880   5.176  11.473   2.131 -0.0206  0.3229  0.0471
10747W        W26881  12.482   8.351  13.748  0.3966  0.0185 -0.0896
10748W        W26882  16.705   2.049   0.113  0.1879  0.2039  0.0550
10749W        W26883  11.092   5.714   1.728  0.1537  0.0041  0.0046
10750W        W26884   2.065  10.305   1.139  0.1036  0.1710  0.2703
10751W        W26885   3.092   0.556  12.278  0.0802  0.0775  0.2302
10752W        W26886  11.365   4.025  14.281  0.2390 -0.1029 -0.0397
10753W        W26887   8.830   9.127  14.748  0.3575 -0.2566 -0.1995
10754W        W26888   1.602   4.467   0.911  0.2306 -0.2046 -0.0775
10755W        W26889  11.907  14.024   3.184  0.0494 -0.0347  0.1203
10756W        W26890   0.324  16.184   4.012  0.1491 -0.0907  0.0649
10757W        W26891   8.675   7.385  12.500 -0.2286 -0.1883  0.1311
10758W        W26892  14.980  15.088  13.033 -0.0364  0.1212  0.3574
10759W        W26893  18.682   7.675   4.201 -0.0213  0.0964 -0.0723
10760W        W26894  15.408  17.503   2.782 -0.0474 -0.2493 -0.1805
10761W        W26895   0.970  16.093   2.835  0.1077  0.1492  0.0498
10762W        W26896  12.467  18.629  12.858 -0.1086  0.2237  0.1897
10763W        W26897  12.594  10.603  10.522  0.2263 -0.0033 -0.1762
10764W        W26898  12.783  14.722  12.419 -0.1587  0.0989 -0.2986
10765W        W26899  16.256  11.217  12.100  0.0434 -0.0553 -0.1812
10766W        W26900  15.143  13.671  13.677 -0.1108 -0.1024  0.1567
10767W        W26901   3.929   8.214   4.367 -0.0739 -0.3502  0.1600
10768W        W26902  17.437   5.290  13.044 -0.1669 -0.0386  0.1577
10769W        W26903  18.929  13.087   1.298 -0.2080 -0.2270  0.1049
10770W        W26904   4.003   0.834  10.380  0.1079  0.0470 -0.1598
10771W        W26905   2.466   4.397  13.837  0.2459 -0.0892  0.2059
10772W        W26906   8.363  10.907   3.077  0.0451 -0.2675  0.1343
10773W        W26907  12.895  18.490  12.397 -0.1050  0.0154 -0.2882
10774W        W26908   3.109  13.514   5.215  0.2887  0.0135  0.2149
10775W        W26909   7.167  10.411   5.386  0.1511  0.0469 -0.0645
10776W        W26910  13.402   6.833  14.609  0.3179  0.0431 -0.1549
10777W        W26911  18.678   4.745  12.266 -0.4087  0.1463 -0.1450
10778W        W26912   0.072   0.935  10.728 -0.0342  0.0231  0.0766
10779W        W26913  16.875   9.170   1.058 -0.0735  0.0534  0.1038
10780W        W26914  16.037  18.588   3.442 -0.4568  0.1898 -0.1291
10781W        W26915   6.757   4.880  11.369 -0.0503  0.0925 -0.0672
10782W        W26916   3.216   1.352   1.048  0.0792 -0.0641  0.3780
10783W        W26917  18.441   1.558   2.210  0.0998  0.0698  0.0204
10784W        W26918  15.921  11.670  14.338  0.1850  0.0044  0.1251
10785W        W26919   1.970   0.433  10.864  0.1361  0.2878 -0.3134
10786W        W26920   4.036  11.515  13.243  0.1123 -0.0311  0.1225
10787W        W26921   8.443  15.611   4.949 -0.0470  0.1856 -0.2829
10788W        W26922  13.074  18.009   2.836 -0.0046  0.1479  0.0427
10789W        W26923  11.522   2.899   9.625 -0.1050 -0.1105  0.0254
10790W        W26924  16.985   7.116   2.267  0.2623  0.5074 -0.0125
10791W        W26925   8.791   9.251   1.008  0.3870 -0.0145 -0.2055
10792W        W26926  19.084   2.073   4.426 -0.1497  0.4408 -0.1058
10793W        W26927   3.060  15.941   9.191 -0.1319 -0.0613  0.0404
10794W        W26928  17.258  11.493  13.978 -0.3050  0.4201  0.0160
10795W        W26929   0.960   3.027  14.245  0.0270 -0.2312  0.2232
10796W        W26930   4.418  10.613  12.958 -0.2383 -0.3508  0.3957
10797W        W26931   3.478  12.020   1.693  0.2840  0.2361 -0.2399
10798W        W26932   9.162  17.198   2.536  0.1533 -0.2567 -0.5352
10799W        W26933  15.058   3.799   0.891  0.0356  0.1505  0.3226
10800W        W26934  12.421   5.873  13.268 -0.1265 -0.0825 -0.0736
10801W        W26935  15.622   5.752  10.363  0.1220  0.1051 -0.0446
10802W        W26936  14.614  11.363   2.398  0.3575  0.1059 -0.0696
10803W        W26937  13.585  17.105  10.413  0.0279 -0.1859 -0.0557
10804W        W26938   7.093  15.144   3.215  0.3006  0.2671 -0.2442
10805W        W26939   9.433   1.617   1.464  0.0365 -0.1825  0.0900
10806W        W26940  13.423  19.136   3.807  0.0806 -0.1734 -0.3086
10807W        W26941   6.643  11.756   0.415 -0.0954 -0.1959 -0.3075
10808W        W26942   4.260   3.226   2.690 -0.0951  0.0186 -0.1548
10809W        W26943  11.730  13.904  12.946  0.3313  0.0837 -0.4069
10810W        W26944  12.782  12.200   3.847  0.3103  0.2617 -0.2977
10811W        W26945   5.868  12.515  12.392 -0.0910  0.0939  0.1316
10812W        W26946   7.531  13.053  10.572  0.0004  0.0189 -0.0498
10813W        W26947   2.335   1.365  12.088  0.3355 -0.0825 -0.0436
10814W        W26948  12.177   9.118   3.030  0.0660 -0.4625  0.3837
10815W        W26949  15.935   2.918   2.928  0.2728  0.0169 -0.2193
10816W        W26950  10.376   1.637  13.511  0.0572 -0.2037  0.0122
10817W        W26951  12.042  14.267  11.847  0.2393 -0.0488  0.2535
10818W        W26952   3.164   0.213  12.656 -0.0034  0.0499 -0.1891
10819W        W26953   6.332   9.987   1.540  0.0139  0.1685 -0.0751
10820W        W26954   0.033   2.528  11.545  0.1496 -0.6431  0.0002
10821W        W26955   2.880   6.662  11.963 -0.2559 -0.1673  0.0235
10822W        W26956   9.691  11.167   0.656  0.1861 -0.1308  0.1410
10823W        W26957   1.633   4.398   4.142  0.1149  0.0485 -0.0279
10824W        W26958   4.490   0.663   0.002 -0.0759  0.2382 -0.3512
10825W        W26959  17.826   2.113  10.970 -0.0508  0.0518 -0.4288
10826W        W26960  15.681  11.755  13.780  0.0360  0.0524 -0.1363
10827W        W26961   8.076  13.521   3.039  0.2671  0.1752  0.1416
10828W        W26962   4.569   0.033  11.886  0.0525 -0.1101  0.3079
10829W        W26963  15.421   3.147  11.201 -0.2527 -0.1728  0.1760
10830W        W26964   3.348  19.193  11.863  0.3994 -0.2708 -0.2527
10831W        W26965  10.175   1.019   3.797  0.0002  0.1793  0.0202
10832W        W26966  16.821  10.547   0.124 -0.1736 -0.1135 -0.4125
10833W        W26967  11.456   5.734  11.026  0.3864  0.4763 -0.1088
10834W        W26968   5.378   0.855   9.466 -0.2851 -0.4827  0.2259
10835W        W26969   6.954  15.752   4.455  0.0123 -0.0800 -0.3376
10836W        W26970  16.224  18.799  14.360 -0.0426 -0.1204  0.2342
10837W        W26971  11.052  14.213  14.331  0.1851  0.0406  0.0694
10838W        W26972   8.498   6.952  12.102  0.1194  0.1099  0.0798
10839W        W26973   7.598   8.457   5.084  0.1569  0.4149  0.3354
10840W        W26974  17.035   6.280  12.261 -0.3404 -0.1726  0.0412
10841W        W26975  17.470   1.601  14.259 -0.2415  0.2064 -0.0218
10842W        W26976   0.736   1.883  14.981  0.2422  0.1487 -0.2668
10843W        W26977   0.643   5.822  11.819  0.0677  0.0284  0.0832
10844W        W26978   9.036   5.779  11.767 -0.0619 -0.1119  0.2634
10845W        W26979   9.128  16.394   1.933  0.0962 -0.4564 -0.2952
10846W        W26980  14.485  15.012   3.449  0.3435  0.1828 -0.0682
10847W        W26981  18.307   2.895   1.859  0.0929  0.1803 -0.1075
10848W        W26982  15.536  18.585   5.187  0.2427  0.2085 -0.0873
10849W        W26983   0.060   0.791  13.238 -0.0624 -0.2568 -0.1321
10850W        W26984  15.177  14.577   1.979  0.1248 -0.3059 -0.0768
10851W        W26985   2.574  16.237   0.005  0.1294 -0.3328  0.3514
10852W        W26986   4.024  13.954  11.633 -0.0411  0.1896 -0.0208
10853W        W26987  10.800  12.713  14.394  0.0333  0.0697  0.1427
10854W        W26988   4.510   0.806   0.487 -0.2375 -0.0223 -0.1806
10855W        W26989   4.553  10.200   3.728 -0.0020  0.0271  0.0885
10856W        W26990   4.296   6.348   1.913  0.4248  0.2627  0.1424
10857W        W26991  17.249   2.216   3.052 -0.3147  0.1603  0.1548
10858W        W26992  11.682   2.960  14.227 -0.1287 -0.3540  0.3378
10859W        W26993  17.623   3.245  11.891 -0.0643 -0.0864 -0.1203
10860W        W26994   4.662  11.310   0.342 -0.2135 -0.0548  0.0560
10861W        W26995   2.574  13.434  14.625  0.0403  0.1501 -0.2105
10862W        W26996  10.799   8.175  10.326 -0.2246  0.3419 -0.2660
10863W        W26997  14.359   3.873   1.183 -0.0989 -0.2455  0.0859
10864W        W26998  14.144  14.465  13.154 -0.2927 -0.0370 -0.0227
10865W        W26999  16.411   7.509  10.404 -0.1719 -0.1471 -0.0677
10866W        W27000   4.440  13.650   1.974  0.1580 -0.0567 -0.2574
10867W        W27001  17.452   6.447   3.328  0.2020 -0.0005 -0.2541
10868W        W27002   8.718   5.192  10.181  0.3327 -0.1540  0.1625
10869W        W27003   3.490  16.105  10.744 -0.0484 -0.0041  0.2073
10870W        W27004   9.513   5.995  11.671 -0.5155  0.0136 -0.1571
10871W        W27005   7.751  11.182   0.880 -0.1732 -0.1113 -0.0145
10872W        W27006  14.102  18.007   0.757  0.0380  0.1777  0.0255
10873W        W27007  14.064   9.446   1.445  0.0670 -0.0291  0.2585
10874W        W27008  11.197   7.947   3.765  0.1146  0.2105  0.1880
10875W        W27009   1.866  12.032   1.188  0.1132  0.1137  0.6181
10876W        W27010  17.127   3.698  10.106  0.2779  0.2656 -0.0210
10877W        W27011  13.620   2.022  11.151 -0.0853  0.1368  0.1967
10878W        W27012   3.969   5.131  10.936 -0.1832 -0.0655 -0.0872
10879W        W27013   4.147  10.689  13.379  0.2736  0.0363  0.3266
10880W        W27014   0.416  17.180   4.908 -0.0681  0.1086 -0.4123
10881W        W27015  19.017  17.923   3.764  0.1859 -0.3348 -0.3977
10882W        W27016   1.771   5.668  11.787 -0.1193 -0.0396  0.3081
10883W        W27017   7.577   1.354  11.126  0.1713  0.0676 -0.0591
10884W        W27018  16.052   1.538   0.607 -0.1008 -0.1524 -0.0905
10885W        W27019  17.513  13.443   3.217 -0.1497  0.1347  0.0502
10886W        W27020  12.221  15.055   2.205 -0.1030  0.2724 -0.2460
10887W        W27021   7.773  11.294   1.415 -0.1108  0.0665  0.2367
10888W        W27022   7.821   6.414   1.896  0.2607  0.0924 -0.0047
10889W        W27023   8.126   7.700   2.960 -0.2920 -0.4605 -0.1812
10890W        W27024   3.973  18.664   1.739  0.0283 -0.2777  0.3179
10891W        W27025  17.649  10.363  10.491  0.1336  0.2213 -0.1768
10892W        W27026   8.957  11.970   2.766 -0.1008 -0.1018 -0.0026
10893W        W27027   1.312   8.297  10.782  0.2929  0.2603 -0.0737
10894W        W27028   0.991  12.792  14.466  0.1102 -0.1433  0.1262
10895W        W27029   3.254  11.818   4.954  0.0241 -0.2138  0.4795
10896W        W27030   4.156  11.245   3.154 -0.1136  0.0249 -0.2010
10897W        W27031  12.768   9.510   4.715 -0.2143 -0.0318  0.0452
10898W        W27032   8.933  12.230   2.275  0.1621  0.0080 -0.1120
10899W        W27033   9.617   2.332   0.860  0.0169  0.2736  0.0919
10900W        W27034  14.662  16.183  13.452 -0.2774  0.2762 -0.0116
10901W        W27035   8.235  12.151   2.973  0.1452 -0.0267  0.1465
10902W        W27036   2.019   6.746   3.100 -0.0250 -0.0191 -0.1270
10903W        W27037   3.921   5.977  11.766  0.0757 -0.0760  0.0680
10904W        W27038  15.286  13.371   4.882 -0.0368 -0.2891  0.0809
10905W        W27039  15.674   1.262   3.496 -0.1104 -0.0832  0.1616
10906W        W27040   7.522   3.466  14.521  0.0075  0.4187  0.1334
10907W        W27041   5.623   7.525  12.541 -0.1819 -0.1176 -0.0411
10908W        W27042   4.232   7.496  10.573  0.1634 -0.0907 -0.0214
10909W        W27043   0.022  16.674   0.677  0.1616 -0.0880  0.3592
10910W        W27044   0.307   3.798   9.613  0.3631  0.1118 -0.3078
10911W        W27045   5.586   3.682  13.788  0.0078 -0.1426 -0.2461
10912W        W27046   7.989  15.322  14.758  0.1534 -0.2885 -0.3173
10913W        W27047  17.708  11.768  10.744 -0.1387  0.2056  0.2139
10914W        W27048  11.483  10.605  14.491 -0.1658 -0.2605  0.1873
10915W        W27049  12.971  10.680   3.295  0.1467  0.2372  0.2708
10916W        W27050   3.364  16.022   0.968 -0.0054  0.5333 -0.0155
10917W        W27051   3.598   3.003  14.583  0.1207  0.0401 -0.2188
10918W        W27052   5.495  18.451  10.600  0.0091  0.1161 -0.0690
10919W        W27053  16.070   0.727   0.801 -0.1230  0.0779 -0.1054
10920W        W27054  16.473  11.782   3.853  0.1579 -0.0914  0.2896
10921W        W27055  14.249   6.998   3.655  0.1902  0.1872 -0.0020
10922W        W27056   3.546  13.382   4.555 -0.0337  0.2644  0.0790
10923W        W27057  15.513   2.330   2.478  0.0248  0.1339  0.0327
10924W        W27058   7.389   1.798   3.456  0.2681 -0.1899  0.2857
10925W        W27059   6.728   2.809   2.053  0.0102  0.0626 -0.1427
10926W        W27060   7.846  12.736   3.624 -0.3245  0.1289 -0.1029
10927W        W27061  10.238  16.861  12.698  0.0811  0.0284  0.0933
10928W        W27062  16.850   1.044  12.419 -0.1617  0.1413  0.1981
10929W        W27063  10.524   7.004   1.016 -0.2822  0.0123 -0.3220
10930W        W27064  15.545  13.666   4.052  0.2364  0.1071 -0.0018
10931W        W27065   2.257  15.999   0.434  0.2060 -0.1810  0.1695
10932W        W27066   5.034   8.120   0.635  0.1511  0.0563 -0.1237
10933W        W27067  14.820  15.889   3.362  0.0073  0.2027 -0.2184
10934W        W27068  19.172   2.409  10.194 -0.0449 -0.0450  0.0699
10935W        W27069   6.390  15.600   4.417  0.1646 -0.0221  0.1442
10936W        W27070  15.222  15.601  12.819 -0.0764  0.1903  0.2194
10937W        W27071   8.028   0.069  13.626 -0.2933 -0.0240  0.1361
10938W        W27072   1.394  14.086   1.938  0.0691 -0.1057  0.0237
10939W        W27073  17.717  11.507   4.040 -0.1696 -0.2064  0.0215
10940W        W27074   1.376  13.616   2.154  0.0601 -0.1669  0.1428
10941W        W27075   5.285   5.204  12.329  0.2180  0.2050 -0.0622
10942W        W27076  17.598  13.947  14.363  0.1294 -0.1646  0.1774
10943W        W27077   1.325   1.551   4.820 -0.0958  0.0333  0.0023
10944W        W27078  14.797   2.127   5.396 -0.0340 -0.0003 -0.0670
10945W        W27079   2.974  11.167  12.954 -0.2481  0.1737  0.0463
10946W        W27080  13.480   8.029  13.804  0.1000 -0.0740 -0.0790
10947W        W27081   0.236  17.444  11.156  0.1558 -0.3863 -0.2769
10948W        W27082  15.566   7.507  10.235 -0.2817 -0.2702  0.0854
10949W        W27083  17.184   7.538  13.019  0.0145 -0.1739 -0.0307
10950W        W27084  14.189   9.146  14.387  0.1333 -0.2317 -0.4334
10951W        W27085  12.681   2.638  11.843 -0.1388 -0.0906  0.0583
10952W        W27086   1.818   2.863   1.537  0.1210 -0.0646 -0.0221
10953W        W27087  10.113   8.443   2.432 -0.1050  0.2317  0.0052
10954W        W27088  12.893   4.140  12.721 -0.1122  0.1435  0.0587
10955W        W27089  14.054  14.387  10.990  0.2461  0.3989  0.0967
10956W        W27090   4.593   7.216  12.881  0.1074  0.1346 -0.0525
10957W        W27091   7.300  17.766   4.876 -0.0759  0.4228 -0.2959
10958W        W27092  12.377  10.035   1.419  0.0854 -0.2539 -0.1703
10959W        W27093   4.280   9.663   0.219 -0.0705 -0.0017 -0.0472
10960W        W27094   6.048   5.875   3.814  0.2069  0.2361 -0.2892
10961W        W27095   9.765   4.896  14.764 -0.0013 -0.0662 -0.1908
10962W        W27096  11.638  13.268   3.885  0.0710  0.0376 -0.0832
10963W        W27097  12.685   2.648  12.448 -0.0896 -0.1347 -0.3212
10964W        W27098  13.606   6.409  13.738  0.4978  0.1943  0.1874
10965W        W27099   7.246   6.104   2.676  0.0059 -0.0036 -0.1459
10966W        W27100  15.130   7.368   0.340  0.4029 -0.2168  0.0336
10967W        W27101   5.550  14.758   0.912 -0.0986  0.0518  0.0410
10968W        W27102  10.481  17.799   2.395 -0.0527  0.0738 -0.2779
10969W        W27103   3.161  10.724   4.081  0.1688 -0.1387  0.0744
10970W        W27104  13.942  15.009  10.935 -0.2457 -0.1526 -0.3148
10971W        W27105   6.409   5.819   4.286  0.0007 -0.1833 -0.0858
10972W        W27106  16.511  18.345   4.383 -0.1588 -0.0061  0.0274
10973W        W27107   1.243   2.115  14.668  0.1866 -0.0586 -0.0309
10974W        W27108   6.300  10.283  10.626 -0.2594  0.1474  0.2171
10975W        W27109   9.877  17.490  13.918  0.1526  0.0843  0.2374
10976W        W27110  18.396   5.698  10.309 -0.1019  0.2733  0.0602
10977W        W27111  11.947   8.211   0.442  0.2293 -0.2258 -0.1051
10978W        W27112   0.892  12.283   2.600  0.2016 -0.3345  0.2404
10979W        W27113  17.419   8.852  13.182  0.0103  0.2814  0.2171
10980W        W27114  16.409   7.117   4.468  0.2159  0.2624 -0.2164
10981W        W27115  15.275  16.717   3.181  0.0904  0.0218 -0.0382
10982W        W27116  15.561   6.262   4.823  0.1717 -0.2179  0.0398
10983W        W27117  16.152   7.264   1.764  0.0878 -0.1709  0.1451
10984W        W27118   6.555  12.138   4.649 -0.0239 -0.1359 -0.0705
10985W        W27119   8.691  15.840  10.366  0.1780  0.4432  0.1834
10986W        W27120  11.311   7.151  12.339 -0.4088  0.2697 -0.1518
10987W        W27121   6.549  18.956  14.705  0.2057 -0.0535 -0.1028
10988W        W27122  11.550   9.732   1.768 -0.0867  0.0037  0.0793
10989W        W27123   1.527   7.315   5.310 -0.3763 -0.1685  0.0813
10990W        W27124  17.590  13.930   3.827 -0.1027 -0.1032  0.4672
10991W        W27125   6.197   1.103   3.395 -0.3318 -0.0844  0.1909
10992W        W27126   4.204   6.815   0.201 -0.0971  0.0218 -0.0516
10993W        W27127  12.867  13.627  11.791  0.1026 -0.1128  0.2453
10994W        W27128  14.052  14.240   1.269  0.2089  0.0902  0.0785
10995W        W27129  16.076   7.256  13.417  0.3694 -0.1576 -0.1314
10996W        W27130  10.942   0.778   1.305 -0.1698  0.0513 -0.1070
10997W        W27131  13.028  17.741   4.123  0.2806 -0.0604 -0.0237
10998W        W27132   5.144   8.030   4.637  0.3308 -0.1136 -0.1382
10999W        W27133  12.284   6.020   2.438 -0.1100  0.0587  0.1386
11000W        W27134   7.687   1.998  10.611  0.0715 -0.2276  0.0916
11001W        W27135   8.621   5.680   0.335 -0.1027 -0.0708  0.1255
11002W        W27136  13.968  15.577  11.069 -0.0106 -0.1706  0.2487
11003W        W27137  14.859   3.030   3.550  0.1432 -0.0387  0.0860
11004W        W27138  17.390   3.853   5.601  0.2094  0.1851 -0.0603
11005W        W27139   3.689  18.019  14.175  0.2617  0.1307 -0.3058
11006W        W27140  18.418  14.762  14.071 -0.0686 -0.0412 -0.2543
11007W        W27141  12.111   6.915   1.504  0.0853 -0.0345  0.3666
11008W        W27142   2.438  12.946  13.361  0.0793  0.0843 -0.2043
11009W        W27143   2.548   6.440  12.245  0.1171 -0.0708 -0.2824
11010W        W27144  11.443  15.847  12.747 -0.0507  0.0710 -0.4521
11011W        W27145   6.174  18.537   3.624  0.3429  0.0217 -0.1586
11012W        W27146  13.569   9.459   1.012 -0.0139  0.2238  0.0316
11013W        W27147  15.782  15.350   0.403  0.0233  0.0362  0.5854
11014W        W27148   3.892   0.738   3.551  0.0038 -0.2797 -0.0722
11015W        W27149   0.732   8.059  13.539  0.3237  0.5629 -0.0886
11016W        W27150   9.542  14.295  11.452  0.0646  0.0520 -0.0434
11017W        W27151  18.435  17.412  13.069 -0.0636  0.0189 -0.0931
11018W        W27152   9.725  14.827   2.531  0.1574 -0.0930  0.0177
11019W        W27153   0.447   2.517  10.697 -0.0021 -0.2186 -0.1911
11020W        W27154  17.020   6.761   3.473  0.0636  0.0457  0.0400
11021W        W27155  18.300   0.181  14.840 -0.2565 -0.2065 -0.1821
11022W        W27156  13.332   4.054   2.981  0.0357 -0.1022 -0.1933
11023W        W27157   5.893  12.325   2.393  0.2189  0.3681 -0.0482
11024W        W27158  14.831  10.048   1.314 -0.0792 -0.0256 -0.0831
11025W        W27159   1.804   6.416   4.293  0.2517  0.2598  0.0297
11026W        W27160   3.079   0.951  11.893  0.0909  0.0362  0.3681
11027W        W27161   0.121  10.610   2.834 -0.1763 -0.0060 -0.1944
11028W        W27162  17.037   5.557   4.758  0.0349 -0.0292 -0.1619
11029W        W27163  13.785   2.908   1.148  0.0240 -0.0595  0.2214
11030W        W27164   1.978  16.168  11.619  0.1924  0.2193 -0.2748
11031W        W27165   6.219  12.474   3.174  0.0947  0.0013  0.3195
11032W        W27166  15.068  15.025   2.187  0.1506 -0.1846 -0.0047
11033W        W27167   0.237  18.914  12.759 -0.0857  0.1640 -0.1728
11034W        W27168  13.925   7.200   2.972  0.2233 -0.1354 -0.0559
11035W        W27169   1.956  16.272  13.147  0.1758  0.1219 -0.0071
11036W        W27170  18.228  12.800  10.424  0.0053 -0.0287 -0.0931
11037W        W27171   7.682  16.772   3.570  0.2422 -0.1656  0.0238
11038W        W27172   4.557   8.397  14.079  0.1127  0.2073  0.3220
11039W        W27173  16.049  11.408  13.003 -0.3474 -0.2363  0.2150
11040W        W27174  10.161   5.281   0.939  0.1393 -0.0183  0.1877
11041W        W27175   3.347   4.767  11.795 -0.0242 -0.7442 -0.0737
11042W        W27176  10.807  12.757  13.221 -0.1499  0.2208  0.2236
11043W        W27177   2.947  13.383   4.336 -0.1691  0.2448  0.2439
11044W        W27178  14.729   6.469   5.378  0.0949 -0.0768  0.2264
11045W        W27179   6.806  13.013   0.368  0.1057 -0.0457 -0.1261
11046W        W27180  14.984  11.718  14.437  0.0794 -0.2646  0.1803
11047W        W27181   0.770   2.589   9.175  0.0898  0.0763  0.0683
11048W        W27182   2.672   5.313  12.054 -0.0860  0.1511 -0.1450
11049W        W27183  10.567  17.908   3.956  0.0397  0.1703 -0.1783
11050W        W27184  17.918  15.572   2.396  0.3251 -0.1212  0.4003
11051W        W27185   0.883   5.449  12.015  0.1533  0.2529 -0.2244
11052W        W27186   7.394  12.622  12.984  0.1203  0.2159  0.3907
11053W        W27187  17.644   5.090  11.858  0.0535  0.2301 -0.0171
11054W        W27188   9.461  15.045   4.642 -0.0549 -0.1685  0.0210
11055W        W27189   4.941   5.260  14.152 -0.1149 -0.2273  0.2149
11056W        W27190   0.990   9.383  12.678  0.0299 -0.0383 -0.0557
11057W        W27191  12.695  15.755  13.908  0.1680  0.3003  0.3011
11058W        W27192   0.345  16.102  12.381 -0.0260 -0.0033 -0.0471
11059W        W27193   2.004   1.655   1.886  0.4495 -0.0231  0.0523
11060W        W27194   9.069   4.081   4.342  0.0111 -0.2310  0.0513
11061W        W27195   8.878  15.577   2.102  0.0378  0.1763  0.0331
11062W        W27196  10.007  12.090  12.355 -0.0820 -0.1871  0.1135
11063W        W27197  10.405   3.846  14.023  0.0276  0.1997  0.0406
11064W        W27198  12.167  10.251  12.723 -0.1417  0.2139  0.1967
11065W        W27199  11.448  13.013   2.018  0.1893  0.1258  0.0440
11066W        W27200   6.746   7.011   0.173 -0.3036  0.0441  0.1446
11067W        W27201   9.304   9.334   3.992 -0.0959 -0.0157  0.1468
11068W        W27202  16.798   6.445   3.815 -0.0191  0.3388  0.5530
11069W        W27203   2.784  11.455  11.735 -0.4358 -0.2843 -0.1256
11070W        W27204   8.012   7.444  14.912 -0.3714 -0.0943 -0.0789
11071W        W27205   8.967  14.993   2.200  0.1015  0.0323 -0.0121
11072W        W27206  18.764   8.818   2.085  0.1278 -0.0825 -0.2184
11073W        W27207   3.334   7.249  11.671 -0.1410 -0.2553  0.1108
11074W        W27208   1.990  15.754  11.947  0.3242  0.1008  0.3439
11075W        W27209  12.903   8.325  14.734 -0.1778  0.2332  0.3480
11076W        W27210   0.815   0.995  12.912  0.1772 -0.1095  0.1495
11077W        W27211  13.263   7.707  11.232 -0.1845 -0.0304  0.2749
11078W        W27212  17.275   2.296  10.490  0.2553  0.4283 -0.0778
11079W        W27213   3.042   4.247   4.670 -0.3617 -0.0299 -0.0722
11080W        W27214  10.801  18.466  12.712 -0.1022 -0.3832  0.0117
11081W        W27215   4.214  15.198   4.070 -0.2088  0.1112  0.3169
11082W        W27216   6.807   5.353  14.255  0.1445 -0.2618  0.1205
11083W        W27217   2.305   5.137  14.448 -0.0727  0.1945  0.0383
11084W        W27218  10.885  12.256   3.273 -0.3057 -0.2079 -0.0036
11085W        W27219   8.981   7.617  10.529  0.0683  0.2426  0.3530
11086W        W27220   8.883  15.285   4.369  0.1009  0.0551  0.1084
11087W        W27221   7.157   3.693   2.543 -0.1616  0.2449  0.0310
11088W        W27222   4.527   6.416   1.486 -0.1334 -0.1491  0.2546
11089W        W27223   7.750  13.100   1.386 -0.2988 -0.0093  0.0634
11090W        W27224   4.964  10.557  13.786 -0.2375 -0.0126 -0.1021
11091W        W27225   1.932  19.150  11.174 -0.1471 -0.3160 -0.3166
11092W        W27226   4.409  10.801   2.213  0.0886 -0.1431 -0.2919
11093W        W27227   0.284   3.656  14.566  0.3549 -0.2213  0.1927
11094W        W27228  17.838   6.717  12.555 -0.0061  0.4037 -0.2125
11095W        W27229   1.369   2.771  14.128  0.2414  0.2069  0.2185
11096W        W27230  16.116   5.241   2.554 -0.0512  0.4443  0.4983
11097W        W27231  18.894   7.084  14.824  0.1364 -0.0979 -0.0797
11098W        W27232   7.004   9.252  10.957 -0.2832 -0.0390 -0.0987
11099W        W27233  18.233   2.215  10.441 -0.0458 -0.2459 -0.0131
11100W        W27234   6.850  17.286   3.255  0.2384  0.3510 -0.0957
11101W        W27235   3.648  19.191   0.745  0.1792  0.1485 -0.0543
11102W        W27236   7.047  13.592  11.427  0.2076 -0.1072 -0.3026
11103W        W27237  16.972   4.449   5.098  0.0187 -0.2386 -0.0834
11104W        W27238   4.325  15.822  11.842  0.0381 -0.3579 -0.1434
11105W        W27239  15.863  10.455  10.030  0.0648 -0.0360 -0.2081
11106W        W27240   4.742   1.308   4.713  0.1751  0.2903  0.1067
11107W        W27241   0.890   6.929   1.844  0.2275 -0.1286  0.2033
11108W        W27242  14.004   4.911  14.408 -0.0546 -0.1276 -0.2358
11109W        W27243   4.966  10.616   4.378  0.3641  0.1307 -0.1076
11110W        W27244  15.431  18.580  10.701 -0.1983  0.3206 -0.0498
11111W        W27245   8.583  17.896   5.500  0.2333  0.2757 -0.2371
11112W        W27246  15.422  16.964   4.653 -0.0580  0.1311  0.0522
11113W        W27247   4.743  18.306  13.631 -0.0106 -0.1225  0.0350
11114W        W27248  13.301   1.540  13.645  0.2379  0.0755 -0.1151
11115W        W27249  10.160   4.544   0.295 -0.1644 -0.0299 -0.1875
11116W        W27250  10.556   3.035   2.916  0.2725 -0.0034  0.0220
11117W        W27251  12.637  11.508   4.680 -0.0479  0.0422 -0.1285
11118W        W27252  11.533   3.866   4.605  0.4960 -0.1468 -0.0188
11119W        W27253   6.231  14.329  11.329 -0.0467 -0.1571  0.0119
11120W        W27254   6.630   6.321   1.524  0.4902  0.0806  0.1718
11121W        W27255   4.611   8.638   3.998  0.1828 -0.2606 -0.1862
11122W        W27256   1.418   9.248   2.673  0.1287  0.2050  0.2315
11123W        W27257  13.110   5.422   1.346  0.0156 -0.0903 -0.1625
11124W        W27258  11.176  11.986   0.599  0.0364 -0.2156  0.0661
11125W        W27259   5.684  12.940   3.407 -0.0637  0.0647  0.1936
11126W        W27260  16.441   8.415  13.563 -0.2901 -0.1304 -0.0010
11127W        W27261  15.279  12.389   0.911 -0.0674 -0.2288 -0.4319
11128W        W27262   8.128  18.106  10.369  0.1584  0.1178 -0.2048
11129W        W27263   4.225  15.653   0.663  0.0576  0.3498  0.2542
11130W        W27264   4.244  19.198   1.713 -0.0406  0.0756 -0.2878
11131W        W27265  11.352   1.860  12.101 -0.0364 -0.0681  0.1412
11132W        W27266  10.520   3.779  11.581  0.3295  0.1219  0.0321
11133W        W27267  15.935   2.415   2.734  0.0124  0.1242  0.1550
11134W        W27268  14.679   9.968  10.452  0.2426  0.0178 -0.2184
11135W        W27269  19.082   9.105  14.036 -0.1015  0.2763  0.0776
11136W        W27270   8.097   9.909  13.657 -0.2242 -0.0131 -0.4167
11137W        W27271  13.372  17.159   3.955 -0.0388  0.0134 -0.0534
11138W        W27272   4.665  16.938  13.762  0.0637 -0.4223 -0.1006
11139W        W27273   7.793  18.112   1.642 -0.1600  0.0206 -0.2865
11140W        W27274  10.076   0.926  11.653 -0.2084  0.0625  0.0951
11141W        W27275   3.272  10.399   1.886 -0.3217 -0.0415 -0.1027
11142W        W27276   6.680   3.796   3.756 -0.0839  0.1811 -0.1221
11143W        W27277   5.317  16.800   3.618  0.1771 -0.2185 -0.0162
11144W        W27278  12.230  15.673   2.835  0.1227  0.3409  0.1406
11145W        W27279  10.663   5.092  14.526  0.1197  0.0952 -0.3742
11146W        W27280   3.454   0.908  10.974  0.0667 -0.0828  0.0828
11147W        W27281   0.857   3.003   0.880  0.0133 -0.1933  0.0243
11148W        W27282   9.792   5.908  12.657  0.1551 -0.2710 -0.0137
11149W        W27283  16.553   9.365  11.943 -0.1656 -0.1249  0.0843
11150W        W27284  14.572   2.260  11.614 -0.0942  0.5765  0.2398
11151W        W27285  17.983  13.604   0.879 -0.0047 -0.1402  0.2188
11152W        W27286  16.965   9.429   2.602  0.2961  0.0260 -0.4033
11153W        W27287  13.337  16.094   0.510 -0.0539 -0.1085  0.0275
11154W        W27288   4.707   6.019  13.645  0.3225  0.0570  0.2705
11155W        W27289  16.336  13.229   1.137  0.2739 -0.4796 -0.3499
11156W        W27290  14.841   2.440   0.839  0.0677 -0.3620  0.1012
11157W        W27291   3.889   7.593  12.420  0.4903  0.1419  0.0637
11158W        W27292   8.769  14.588  11.746 -0.2135  0.2344  0.0562
11159W        W27293   0.985   4.674   4.787  0.0041 -0.1258 -0.2404
11160W        W27294   1.017  11.874   3.175  0.1296  0.2865 -0.1999
11161W        W27295   9.729   1.342  11.165  0.1658 -0.1259  0.2048
11162W        W27296   5.690  11.674  11.947  0.1586  0.2373  0.0930
11163W        W27297  11.121   1.258   0.135  0.1546 -0.2661  0.0292
11164W        W27298  10.849  13.317  13.268 -0.1649  0.4195  0.2681
11165W        W27299  17.569   7.615  13.493  0.1657 -0.1231  0.3049
11166W        W27300   3.515  15.111   1.951 -0.0832 -0.1701  0.2673
11167W        W27301  18.759   1.662   0.477  0.2629 -0.0000 -0.1065
11168W        W27302  13.196  15.537  13.937 -0.0355 -0.0985  0.1502
11169W        W27303   3.707  17.192   2.734  0.1163  0.1259 -0.1261
11170W        W27304   9.738  17.932  10.856  0.0419 -0.2317 -0.1814
11171W        W27305  10.387   8.870  11.130  0.1157  0.2407 -0.3331
11172W        W27306   6.093   3.509  11.288 -0.1336  0.2066  0.1696
11173W        W27307   9.202  10.550  13.200 -0.0049 -0.0130  0.0563
11174W        W27308  14.353   9.927   1.205 -0.3018  0.0255  0.1227
11175W        W27309  10.644   9.707   4.192  0.5555 -0.2276 -0.1174
11176W        W27310  18.782   7.249  13.434  0.0884 -0.1127 -0.1684
11177W        W27311  15.772   6.342  12.387  0.0620  0.0953 -0.0950
11178W        W27312   2.830  15.472   2.002  0.0986 -0.1967  0.0159
11179W        W27313   6.485   6.490   4.588 -0.2235  0.4410 -0.0664
11180W        W27314   5.885   8.571  13.713 -0.0794  0.0503 -0.3570
11181W        W27315   7.731  11.351   0.363  0.1932 -0.1375 -0.1464
11182W        W27316  11.773  13.048  11.373  0.0029 -0.0808 -0.2731
11183W        W27317   1.341   5.154   3.194 -0.2411 -0.0143 -0.0532
11184W        W27318  16.287  17.323  10.864 -0.0763  0.3354 -0.0815
11185W        W27319   3.505  16.181   2.267 -0.1677  0.2352  0.1231
11186W        W27320  12.807   1.334   0.037  0.1077  0.0319  0.1236
11187W        W27321   8.059  10.351  11.590  0.2801 -0.2476  0.1878
11188W        W27322   4.108   6.704  11.479 -0.1984 -0.0065  0.3536
11189W        W27323   0.462  17.578   0.067 -0.2308 -0.3300 -0.1182
11190W        W27324   9.695  13.831  11.372  0.1478 -0.0127 -0.1476
11191W        W27325   0.145  15.981   5.449  0.1840 -0.3110 -0.2884
11192W        W27326  13.100  14.112   4.045 -0.1202  0.0827 -0.0634
11193W        W27327   6.590   6.936  12.849 -0.1218 -0.2305  0.1745
11194W        W27328  16.053  10.791  13.820 -0.2607 -0.1261  0.0523
11195W        W27329   1.253   0.544  14.603 -0.3195 -0.0360  0.1771
11196W        W27330  12.807   9.867   2.730 -0.0718 -0.1583  0.0018
11197W        W27331  18.416  11.781   1.096 -0.1687  0.1700 -0.0482
11198W        W27332   2.110  13.216   2.710 -0.1731 -0.1639 -0.0103
11199W        W27333  16.118  18.969  13.456  0.0638  0.2107  0.1132
11200W        W27334   8.464   6.208  13.497  0.0934  0.0587 -0.2662
11201W        W27335   3.317  10.263  13.559 -0.0304 -0.0709 -0.1073
11202W        W27336  15.916   9.735  10.358  0.4247 -0.2567 -0.0096
11203W        W27337  17.536  18.997  12.564  0.1809  0.0867  0.1537
11204W        W27338   8.192   7.148   2.852 -0.0721  0.2260 -0.1462
11205W        W27339   3.391  14.034   0.791 -0.0340 -0.1000  0.0474
11206W        W27340   6.682  15.580  10.772  0.2387 -0.0072 -0.0081
11207W        W27341   5.556   1.423  13.554  0.1221  0.1578 -0.0150
11208W        W27342  13.347  17.650   2.250  0.1210 -0.0732  0.2793
11209W        W27343   4.626   1.303  13.861  0.0274  0.1579  0.1924
11210W        W27344  11.512   5.067  14.928  0.1043 -0.1909 -0.2510
11211W        W27345  10.876   1.562  12.147 -0.1957 -0.1161 -0.0914
11212W        W27346   3.291  10.829  13.120  0.0601 -0.0148  0.0057
11213W        W27347  16.862   1.984   5.626 -0.0066  0.0049 -0.0906
11214W        W27348  14.446   7.163   4.107 -0.1645 -0.1962 -0.0033
11215W        W27349   2.690  14.604   1.745  0.1691  0.1161  0.2571
11216W        W27350  16.586   7.561  12.348 -0.3843 -0.0386 -0.0644
11217W        W27351  15.197  17.077  12.000  0.0362 -0.0727  0.0189
11218W        W27352  10.317   3.940   0.943  0.0670 -0.3421 -0.0607
11219W        W27353  12.335   2.227  11.945 -0.3343 -0.1418 -0.1399
11220W        W27354   7.398  13.978  13.377  0.0128 -0.0955 -0.4149
11221W        W27355   4.119  14.869   3.187  0.1330 -0.2033 -0.3088
11222W        W27356  16.696   5.693  13.044  0.0855 -0.0527  0.2303
11223W        W27357  16.052  17.598   4.761  0.3565  0.0840  0.0921
11224W        W27358  12.100  14.158   4.218 -0.0838 -0.0414 -0.2503
11225W        W27359  18.780  12.995  12.839  0.3042 -0.1991 -0.1056
11226W        W27360  15.613   7.064  10.444  0.0992  0.2242 -0.0844
11227W        W27361   5.273  15.247  13.883 -0.1091  0.3504  0.0351
11228W        W27362   1.614  10.004   3.245 -0.1271  0.0471 -0.0230
11229W        W27363  16.816  14.268  11.450  0.0042 -0.0741  0.2258
11230W        W27364  16.455   8.156  11.290 -0.2914  0.2676  0.2685
11231W        W27365  16.249  11.097  11.547  0.0705  0.0700 -0.1438
11232W        W27366   8.069   0.464  12.027  0.0086 -0.0228 -0.1376
11233W        W27367  16.564  15.021   4.021 -0.1317 -0.1160  0.1651
11234W        W27368   8.845  16.921   0.972  0.1063  0.0228 -0.0591
11235W        W27369  12.531  17.734  10.757 -0.1160 -0.2602 -0.1826
11236W        W27370  14.190   0.980  14.824  0.1193  0.1469  0.1774
11237W        W27371   8.138   7.152  11.151 -0.1859 -0.2130 -0.0779
11238W        W27372  13.268   5.293   3.430  0.0151 -0.0854 -0.2182
11239W        W27373   7.103  10.625  12.913 -0.1112  0.0915  0.4243
11240W        W27374  13.858  15.802   1.965 -0.0543  0.3211  0.0696
11241W        W27375   8.025   9.863   0.878  0.1162  0.2002 -0.0487
11242W        W27376  14.455   4.230  12.206  0.0017  0.0385 -0.2211
11243W        W27377   8.515   5.090   3.301  0.2162  0.2647 -0.1884
11244W        W27378   4.749   6.718   4.295  0.2072 -0.1593 -0.0651
11245W        W27379   4.792   1.226  13.303 -0.1402 -0.0806  0.1372
11246W        W27380  16.651  14.500   4.011  0.0987 -0.0291  0.0974
11247W        W27381  17.592  19.005   2.596 -0.0452 -0.0010  0.1169
11248W        W27382  11.121  14.801  14.909  0.1477  0.0252 -0.0365
11249W        W27383  18.426   7.209  11.150 -0.1999 -0.0239  0.0832
11250W        W27384  18.766   1.549  10.631 -0.0230  0.1467 -0.0422
11251W        W27385  13.337  18.801   4.222 -0.3416  0.2089 -0.0453
11252W        W27386  10.284  11.348   0.819  0.1454  0.1262 -0.0449
11253W        W27387   5.060  14.332   4.586 -0.3185 -0.0772 -0.2144
11254W        W27388  19.081   1.601   2.392 -0.0576  0.2769 -0.0326
11255W        W27389   6.032   1.452  11.027 -0.0570  0.0025 -0.3542
11256W        W27390  18.904  13.909   1.696  0.1093  0.1181  0.3357
11257W        W27391  11.682   2.070   5.399 -0.2882  0.0436 -0.0554
11258W        W27392  13.393   4.485  12.510 -0.1765  0.2518  0.0767
11259W        W27393   1.152  19.028   1.318  0.0914  0.1602 -0.2003
11260W        W27394   8.465  17.001  11.196 -0.0151 -0.0964  0.1326
11261W        W27395  13.411  17.038   2.879 -0.0016  0.2465 -0.1182
11262W        W27396   0.919  15.833   1.582 -0.1971 -0.0226 -0.3082
11263W        W27397   4.907  11.504  12.512  0.0356 -0.1648 -0.0793
11264W        W27398  11.040   5.724  13.233  0.1175  0.1081 -0.2000
11265W        W27399  14.715  16.691   0.158  0.0241 -0.0435 -0.3839
11266W        W27400   9.651   7.577  10.639 -0.0750  0.0660  0.0965
11267W        W27401   8.613   0.698  13.104  0.3292  0.1209  0.3616
11268W        W27402  18.978  17.284  14.204 -0.0822  0.1071  0.2055
11269W        W27403  18.388   2.399   1.707 -0.0974 -0.0521  0.1927
11270W        W27404   2.567  16.952   1.320  0.1752 -0.1720 -0.0285
11271W        W27405   5.340  15.298   4.725 -0.0865  0.0036 -0.2723
11272W        W27406   4.392   9.385   4.166 -0.0735 -0.3322 -0.1110
11273W        W27407   0.540  12.289   1.127 -0.0410 -0.2926  0.2653
11274W        W27408   1.716   8.733  12.826 -0.0702 -0.0265  0.1538
11275W        W27409   7.300   4.741  10.286  0.3262  0.3306  0.1301
11276W        W27410   9.385  14.042  11.042  0.2303  0.3849 -0.5132
11277W        W27411  13.068   9.262   3.308 -0.1236  0.0977  0.0129
11278W        W27412   9.002   8.644  11.971 -0.0970  0.2177  0.2524
11279W        W27413  13.428  10.390   0.527 -0.1868 -0.1683  0.0197
11280W        W27414   3.001  14.632   2.145 -0.1325  0.0525  0.2535
11281W        W27415   1.594  16.476  14.806  0.0627 -0.1452 -0.1160
11282W        W27416   8.778   6.656  11.325  0.0267  0.0837 -0.0004
11283W        W27417  13.715   3.436  11.965  0.1272  0.1941  0.5155
11284W        W27418   5.492  11.304   4.040  0.3156 -0.0918  0.3004
11285W        W27419   0.384   5.849  11.261 -0.1451 -0.0570 -0.0046
11286W        W27420  15.202  14.935   1.633 -0.0931  0.0784  0.4664
11287W        W27421  18.212   2.766   4.360 -0.0242 -0.0114  0.0187
11288W        W27422  10.861  17.399  14.455  0.1061 -0.0538  0.1727
11289W        W27423   2.708  14.877   0.013 -0.2616  0.1048 -0.2568
11290W        W27424  18.116   7.791   4.988  0.1435 -0.1964 -0.0294
11291W        W27425   1.104  14.962   2.691  0.2883 -0.2031  0.3636
11292W        W27426   6.509   2.977  13.552  0.1158 -0.1360 -0.0118
11293W        W27427   0.715   2.826  13.362 -0.0183  0.0321  0.1480
11294W        W27428  10.075  16.813   3.573 -0.4151 -0.1076  0.2078
11295W        W27429   1.837  12.133  13.703 -0.0108 -0.2517 -0.0924
11296W        W27430   9.616   7.148   2.055 -0.0646  0.0744 -0.0129
11297W        W27431  11.528  14.008   3.569 -0.0172 -0.1685  0.2665
11298W        W27432   5.828  15.756  13.381  0.1401 -0.1009  0.0648
11299W        W27433  14.433   0.470   2.060  0.1518 -0.1890 -0.1646
11300W        W27434   7.067   9.773   3.740  0.1888 -0.3683 -0.0054
11301W        W27435   5.409   8.798   3.329  0.0810  0.1374 -0.4901
11302W        W27436   1.004   1.489   1.752 -0.2016  0.1274  0.0015
11303W        W27437   5.990   8.353   1.601  0.0969 -0.0326  0.0806
11304W        W27438  12.222   1.405  10.838 -0.2550  0.1753  0.3093
11305W        W27439   3.318  15.028  13.171  0.0284 -0.3514 -0.1574
11306W        W27440  16.728   0.646   2.871 -0.3314  0.0671 -0.1868
11307W        W27441  11.390  12.375  10.246  0.1791  0.1937  0.1335
11308W        W27442   5.949  12.700   5.573 -0.0708 -0.2300  0.1408
11309W        W27443   0.863  10.435  14.595  0.0074  0.0665  0.1133
11310W        W27444   5.170   4.206  13.353  0.0576  0.0746 -0.1181
11311W        W27445   8.090  13.496  10.989  0.1260 -0.1418 -0.0737
11312W        W27446   9.670  13.977  10.630 -0.1517  0.0061  0.0551
11313W        W27447  18.649  13.042   4.158  0.2396  0.0616  0.0392
11314W        W27448  12.058  13.381  11.861  0.2608 -0.4726  0.0687
11315W        W27449   5.673  16.844  13.917 -0.2370  0.0814 -0.0335
11316W        W27450   4.334  19.034   3.385  0.0153  0.1934  0.0043
11317W        W27451  17.721   6.685   0.454  0.2129  0.1432  0.0258
11318W        W27452  13.122  10.183   0.078 -0.3915 -0.3669  0.0773
11319W        W27453   8.464  18.087   3.557  0.3571 -0.0570 -0.0779
11320W        W27454  17.140   0.294  12.308 -0.0479  0.1985 -0.1609
11321W        W27455  13.274  18.787   0.153  0.1451  0.2425  0.2429
11322W        W27456  12.824   7.373   0.551 -0.0275 -0.2496 -0.3211
11323W        W27457   0.405  14.947  12.741 -0.1434 -0.0597  0.2041
11324W        W27458  16.379  15.690  12.155 -0.0996  0.0766 -0.1243
11325W        W27459  13.044  12.592  10.737  0.2005  0.2799 -0.2208
11326W        W27460   1.599   6.506  13.125  0.2331 -0.2093  0.0077
11327W        W27461   3.682   9.044  12.633 -0.2991 -0.1217 -0.2713
11328W        W27462   4.980  15.981  13.423 -0.0494 -0.0669 -0.3274
11329W        W27463   4.348  12.791  14.587  0.2606  0.1489  0.1909
11330W        W27464   8.586  18.474  12.369  0.3359 -0.0505 -0.2402
11331W        W27465   8.193   6.749   4.131 -0.1338 -0.0764  0.0298
11332W        W27466   1.271   7.091   3.188  0.1028  0.0982  0.1150
11333W        W27467  16.595   5.361   4.012 -0.3721 -0.2394 -0.1752
11334W        W27468  11.724   7.775   2.411 -0.0999 -0.2182 -0.0172
11335W        W27469   8.926   9.580   4.292  0.0945  0.1652 -0.1663
11336W        W27470  12.933   0.933  11.355 -0.4048 -0.2670  0.1223
11337W        W27471   7.051  12.859  11.701  0.3334  0.0388 -0.0944
11338W        W27472   8.308   0.019  11.050 -0.0983  0.1658 -0.0611
11339W        W27473   8.626  18.940  12.206  0.1920 -0.1670  0.4823
11340W        W27474  13.042   7.958   3.272  0.0106 -0.5157  0.1103
11341W        W27475   6.043  16.695  12.499 -0.1069 -0.0455  0.0759
11342W        W27476   0.881   5.348   0.762 -0.1202  0.2264  0.1809
11343W        W27477  10.760  16.428  12.507  0.2271  0.0498 -0.0873
11344W        W27478   4.322  13.239  13.800  0.0039  0.3925 -0.0641
11345W        W27479  12.855   7.985   3.739 -0.0587  0.1371  0.1883
11346W        W27480   8.594   4.162   1.470  0.0083  0.1959  0.1309
11347W        W27481  15.836  15.636  11.902  0.0831 -0.1575  0.3662
11348W        W27482   6.495   4.638   1.698 -0.1291  0.1298  0.2257
11349W        W27483  16.939  13.516   0.248  0.1280  0.1094  0.1170
11350W        W27484   1.292  19.059   4.400  0.0942  0.1111  0.0448
11351W        W27485  14.366   3.442   1.712  0.4670  0.0289 -0.0314
11352W        W27486  17.175   4.836   4.461 -0.0277 -0.0467  0.1471
11353W        W27487   4.639  15.266   1.323  0.1076  0.3947  0.2750
11354W        W27488   4.631  18.120   3.051  0.0922 -0.1139 -0.3794
11355W        W27489   6.906  14.507  11.886  0.0572  0.2602  0.4198
11356W        W27490  14.989  16.657  14.774 -0.4570  0.3747  0.3172
11357W        W27491   8.541  18.626  11.838  0.1126  0.1709 -0.1390
11358W        W27492  15.037   3.217   1.997 -0.3006 -0.1251  0.0420
11359W        W27493  14.671   0.975   4.134 -0.2826  0.0731  0.1155
11360W        W27494   6.241   2.633   1.758 -0.3489  0.1306 -0.1452
11361W        W27495   3.954   8.929  12.232  0.3929  0.1236 -0.0611
11362W        W27496  18.633   1.587  11.083 -0.1123  0.2002 -0.5467
11363W        W27497   0.392  14.605   4.669  0.1026 -0.0256 -0.0031
11364W        W27498  15.845   8.027  14.160  0.0304  0.0449 -0.3074
11365W        W27499  19.102   3.313  10.699 -0.1002  0.2568 -0.0741
11366W        W27500  13.644   4.671  13.387 -0.1849 -0.0307 -0.2209
11367W        W27501   2.777  10.334   0.169  0.3463  0.0918  0.1243
11368W        W27502   6.206   9.616  14.803  0.0009 -0.2659  0.3949
11369W        W27503   0.342  13.613   0.114 -0.1485  0.0317 -0.1177
11370W        W27504  12.006  13.075  10.906  0.2635 -0.0490  0.3959
11371W        W27505  15.222   8.852  12.743  0.0798 -0.2089 -0.0668
11372W        W27506  12.484  18.802  11.715 -0.2150  0.1361 -0.0006
11373W        W27507   7.390  14.681   4.916  0.0505 -0.0137 -0.0085
11374W        W27508  18.451  12.933  13.959 -0.0865 -0.0451 -0.1002
11375W        W27509   0.663  18.150   3.924  0.1839  0.2819 -0.0501
11376W        W27510  18.621   9.777  10.219 -0.2440 -0.2120  0.0216
11377W        W27511   0.071   2.572  14.770 -0.0906  0.1397 -0.2691
11378W        W27512  10.177  10.712   5.285  0.2759  0.0052  0.1102
11379W        W27513   9.549   4.384  14.009 -0.1075 -0.0448  0.1651
11380W        W27514  11.039   4.011   5.471  0.0120  0.2755 -0.1400
11381W        W27515  11.298   0.112   2.661  0.0764  0.1314 -0.1461
11382W        W27516   0.967  14.121   1.511 -0.2984 -0.1814  0.0472
11383W        W27517   8.009   5.128  10.714 -0.2539  0.0491 -0.3392
11384W        W27518  18.779   6.099  10.886 -0.0863  0.1571 -0.4926
11385W        W27519  14.286  18.454  14.342 -0.2021  0.0771  0.2774
11386W        W27520   3.183   3.903   0.643 -0.0996 -0.0495 -0.2947
11387W        W27521  11.164   1.437   2.244  0.2393  0.1644  0.0344
11388W        W27522  17.679  18.120  10.923  0.0882 -0.2514  0.1353
11389W        W27523  12.243   5.459   0.168  0.0664 -0.1621 -0.2158
11390W        W27524   6.117   6.898  11.978 -0.3139  0.2620  0.3665
11391W        W27525  16.337   3.024  14.869 -0.0441  0.0153 -0.4464
11392W        W27526   5.541  12.567   4.553 -0.4357  0.0511 -0.0642
11393W        W27527   3.028  19.073  10.777  0.0858  0.0248  0.0692
11394W        W27528   2.512  11.512   1.029 -0.0494 -0.1379 -0.0303
11395W        W27529   6.450   6.783   3.275 -0.0239  0.0149  0.0070
11396W        W27530   5.456  11.574   0.709 -0.1817 -0.1880 -0.2631
11397W        W27531   2.640  14.506   2.504 -0.1624  0.2636  0.1191
11398W        W27532   0.391  17.660  12.124  0.2540  0.2598  0.1799
11399W        W27533   5.128  15.620  14.270 -0.1635  0.2004  0.0527
11400W        W27534  12.918  18.468   2.935 -0.0113 -0.1174 -0.0452
11401W        W27535   0.105   4.889  14.160 -0.1384 -0.2295  0.1549
11402W        W27536  19.189  18.800  10.901 -0.2635  0.3083 -0.1845
11403W        W27537   9.315  14.234   3.132  0.1033 -0.1312  0.0095
11404W        W27538  17.691  17.307  13.278 -0.0451  0.2496  0.3232
11405W        W27539   4.674   7.806   4.743 -0.2369  0.2847  0.1925
11406W        W27540  14.657  13.615  14.739  0.3080 -0.2133 -0.2025
11407W        W27541  15.657  12.078  12.374  0.1337  0.1815 -0.0530
11408W        W27542   1.061   9.803  11.548  0.1874  0.0203  0.0864
11409W        W27543  18.257  10.621  10.479  0.1048 -0.2487  0.1631
11410W        W27544  10.183   2.333   4.652  0.2772 -0.2362 -0.2497
11411W        W27545   9.940  14.184  12.533 -0.3546 -0.1201 -0.2680
11412W        W27546  13.550  17.224  12.392 -0.2959 -0.2244 -0.2107
11413W        W27547  16.767  11.600   3.216  0.2918  0.1100 -0.2110
11414W        W27548   6.435   4.270  12.267 -0.0650  0.1466 -0.3840
11415W        W27549   7.845   5.728  14.712  0.3642  0.1745  0.1407
11416W        W27550  13.812   5.968   0.298  0.0193  0.0345 -0.0446
11417W        W27551   3.915   3.784  13.715 -0.1996 -0.0024  0.2278
11418W        W27552   9.266  17.397  14.422 -0.0902  0.0593  0.2195
11419W        W27553  15.699   0.768  13.776 -0.2283 -0.0938  0.0161
11420W        W27554   5.227  18.731  11.236  0.0341 -0.1004  0.4048
11421W        W27555  11.928  12.306  12.945  0.0121 -0.4173  0.2076
11422W        W27556  11.494   2.334   2.000  0.0983 -0.0524 -0.1170
11423W        W27557   6.033   4.789   1.569 -0.2042 -0.1171  0.2091
11424W        W27558  13.986   9.390   4.315 -0.0962  0.1859 -0.3278
11425W        W27559   4.465  11.757   0.111 -0.0635  0.1218  0.1037
11426W        W27560  10.107   9.898  14.359  0.0365  0.4161 -0.1458
11427W        W27561   4.708  14.031  14.862 -0.3625  0.1695  0.2184
11428W        W27562  17.857  13.113  11.920 -0.1163 -0.0785 -0.1686
11429W        W27563  18.247  18.099  11.622  0.3295  0.0982  0.0357
11430W        W27564   2.348   5.463   1.899 -0.0378  0.3159  0.2068
11431W        W27565   3.259   5.695   4.135  0.0553  0.0435 -0.1920
11432W        W27566   9.097   1.813  13.546  0.1055 -0.0812  0.2749
11433W        W27567  12.435  18.563   2.802  0.4515 -0.1379 -0.1846
11434W        W27568  10.378   1.759   2.375 -0.0988  0.2479  0.1788
11435W        W27569   4.859   8.475  12.309  0.1123  0.2694 -0.1367
11436W        W27570  12.649   8.648  13.244 -0.0374 -0.2496 -0.0055
11437W        W27571  11.367  15.607  14.798 -0.0881 -0.0366  0.2155
11438W        W27572   2.231  14.019   4.138 -0.2213 -0.1524  0.0234
11439W        W27573   4.067  18.961  12.808  0.1076  0.0472 -0.0630
11440W        W27574  18.122  12.419  12.400  0.0003 -0.1084  0.1772
11441W        W27575   3.419   7.553   4.231 -0.1003  0.1769 -0.1541
11442W        W27576   0.572   0.269  14.375  0.0556 -0.3394  0.1031
11443W        W27577   0.444  14.713   2.017 -0.1176  0.3180 -0.0966
11444W        W27578  15.086  12.502   5.564  0.1022  0.0017 -0.1073
11445W        W27579   3.732  15.540   4.278 -0.2023 -0.0274  0.0599
11446W        W27580   5.825   1.728  10.441  0.2844  0.0921  0.2553
11447W        W27581   2.252  18.417   2.588 -0.0319  0.2124 -0.1128
11448W        W27582   9.504  18.937  13.490  0.1318 -0.0353 -0.1335
11449W        W27583   6.861  13.535   3.013 -0.0375  0.4226  0.0224
11450W        W27584  17.576  15.123   0.728 -0.1142 -0.2435 -0.0850
11451W        W27585   9.119   5.128  14.744 -0.3700 -0.1187 -0.1153
11452W        W27586  10.963   0.341  14.516 -0.0683  0.0507  0.0393
11453W        W27587  11.298   8.951   1.415 -0.0322  0.1609  0.0460
11454W        W27588   5.268  13.082  13.530  0.0758  0.2534 -0.0171
11455W        W27589  14.496   2.992   1.871 -0.1316  0.0319  0.0555
11456W        W27590  11.577  13.052   1.403  0.3295 -0.2140 -0.3925
11457W        W27591  17.730   9.241   0.645  0.0417 -0.0667  0.1449
11458W        W27592   2.663  14.465  10.482  0.0415  0.1123 -0.2765
11459W        W27593   6.374   2.134  12.032 -0.2069 -0.1882  0.0084
11460W        W27594   8.748   7.591  11.146  0.0568  0.0715  0.0604
11461W        W27595  14.262  12.112  14.276 -0.0984 -0.0438 -0.4996
11462W        W27596   7.692  15.797   1.217 -0.2226 -0.2773  0.0201
11463W        W27597  15.335  10.781  14.221  0.0871 -0.1194  0.0530
11464W        W27598  17.135   9.071  10.229 -0.2550 -0.0064  0.3233
11465W        W27599  10.466   8.121  14.693  0.1172  0.1328  0.0757
11466W        W27600  18.248   6.384   0.001 -0.0467 -0.2465 -0.1707
11467W        W27601   0.454  15.127   1.098  0.2342 -0.2862 -0.0257
11468W        W27602  10.740  19.006  11.879 -0.0515  0.1513  0.1780
11469W        W27603   0.968   8.554   1.488 -0.1160  0.2542 -0.0046
11470W        W27604   6.711   9.472   0.952 -0.0466 -0.2490  0.3138
11471W        W27605   6.747   1.596  10.599 -0.1771  0.0155  0.0179
11472W        W27606  14.978  13.883   2.906 -0.2103 -0.0011  0.3501
11473W        W27607  16.614  15.438   0.518  0.4131  0.1653 -0.1325
11474W        W27608   5.547   5.422  12.751 -0.4290 -0.0547 -0.0445
11475W        W27609   3.548  14.433   5.262 -0.0075 -0.0874  0.0617
11476W        W27610  12.043   6.269  10.479 -0.4069  0.0322 -0.0655
11477W        W27611   8.868   2.395   5.365 -0.1437  0.0113  0.2463
11478W        W27612  13.923  11.632  12.516 -0.2051  0.2186  0.1206
11479W        W27613  15.230   3.423   1.404 -0.0149  0.1439  0.2358
11480W        W27614  16.577   1.889  12.611 -0.3374  0.0244  0.0204
11481W        W27615  10.033  12.090   3.457 -0.3798  0.1950  0.2835
11482W        W27616  15.117  14.623  13.092 -0.0957 -0.1506 -0.0850
11483W        W27617  17.634   3.379  12.560  0.2075 -0.0556 -0.2826
11484W        W27618  17.997   6.632   0.868 -0.0652  0.2145 -0.2387
11485W        W27619   4.994  15.975   3.457  0.0131  0.0472  0.2856
11486W        W27620  19.227   6.919   0.962  0.2148 -0.0226  0.0874
11487W        W27621   6.410  11.806  11.265  0.1511 -0.0867  0.2040
11488W        W27622   8.485  16.965  13.492 -0.1322 -0.1121  0.2566
11489W        W27623   5.302   3.667   1.475  0.0159 -0.1524 -0.0545
11490W        W27624   5.892   4.927   0.578  0.2308  0.1053 -0.1136
11491W        W27625  10.464  11.799   3.686  0.1004  0.0197 -0.2013
11492W        W27626   4.448   5.090  15.000  0.3345 -0.3876  0.0701
11493W        W27627   5.315   7.650  13.331 -0.0146  0.3116 -0.3555
11494W        W27628  18.437   3.489   3.863  0.2788  0.1140  0.1234
11495W        W27629  16.748   8.872  13.881  0.1090  0.4709  0.1377
11496W        W27630  13.289  14.100  10.734 -0.0888  0.0827 -0.1101
11497W        W27631  16.275   2.116   2.537  0.0154 -0.2943 -0.1870
11498W        W27632   8.978   3.851   0.263 -0.2291 -0.2055  0.1487
11499W        W27633  10.049  13.977   1.378 -0.2083  0.1223 -0.0423
11500W        W27634  15.157  10.339  12.340  0.2921 -0.0226  0.1796
11501W        W27635  15.585   2.173  10.322 -0.2351  0.4067 -0.0888
11502W        W27636  13.387   6.335  14.665  0.1059 -0.0839 -0.0635
11503W        W27637   9.448   6.554   4.253  0.3533 -0.0211  0.0147
11504W        W27638  14.369  18.901  11.372  0.0272  0.0129  0.3327
11505W        W27639  18.655  10.913   4.410 -0.1892 -0.4141  0.0791
11506W        W27640   0.314   8.819  12.272 -0.0955 -0.1100  0.0128
11507W        W27641   4.889   3.095  14.169  0.2418 -0.3719 -0.2735
11508W        W27642   8.343  14.630  13.007  0.1920  0.4212  0.1901
11509W        W27643   2.360   3.604   5.069 -0.0891 -0.2111 -0.0543
11510W        W27644   2.719  14.904   3.871  0.0765  0.0085 -0.0007
11511W        W27645   3.933  12.074   1.867 -0.1162 -0.0261  0.1265
11512W        W27646   2.387  15.396   2.238 -0.1734 -0.0832  0.0890
11513W        W27647   3.610  10.108   4.407  0.2069  0.1450 -0.3245
11514W        W27648   5.473   8.607  13.390  0.0759  0.1632 -0.2206
11515W        W27649  18.309  18.075  14.632  0.2629  0.1378 -0.0691
11516W        W27650   8.694  16.431   0.884 -0.2739  0.3864  0.0026
11517W        W27651  11.411   3.024   4.150  0.2480 -0.3182  0.2189
11518W        W27652   4.950  14.851  12.445 -0.1791 -0.0330  0.1864
11519W        W27653  12.116  15.100  13.569  0.2579 -0.3639 -0.0977
11520W        W27654   6.063  10.446   0.076 -0.1465  0.1729 -0.0554
11521W        W27655  13.454   9.883   4.016 -0.2455 -0.1064 -0.2772
11522W        W27656  16.742   5.254  10.881 -0.3496  0.0868 -0.0177
11523W        W27657   3.723  13.223   0.349 -0.1703 -0.3481 -0.1273
11524W        W27658  18.025  13.464  11.673 -0.0068 -0.1401  0.2157
11525W        W27659  14.122  19.179   0.214 -0.0168 -0.3575  0.2520
11526W        W27660   5.680   6.003  10.593 -0.2879 -0.0408 -0.0554
11527W        W27661   4.139  17.937  12.846  0.1077 -0.1830 -0.0067
11528W        W27662  18.696  14.325  13.386 -0.0822 -0.2736  0.1744
11529W        W27663  17.682   9.719   0.905 -0.0054 -0.3009  0.0095
11530W        W27664   3.314  12.791  11.389  0.2234 -0.0405 -0.0744
11531W        W27665   1.206   2.049   4.903  0.0294 -0.5473  0.0177
11532W        W27666  11.558   2.140   0.441 -0.0045 -0.2069  0.0730
11533W        W27667  17.846   8.901  10.930  0.2757  0.2386 -0.0222
11534W        W27668  17.702  17.048   2.772  0.2413 -0.2030  0.2441
11535W        W27669  12.081   4.774  14.249 -0.2631  0.1691  0.0735
11536W        W27670   8.902   0.866   3.706  0.0828  0.1272  0.1246
11537W        W27671  18.743  14.039  14.776  0.1583  0.0810  0.0054
11538W        W27672  10.549  10.491  12.346 -0.1135 -0.1568  0.3189
11539W        W27673   3.763  13.006   2.577  0.3876  0.0499 -0.2203
11540W        W27674   1.733   0.693   0.419 -0.1620  0.0936  0.0628
11541W        W27675   3.403   7.324   0.949  0.1174 -0.0102 -0.2772
11542W        W27676   9.585  10.797  11.324  0.2532 -0.0105  0.0118
11543W        W27677   5.093   0.274  10.708 -0.1239 -0.0767 -0.3273
11544W        W27678  13.733   6.880  12.163 -0.3015 -0.0674  0.2025
11545W        W27679  11.946   5.331   3.317  0.0647  0.0979  0.3515
11546W        W27680   2.803   8.469  10.425 -0.0160 -0.4772 -0.1218
11547W        W27681  16.618   1.136   1.179  0.0173 -0.0683 -0.0877
11548W        W27682  11.637   3.738  14.654  0.3089 -0.1756 -0.0078
11549W        W27683  13.588  15.689   3.085 -0.1557  0.0304  0.2519
11550W        W27684   9.494   9.218  13.205 -0.0267 -0.0573 -0.2980
11551W        W27685   4.106   1.185   3.714  0.0725  0.1324  0.1181
11552W        W27686   7.297   8.617   1.023 -0.0458  0.1928  0.1933
11553W        W27687  14.556   4.344  11.184 -0.1347  0.1311  0.3613
11554W        W27688   2.063  16.145  14.946  0.2736 -0.2313  0.3126
11555W        W27689  16.593  14.911  11.945  0.2923  0.4531  0.1514
11556W        W27690   9.363  16.704  13.050  0.1004  0.1212  0.1412
11557W        W27691   3.946  12.948  14.152 -0.1392 -0.0189 -0.0631
11558W        W27692   3.440   6.536   1.501 -0.0599  0.0994  0.3247
11559W        W27693  18.399   8.665   4.915  0.0170 -0.0201  0.0006
11560W        W27694  13.085  13.224  11.988  0.0937  0.0251 -0.2870
11561W        W27695   4.380  12.926   9.536  0.0153  0.1968  0.1453
11562W        W27696   0.035  13.684   3.680 -0.0356  0.0952 -0.0160
11563W        W27697  16.100   9.714   5.136 -0.0014 -0.3082 -0.1037
11564W        W27698   8.958   0.697  14.086 -0.3098 -0.2571  0.0977
11565W        W27699  10.455  18.254  10.842 -0.1246  0.3163 -0.0160
11566W        W27700  13.286  11.503  14.693  0.3002  0.0346  0.0970
11567W        W27701  17.281  14.219  12.442 -0.0575  0.2367  0.0438
11568W        W27702  11.158   2.521  11.693 -0.0716 -0.3076  0.1408
11569W        W27703   6.113   8.588  10.263  0.1693 -0.1518  0.1717
11570W        W27704  14.258  12.944  11.853  0.2428 -0.0296 -0.1189
11571W        W27705   8.475  10.377   2.412  0.0924  0.0028  0.0760
11572W        W27706   9.160   0.973  12.249 -0.0732 -0.1276  0.0823
11573W        W27707   9.388   4.928   1.162 -0.0782 -0.0825 -0.3988
11574W        W27708   7.775   9.869   1.728  0.2386  0.0280  0.0655
11575W        W27709  11.292   9.126  13.353  0.4682  0.1945  0.1398
11576W        W27710  15.919   0.724   0.124 -0.2622  0.1060 -0.3836
11577W        W27711   0.667   8.258   5.071 -0.0195  0.0360  0.0120
11578W        W27712  11.246  18.255   2.399 -0.1116  0.0412  0.2943
11579W        W27713  15.111   9.835   5.140  0.2165 -0.3344 -0.1613
11580W        W27714  16.592   9.421  14.282 -0.0757  0.1561  0.1383
11581W        W27715   9.440   0.722   0.683 -0.2698  0.3997  0.1235
11582W        W27716   7.122  12.476   5.509  0.1894  0.0752 -0.1182
11583W        W27717   5.943  12.574   4.245  0.3408 -0.0738  0.1245
11584W        W27718  10.433  17.776   3.485  0.1052  0.1615  0.0319
11585W        W27719  13.903   6.678  14.610  0.1116  0.1674 -0.2739
11586W        W27720   1.978   0.316  13.158 -0.3781  0.0992 -0.2217
11587W        W27721  11.164   7.309   1.846 -0.3277 -0.1294  0.1165
11588W        W27722   5.189  10.786   0.284 -0.4372  0.2076  0.0705
11589W        W27723  12.800   5.100   9.979  0.0794  0.3100  0.2323
11590W        W27724  15.670   7.136   3.473  0.1246 -0.0315 -0.0868
11591W        W27725  12.678   7.382   1.796  0.0470  0.0999 -0.3060
11592W        W27726   4.117   9.038   1.106 -0.1707 -0.0373  0.1870
11593W        W27727   1.437  14.500  11.576  0.1140 -0.1296 -0.2215
11594W        W27728  18.744  18.866   5.004  0.0509  0.3547 -0.2597
11595W        W27729   1.448   7.346  12.188 -0.0414 -0.0990  0.0656
11596W        W27730   1.937  17.194   4.001  0.4225 -0.0418  0.1153
11597W        W27731   3.656   2.249   4.290 -0.0536 -0.0559 -0.0313
11598W        W27732  14.725   2.240   4.899 -0.1684 -0.0001 -0.0502
11599W        W27733  16.325  11.590   4.647 -0.0269  0.2207 -0.0785
11600W        W27734  16.334   3.126   2.069 -0.2294  0.1227  0.0336
11601W        W27735   0.682  12.746   2.727 -0.2302  0.0078  0.1048
11602W        W27736   2.762   0.377  12.926 -0.0688 -0.2030  0.0713
11603W        W27737   2.130  16.418   1.461 -0.1271  0.0131 -0.4426
11604W        W27738   0.527   4.296   4.779  0.1487  0.1573 -0.0835
11605W        W27739  13.562  10.333  12.306  0.0180 -0.1641  0.3462
11606W        W27740   5.674  17.683  12.307 -0.0150 -0.0971  0.0018
11607W        W27741  12.714   8.571  11.804 -0.3228 -0.4926 -0.1086
11608W        W27742  17.317   6.138  12.752 -0.0152  0.0136 -0.2143
11609W        W27743   3.385   7.867  11.371 -0.2793  0.2450  0.0354
11610W        W27744  15.765  13.902   2.479  0.1575  0.0137 -0.3216
11611W        W27745  14.473   2.769   3.739 -0.1541  0.1277  0.0760
11612W        W27746   8.192   5.052   4.239  0.0006  0.1286  0.0093
11613W        W27747  16.398   9.342   4.519  0.0982 -0.0970  0.2663
11614W        W27748  11.219   9.430   1.444  0.0037  0.1009 -0.0404
11615W        W27749   6.523   6.268  11.303 -0.2812  0.0696 -0.1330
11616W        W27750  18.800   8.731   0.179 -0.0486 -0.0727  0.0171
11617W        W27751  13.280   9.841   1.300  0.0061 -0.0140  0.0557
11618W        W27752  11.714   8.290  13.032 -0.0861 -0.1431  0.2393
11619W        W27753   6.495  19.079   5.748  0.0341 -0.0879 -0.0005
11620W        W27754  10.534   0.343  14.293  0.0279  0.1054 -0.1098
11621W        W27755  10.648  18.686  10.470  0.1341  0.0881 -0.0815
11622W        W27756  10.612  11.287   0.435  0.1369  0.0004 -0.3273
11623W        W27757  17.932   2.650   3.097  0.0546  0.0155  0.2032
11624W        W27758   3.442   3.741  11.449 -0.3502 -0.2754 -0.1078
11625W        W27759   3.522   0.005   4.068 -0.4060  0.1465 -0.1267
11626W        W27760  16.673   4.104   2.470 -0.2798 -0.1685  0.4134
11627W        W27761  18.073   7.181  10.758 -0.1322 -0.0777 -0.0176
11628W        W27762   3.900   4.385   2.694 -0.0147 -0.2914 -0.0701
11629W        W27763  19.100   1.809  10.910  0.5284 -0.1088  0.1694
11630W        W27764   1.364   6.950  13.382 -0.1325  0.0577 -0.1328
11631W        W27765  10.652   5.989   4.459 -0.0364  0.0633  0.2201
11632W        W27766   2.650   5.252   0.644  0.0747 -0.1423 -0.0034
11633W        W27767   0.723  11.368   3.160 -0.0736  0.3543 -0.2371
11634W        W27768  18.297  17.221  11.095 -0.0386 -0.1293  0.2427
11635W        W27769  10.137   2.838   4.463 -0.0903  0.0388  0.1423
11636W        W27770  17.881  11.921  14.127  0.2178  0.1862 -0.1116
11637W        W27771  18.658   4.387   3.534  0.1787  0.1782  0.4413
11638W        W27772  10.531   7.176   4.175 -0.1517 -0.0861 -0.2010
11639W        W27773   6.713  15.149  11.369 -0.0500 -0.0941 -0.0500
11640W        W27774   9.656   4.116  10.483 -0.2567 -0.1878  0.3497
11641W        W27775  13.280  11.124  13.001 -0.2915  0.0931 -0.4993
11642W        W27776  12.012  15.596  12.807 -0.0230  0.2053  0.0247
11643W        W27777   0.094  16.851   3.313  0.0509  0.3058 -0.2161
11644W        W27778   3.530  10.878   1.964  0.1077 -0.1132 -0.0530
11645W        W27779   8.308  18.767  14.637  0.0172 -0.1021  0.2665
11646W        W27780  18.047   2.041   9.976 -0.0394  0.1070  0.0474
11647W        W27781   1.432   0.768  11.112 -0.1028  0.5239 -0.1345
11648W        W27782   2.659   7.412   4.905 -0.0115 -0.3158 -0.1698
11649W        W27783  15.920   1.040  10.404 -0.0750  0.0853 -0.0502
11650W        W27784   1.748   5.126   0.095 -0.0936 -0.0199 -0.1371
11651W        W27785   0.079   4.338  13.439 -0.3191  0.1187  0.3954
11652W        W27786   9.378  17.406  13.556  0.0361 -0.2735 -0.2764
11653W        W27787   1.155   2.592   3.183  0.0941  0.0536  0.0556
11654W        W27788   7.378   6.262  10.284 -0.2075  0.1068 -0.3270
11655W        W27789  14.598   9.245  14.064  0.1401 -0.2676  0.0819
11656W        W27790   4.804  12.435   0.333 -0.0091 -0.0377 -0.0347
11657W        W27791  13.666  13.540   2.997 -0.3228  0.0715  0.1594
11658W        W27792  17.040  11.205  13.179  0.2585  0.1933 -0.1380
11659W        W27793   2.661  18.698   4.250  0.0855 -0.1974 -0.0449
11660W        W27794  17.784   5.576   3.428  0.2974  0.2000 -0.0981
11661W        W27795   4.150   9.835  12.376 -0.0047  0.0443  0.2181
11662W        W27796   3.271   4.401  14.475  0.1242 -0.0884 -0.0057
11663W        W27797   6.568  10.559  14.834  0.0254 -0.2647  0.2459
11664W        W27798  19.011  10.969  12.726  0.4159 -0.4498  0.1276
11665W        W27799   9.787  10.589   0.960 -0.3277 -0.0309 -0.0164
11666W        W27800  15.699  12.427   2.692  0.0636  0.1570  0.0028
11667W        W27801  14.323   0.562   5.388 -0.2460  0.2114 -0.0886
11668W        W27802   6.755   4.042  12.547 -0.2726 -0.5609  0.1670
11669W        W27803  15.819   0.742   4.252  0.1600 -0.1721 -0.0398
11670W        W27804  12.832  18.952   2.659  0.2172 -0.1969  0.1090
11671W        W27805  13.910  18.234  13.035  0.0791  0.0906  0.1732
11672W        W27806   0.541  15.642   2.946 -0.3945  0.0212 -0.0874
11673W        W27807  17.758   0.664  14.278 -0.1766  0.0601  0.1401
11674W        W27808   9.449   9.471   3.522  0.2913  0.4680 -0.1275
11675W        W27809   7.560   0.913  11.917  0.0635  0.1272  0.0036
11676W        W27810   7.485  18.036   0.887  0.1013 -0.1588 -0.0257
11677W        W27811   5.746   5.596  13.299  0.3771 -0.0097 -0.2259
11678W        W27812  16.702   1.786  13.252 -0.2740  0.1342  0.0854
11679W        W27813   8.359  16.597   2.853  0.2511 -0.1508  0.2213
11680W        W27814  13.685   3.781   2.684  0.1886 -0.1602  0.1384
11681W        W27815   3.021   2.423   3.660 -0.1693 -0.0758 -0.2084
11682W        W27816  10.513   5.582   3.570 -0.3173 -0.4111  0.2999
11683W        W27817  11.138   5.331  10.949  0.0839  0.1129  0.1010
11684W        W27818  15.697   9.802   1.252  0.1421 -0.1787 -0.0189
11685W        W27819   7.814  12.548   0.868 -0.2394  0.2029  0.1154
11686W        W27820   1.865  17.198  13.651  0.1745 -0.1311 -0.3146
11687W        W27821  16.484  18.022   4.782 -0.3771  0.2602 -0.3239
11688W        W27822   2.531  11.627   3.595  0.1064 -0.4018  0.2939
11689W        W27823   3.881   6.546  10.395  0.0991 -0.2733 -0.2880
11690W        W27824  10.063   6.283  10.400  0.1174 -0.1974 -0.3533
11691W        W27825  17.277   5.143   4.835  0.0684 -0.0984 -0.1309
11692W        W27826  10.286   1.949  10.874  0.2671 -0.0548 -0.4008
11693W        W27827   9.805   0.074   2.745 -0.0174 -0.1011 -0.3020
11694W        W27828  10.221   6.217   3.037  0.0472  0.0228  0.1289
11695W        W27829  15.451   4.060   1.775 -0.3258  0.1285  0.4556
11696W        W27830  10.882   7.407  11.630 -0.0019 -0.0743 -0.1754
11697W        W27831   6.832  17.368   1.389 -0.0531 -0.1286  0.3636
11698W        W27832   5.860  11.706   1.490 -0.1604  0.1251  0.0719
11699W        W27833  13.736  16.856  14.991 -0.3562  0.2215  0.1956
11700W        W27834  18.552   1.077  13.892 -0.0167  0.4551 -0.2770
11701W        W27835  16.005   1.156  12.750  0.0052 -0.1639 -0.3168
11702W        W27836  15.393  19.188  14.262  0.1605 -0.2868  0.1198
11703W        W27837   0.717   0.547  11.519  0.2051 -0.0590 -0.1091
11704W        W27838  13.615   2.668  14.824 -0.0800 -0.0952 -0.0521
11705W        W27839  18.317  17.150  10.583  0.2836 -0.2044 -0.1475
11706W        W27840   8.814  16.023   0.496 -0.0478 -0.3337 -0.1677
11707W        W27841  16.298   8.768   1.870  0.3716 -0.0322  0.1800
11708W        W27842   6.748  18.412  11.256 -0.2712 -0.0548 -0.2793
11709W        W27843  10.395  12.153   0.036  0.0663  0.0993  0.0124
11710W        W27844  14.325  14.018   0.520  0.1978  0.0668  0.0051
11711W        W27845  16.376   2.205   2.066 -0.2481 -0.1958  0.0629
11712W        W27846   3.115   1.141   0.461 -0.0385 -0.2155  0.1154
11713W        W27847  13.231  13.971   4.840 -0.1808 -0.1931  0.1910
11714W        W27848   1.388   9.238  13.672 -0.0310 -0.2000 -0.0516
11715W        W27849   6.035   4.436   4.618 -0.2562  0.0086  0.1876
11716W        W27850  16.064   4.812   2.175 -0.2923 -0.0899  0.4075
11717W        W27851  17.756   9.042  14.692 -0.0574 -0.1968 -0.2903
11718W        W27852  13.924  11.234   0.122 -0.0829  0.1719 -0.2668
11719W        W27853  10.622   1.954   3.955  0.0157  0.3205  0.5093
11720W        W27854  12.410  18.246   4.009  0.0533  0.0777  0.0392
11721W        W27855  13.384  15.795   2.103  0.3496 -0.1803  0.0662
11722W        W27856  14.774  11.983  13.636  0.0498 -0.1027 -0.2594
11723W        W27857  17.917  14.327   3.301  0.2145 -0.2133 -0.2388
11724W        W27858  17.345   7.998  13.975 -0.1362  0.2462 -0.0147
11725W        W27859   4.348  10.240  12.613  0.2546 -0.2345  0.0300
11726W        W27860  10.998   3.120   4.478 -0.1022  0.1214  0.1706
11727W        W27861   1.768  15.806  13.168  0.4222  0.0020  0.0168
11728W        W27862  17.683   2.934   4.483  0.1955 -0.4684 -0.2879
11729W        W27863   2.732  13.952   4.352 -0.2220  0.1910  0.1094
11730W        W27864  13.852  18.069   2.344 -0.1255 -0.2980 -0.0465
11731W        W27865   0.634   8.832   1.827  0.1015 -0.2105  0.0769
11732W        W27866  15.516  12.552  12.612  0.0268  0.3985  0.0872
11733W        W27867  16.166  18.235   2.376 -0.0983  0.3002  0.1572
11734W        W27868   1.288   6.637   2.156 -0.0382 -0.0536  0.0573
11735W        W27869  10.224  14.708  12.057  0.0982 -0.2684  0.0820
11736W        W27870   5.267   5.019   4.213  0.0956 -0.2173 -0.1073
11737W        W27871   5.776  17.779  11.133  0.0122  0.1121  0.1092
11738W        W27872   6.296   3.060  11.723 -0.1701 -0.1625 -0.0970
11739W        W27873   8.549  13.710   4.401  0.0052  0.0060  0.2115
11740W        W27874   9.061  13.364  12.334  0.0542  0.0678  0.0705
11741W        W27875   3.495  16.297  13.528  0.3344 -0.1938 -0.0079
11742W        W27876  14.763   7.817  14.274 -0.2064 -0.2293 -0.2055
11743W        W27877   7.117   8.243   9.979 -0.0116  0.2736 -0.0771
11744W        W27878   2.477  13.268  10.973 -0.1416 -0.0626 -0.2219
11745W        W27879  14.077   9.865   1.682  0.1747  0.2551  0.2334
11746W        W27880   0.563  19.235   0.051 -0.1206  0.2565  0.0767
11747W        W27881   1.400  13.720  10.849  0.2298 -0.3410 -0.0728
11748W        W27882   3.978  14.135   5.460  0.5142  0.2076 -0.0065
11749W        W27883  16.448  18.156  12.313 -0.0043  0.0362  0.2899
11750W        W27884  10.454   3.224  14.717  0.2317  0.0982 -0.0549
11751W        W27885   8.022  15.835  14.525 -0.4182 -0.1556 -0.1933
11752W        W27886   5.323  17.585  10.786 -0.0336 -0.1266  0.0114
11753W        W27887   1.011  16.164  10.643 -0.0928  0.1206  0.2219
11754W        W27888   0.505   5.584   4.548  0.0869 -0.1580 -0.2320
11755W        W27889  14.533  11.737   3.776 -0.1959  0.1856 -0.0213
11756W        W27890  15.422  12.253  10.936  0.0944 -0.4574  0.1204
11757W        W27891   9.056  12.333  10.803 -0.0097 -0.1486  0.1359
11758W        W27892  16.594   3.387   0.684  0.1386  0.0257  0.1227
11759W        W27893   4.212  18.363   1.976  0.2243 -0.0361  0.1426
11760W        W27894  14.203   7.412  10.576 -0.0578 -0.0436 -0.2351
11761W        W27895  16.982   7.227  13.287  0.0295  0.0260  0.0390
11762W        W27896   3.991   7.541   0.880 -0.0737 -0.4379  0.0430
11763W        W27897  17.283   8.929   2.099 -0.3639  0.2607 -0.1644
11764W        W27898   4.322  12.859   3.935 -0.0513 -0.1556 -0.0920
11765W        W27899   7.866  10.727  11.972  0.0157 -0.0833 -0.1910
11766W        W27900  16.948   2.505  10.871 -0.1295 -0.0332  0.3536
11767W        W27901  12.946  15.897   0.128  0.0543  0.0976  0.3656
11768W        W27902   5.567   0.876  11.445  0.0327 -0.0882 -0.2079
11769W        W27903  18.183   4.247  12.867 -0.1152 -0.0759 -0.0018
11770W        W27904   7.205   2.220  10.769 -0.0849 -0.0756  0.3831
11771W        W27905  14.288  15.309   3.060 -0.1459  0.0209  0.0155
11772W        W27906  13.919   5.274   0.509 -0.0994  0.3231 -0.3607
11773W        W27907   7.852   6.244  14.217 -0.0037 -0.2190 -0.2336
11774W        W27908   5.857   7.661  14.033 -0.0583  0.0231 -0.1949
11775W        W27909   2.732  12.468   3.577 -0.0861 -0.0689  0.3855
11776W        W27910  12.534  14.864  13.596  0.0968  0.1584  0.3044
11777W        W27911  10.555   3.571  10.188  0.0041 -0.1643  0.2216
11778W        W27912  18.196  11.846   2.495 -0.1516  0.1491  0.2386
11779W        W27913   1.733  14.865  14.715 -0.2822  0.2808  0.0335
11780W        W27914   5.983   1.715   4.754  0.1444 -0.1422 -0.0909
11781W        W27915   6.601   5.436   2.611  0.2538 -0.0754 -0.0517
11782W        W27916   2.168   6.565   3.577  0.0347  0.1487  0.0916
11783W        W27917  10.036   4.307   3.971  0.1092  0.0201  0.0048
11784W        W27918   2.757  14.219   1.382  0.1203 -0.1007  0.1544
11785W        W27919  10.172   2.298  13.703 -0.1778  0.1066 -0.2878
11786W        W27920   4.362   8.837   9.268  0.1904 -0.0072 -0.2673
11787W        W27921   2.715  11.799   4.079  0.0179  0.0703  0.0250
11788W        W27922   2.559  10.909   4.241  0.3321 -0.0908  0.0799
11789W        W27923   8.253  15.129   5.148 -0.0685  0.0161 -0.2168
11790W        W27924  10.930  14.411  12.457  0.1275 -0.0236 -0.0833
11791W        W27925  14.577  11.698  14.123 -0.1435 -0.2932  0.0004
11792W        W27926  17.140  12.594   0.648  0.0472  0.0545 -0.2106
11793W        W27927   4.434  12.601   4.371 -0.2373  0.2805  0.3171
11794W        W27928   5.417   2.564   2.034  0.1551 -0.0255  0.1780
11795W        W27929   5.007  11.781   3.471 -0.0238  0.0381  0.0172
11796W        W27930   8.274   8.738   3.272 -0.0443  0.0688  0.1343
11797W        W27931   8.234  15.432  13.506 -0.0947 -0.0205  0.1025
11798W        W27932   1.742  14.052   2.335  0.0671 -0.1499 -0.0066
11799W        W27933   1.293  10.561  12.275 -0.2183 -0.0192  0.1125
11800W        W27934  18.866   5.489   2.579 -0.1573  0.2642 -0.0902
11801W        W27935   7.036   4.300  11.581  0.0781  0.1285 -0.2969
11802W        W27936  15.532   2.164   0.096 -0.3734  0.2565 -0.0724
11803W        W27937  17.882  13.253  12.579 -0.1113  0.1219  0.2205
11804W        W27938  14.675  11.185   5.381  0.1200 -0.0300 -0.2453
11805W        W27939   2.234  16.814  14.401  0.1045 -0.3473  0.1464
11806W        W27940  17.517  15.408  12.965  0.1006  0.3402  0.2047
11807W        W27941   8.856   4.808   3.603  0.1841  0.0076 -0.1534
11808W        W27942  14.422   3.092  10.347  0.1711 -0.1374 -0.1741
11809W        W27943  14.642   8.557   2.227  0.3861  0.2206 -0.2598
11810W        W27944  12.340  13.062  12.507  0.1717  0.1132 -0.1830
11811W        W27945   8.422   5.389   2.882 -0.0317  0.0879 -0.2560
11812W        W27946  12.706   2.696   2.486  0.0225 -0.2467 -0.0284
11813W        W27947  15.151  12.284   0.283 -0.2077  0.4106 -0.4421
11814W        W27948   8.187   8.947  11.537  0.1156 -0.0334 -0.0910
11815W        W27949   6.999   9.135  12.843  0.0262  0.0651  0.0807
11816W        W27950  11.620   9.757  14.108 -0.1078 -0.0748  0.1801
11817W        W27951  10.209  16.455   2.101 -0.2413  0.3220 -0.1397
11818W        W27952  13.310   5.544   1.804 -0.1111  0.0739  0.0063
11819W        W27953  14.093  15.006   4.732 -0.2330  0.1014 -0.0065
11820W        W27954  16.383  13.523   0.314 -0.1225  0.0305  0.2052
11821W        W27955  12.001   1.939   1.509 -0.3426 -0.1837  0.1188
11822W        W27956   5.904   9.855   4.202 -0.1291 -0.1562 -0.0163
11823W        W27957  11.587  16.199   1.828 -0.1473 -0.0339 -0.0728
11824W        W27958  13.795  12.981   5.200 -0.1142 -0.0457  0.3165
11825W        W27959   3.553  11.621   0.542 -0.0148 -0.3765  0.1786
11826W        W27960   2.248   7.317   4.602 -0.0091 -0.0529 -0.3814
11827W        W27961  12.093   3.308   0.703  0.0302  0.1107 -0.1752
11828W        W27962   5.217  18.721  14.459  0.2281 -0.1466  0.0144
11829W        W27963   6.780   9.503   2.444 -0.0591 -0.0879  0.0743
11830W        W27964   7.625  15.923   4.829  0.2190 -0.0984  0.1338
11831W        W27965  14.492   3.053  11.440 -0.0300  0.0299  0.3087
11832W        W27966   1.035  12.407   1.176  0.0238  0.2876 -0.0419
11833W        W27967  10.215   2.754  11.629 -0.0499 -0.1010 -0.1269
11834W        W27968   9.317  14.412   0.856 -0.2031  0.0871 -0.1212
11835W        W27969   9.764  15.260   1.863 -0.0414 -0.0628 -0.1976
11836W        W27970  18.933   2.085   1.021  0.1202  0.1586  0.0096
11837W        W27971  15.162  16.319   2.196 -0.1361 -0.3845 -0.0494
11838W        W27972   9.610  11.799  11.735  0.0918 -0.0211 -0.0418
11839W        W27973   4.037   6.194   1.381 -0.2077  0.0101  0.0390
11840W        W27974   6.861  13.261   3.857  0.2092  0.1644 -0.1353
11841W        W27975  10.260   7.575   3.758  0.0482  0.0402  0.3234
11842W        W27976   9.776   2.143   0.373 -0.0730 -0.0137  0.0752
11843W        W27977   7.901   0.912   1.436 -0.0220  0.4269  0.2195
11844W        W27978  10.191   6.512   2.537  0.1419 -0.3440 -0.0655
11845W        W27979  10.721  18.197   2.272 -0.0381 -0.0589 -0.1423
11846W        W27980   6.138   8.419  14.099 -0.0366 -0.3357 -0.0126
11847W        W27981  18.331  12.779   0.332  0.0317  0.1034 -0.0040
11848W        W27982  10.581  16.932  11.452  0.0907  0.1733 -0.0154
11849W        W27983   4.757   8.301   1.202  0.0243 -0.0483 -0.0516
11850W        W27984   2.292   6.374   2.246  0.0799  0.1191 -0.1558
11851W        W27985   8.422  11.760   9.984 -0.0112  0.2515 -0.0735
11852W        W27986   1.531   3.745   5.179 -0.0741 -0.2006  0.0862
11853W        W27987   4.471  16.364   5.303  0.1701  0.0673  0.1389
11854W        W27988   5.794   2.139   4.740 -0.2586  0.1328  0.0422
11855W        W27989   5.296   5.041  11.569  0.4128 -0.1890  0.1611
11856W        W27990   6.060  11.208  14.284 -0.2703  0.2131 -0.0448
11857W        W27991  18.581  11.989  11.797 -0.1039  0.0094 -0.3456
11858W        W27992   2.055   6.910   6.062  0.0168  0.1252  0.3012
11859W        W27993  18.486   1.642  12.453  0.1636  0.5387 -0.2231
11860W        W27994  10.422  18.021   1.683 -0.1137 -0.0145 -0.3305
11861W        W27995  15.084  18.443  11.343 -0.0641  0.0588 -0.0161
11862W        W27996  16.419  11.761  11.104 -0.1864 -0.3394  0.3033
11863W        W27997   0.620   4.813   3.259 -0.0734 -0.0850 -0.0168
11864W        W27998  12.913   7.225   1.316  0.1853  0.2576  0.3977
11865W        W27999   4.965  18.800  12.615 -0.2938  0.1611  0.1083
11866W        W28000  17.881  18.014  11.923 -0.0745  0.0152  0.1039
11867W        W28001   6.779   3.200  10.840 -0.1597  0.0853 -0.0769
11868W        W28002  14.235  13.141   3.168 -0.0326 -0.3480 -0.0210
11869W        W28003  18.203  15.913  12.273 -0.0107  0.1445  0.2376
11870W        W28004  17.872  10.178   2.103  0.0353  0.0072 -0.1430
11871W        W28005   5.244   9.740  11.447 -0.2399  0.0159 -0.0958
11872W        W28006   2.303  18.558   0.702 -0.0304 -0.1112 -0.0880
11873W        W28007   3.165  14.812   0.083  0.0163  0.1472 -0.2416
11874W        W28008   7.620  12.491  13.889  0.0838 -0.2557  0.1210
11875W        W28009   8.357   7.410  11.488 -0.2537  0.1230 -0.3839
11876W        W28010  12.871  12.862   1.234  0.0240 -0.2020 -0.0230
11877W        W28011   4.373  11.150  13.246  0.1664 -0.2260  0.1521
11878W        W28012  14.136  18.713  10.353 -0.2880  0.0422 -0.3079
11879W        W28013   1.682  15.732  11.579  0.1877 -0.1033  0.1777
11880W        W28014   8.702   6.907   1.977  0.4361 -0.2480  0.1613
11881W        W28015  17.688  15.621   1.170  0.0974  0.2597  0.0601
11882W        W28016   1.921   0.004   1.679  0.0505 -0.3127  0.2341
11883W        W28017  10.036  15.754   2.760 -0.2675 -0.0121  0.1288
11884W        W28018   2.751  12.792   1.642 -0.2611  0.1529 -0.0236
11885W        W28019  11.426  11.170   4.971  0.1999 -0.2729  0.3830
11886W        W28020   0.622  16.783  13.379 -0.3129  0.3311  0.1537
11887W        W28021  12.344   6.423  13.048  0.0138 -0.2195 -0.1219
11888W        W28022  17.389  14.853  13.631 -0.0404 -0.0317 -0.0633
11889W        W28023   4.154   0.650   1.148  0.0314  0.0549  0.3044
11890W        W28024  14.193  12.215   3.521 -0.2747 -0.0367 -0.2051
11891W        W28025  13.649   1.711  12.446  0.1085  0.1148  0.3518
11892W        W28026  15.649  10.532   4.089 -0.1798 -0.1109 -0.1310
11893W        W28027   8.630  10.416   1.263  0.0280  0.2510  0.1288
11894W        W28028  17.302  16.962  13.218 -0.0801 -0.0597  0.2503
11895W        W28029  15.684  17.331   4.531 -0.5650 -0.3384  0.0812
11896W        W28030  14.277  13.764  12.485 -0.0941  0.2480 -0.0307
11897W        W28031   4.722  16.991   0.666 -0.3521 -0.2395 -0.1073
11898W        W28032  14.865   0.007   0.894 -0.1198  0.1957  0.3404
11899W        W28033   1.309  17.225  13.793 -0.0451  0.5114  0.0212
11900W        W28034   6.669   5.680  12.025 -0.0238 -0.2600 -0.0151
11901W        W28035   4.670  15.260  11.124 -0.1206 -0.1016 -0.2572
11902W        W28036  17.045   3.056   9.337  0.0218 -0.0429 -0.3294
11903W        W28037   5.983  17.012   0.963 -0.2725 -0.0514  0.1705
11904W        W28038  11.441   2.934   4.819 -0.1518 -0.1464  0.1379
11905W        W28039   3.051   4.641  10.722  0.0089  0.0861  0.1295
11906W        W28040   2.688  17.728   0.612 -0.4689  0.4161  0.1440
11907W        W28041  10.434   3.844  12.964  0.0276 -0.0942 -0.0855
11908W        W28042  15.683   7.004   1.721  0.1433 -0.0875  0.3236
11909W        W28043  10.294   8.139   0.114 -0.2525  0.3667  0.2678
11910W        W28044  10.639   5.303   0.734  0.3127 -0.1391 -0.2625
11911W        W28045   3.216   4.075   1.421  0.1558 -0.1310  0.1314
11912W        W28046  10.786   5.512   0.311 -0.1426 -0.2711 -0.3427
11913W        W28047  12.270   5.237   0.737 -0.1778 -0.2946 -0.3037
11914W        W28048  13.213   3.895  13.029  0.0668 -0.2199  0.1197
11915W        W28049  16.825   9.609  13.295  0.0768 -0.1713 -0.0693
11916W        W28050   3.493  13.731   3.632 -0.0131 -0.0809 -0.0410
11917W        W28051   4.324  10.460   0.579  0.1895  0.2653 -0.3572
11918W        W28052   2.217   0.633  12.165 -0.2756 -0.1629  0.0511
11919W        W28053   4.153   5.567  14.919  0.2745 -0.3294  0.1733
11920W        W28054  13.322  15.577  14.417  0.2117  0.0965  0.4861
11921W        W28055   4.294   4.635   2.043 -0.1526  0.2123 -0.2944
11922W        W28056  10.444   7.278  13.825 -0.1479 -0.0581 -0.1452
11923W        W28057   5.953   0.157   3.851 -0.1285  0.1107 -0.0387
11924W        W28058  13.892  17.952   1.237 -0.3310 -0.2029 -0.2414
11925W        W28059  16.841  15.242  14.810  0.1391  0.2717 -0.2095
11926W        W28060  13.683   7.532  13.840  0.1734  0.1114 -0.0620
11927W        W28061   0.380   3.886  11.624 -0.0755 -0.0794  0.1292
11928W        W28062   2.609   5.696  14.440  0.2198  0.0424 -0.2304
11929W        W28063  18.148  14.178  12.659 -0.0869  0.0622 -0.0115
11930W        W28064  12.315  15.194  12.265 -0.0690 -0.4158 -0.1078
11931W        W28065  14.985  16.890  12.839  0.1775  0.0190  0.4374
11932W        W28066   1.840  17.726   3.225 -0.2050  0.0379 -0.0344
11933W        W28067  17.724  18.744   4.263 -0.0672 -0.1908 -0.2789
11934W        W28068   5.499   8.787   2.133  0.0255  0.1179  0.2050
11935W        W28069  15.234   3.362  13.034 -0.0173  0.0091 -0.2001
11936W        W28070  16.658   2.132  14.205 -0.0042 -0.0042 -0.0518
11937W        W28071   5.377  19.132   0.410  0.0549 -0.1600  0.0325
11938W        W28072  12.131  17.922  11.990 -0.4146 -0.0888 -0.1773
11939W        W28073  18.310   8.157   4.636  0.1367 -0.2905 -0.0908
11940W        W28074  16.944  11.310   1.015  0.3721 -0.0007 -0.1785
11941W        W28075  13.722  17.526  14.884  0.0259  0.0318  0.0005
11942W        W28076  12.999  13.048   4.994 -0.1731  0.1343 -0.0099
11943W        W28077   2.424   0.821   5.239 -0.2575  0.0771  0.1276
11944W        W28078   6.122   1.209   2.326 -0.1636 -0.2355  0.1885
11945W        W28079   7.561   3.972   2.816  0.2426 -0.0133 -0.0711
11946W        W28080  12.237  17.237   0.915  0.1558 -0.0749 -0.3092
11947W        W28081   7.441   2.383   2.059  0.0224 -0.0203  0.0597
11948W        W28082   8.528  18.337  11.241  0.1111  0.0981 -0.2782
11949W        W28083   0.361   1.809   2.820 -0.2702 -0.1990 -0.2847
11950W        W28084  17.153   0.976   1.238  0.0901  0.0234  0.1669
11951W        W28085  12.015  16.648   0.406  0.0122  0.3929 -0.3224
11952W        W28086  13.934   4.173  15.008  0.0817  0.0505 -0.0693
11953W        W28087  16.450  15.070   2.185 -0.0026  0.1700 -0.0176
11954W        W28088   6.351  15.494   5.355 -0.1300 -0.1461  0.0101
11955W        W28089   9.321   4.334   2.004  0.2375  0.0378  0.0884
11956W        W28090  12.344  13.877   3.846 -0.3244  0.1646 -0.1904
11957W        W28091  16.131  15.318   3.124 -0.0102  0.1142 -0.1062
11958W        W28092  15.430   5.283  10.227  0.0771 -0.1798  0.0766
11959W        W28093   1.316  16.800   1.121  0.0951  0.1650 -0.1332
11960W        W28094  14.492   1.129   3.514  0.0554  0.4476  0.1749
11961W        W28095   0.068  17.332   3.139 -0.1119  0.0771 -0.0074
11962W        W28096   5.611   5.110   0.181 -0.1261  0.1391 -0.1739
11963W        W28097   8.703   6.346   3.761  0.1433 -0.2705 -0.2005
11964W        W28098   5.925   7.267  14.436 -0.2196 -0.1214  0.3345
11965W        W28099  11.508   2.456   4.911 -0.2326  0.0492  0.2650
11966W        W28100   9.175  15.464  12.516  0.0851  0.1159 -0.2571
11967W        W28101   3.060   3.562  13.695 -0.1643 -0.2090  0.0374
11968W        W28102   9.203  12.964   1.761 -0.1007  0.1781 -0.1608
11969W        W28103  17.048  14.201  12.885 -0.3116  0.1789 -0.2200
11970W        W28104   0.793   6.320  12.232 -0.1856  0.2661 -0.0408
11971W        W28105  18.673  15.177  12.849  0.0951  0.1491  0.4113
11972W        W28106  14.392  15.585  13.492 -0.3072  0.0318  0.0950
11973W        W28107   5.806  14.101  11.601  0.0122  0.1907  0.0423
11974W        W28108   2.718  12.456  13.749 -0.4336 -0.4666  0.1453
11975W        W28109  16.105  17.986   1.409 -0.0681 -0.0101  0.0391
11976W        W28110   7.626   7.644  10.819  0.2547  0.1939 -0.1413
11977W        W28111  17.569  15.396   0.246 -0.1543 -0.4158  0.3267
11978W        W28112  18.147  18.743   1.120 -0.5405  0.1048 -0.0435
11979W        W28113   4.702   9.969   2.762 -0.0405 -0.5104 -0.0669
11980W        W28114  18.668   6.588   1.642 -0.0271  0.0236  0.0062
11981W        W28115   0.627  15.922  14.024 -0.0972 -0.2474 -0.2086
11982W        W28116   9.035   2.667  12.416  0.2205 -0.2443  0.2171
11983W        W28117  12.148   3.336  11.263  0.3380  0.1001 -0.0179
11984W        W28118   4.483   8.755   9.805 -0.3137  0.0663 -0.0291
11985W        W28119   2.414   2.414  13.332  0.2837 -0.0449  0.0754
11986W        W28120  13.899  11.658   1.427 -0.0699 -0.5095  0.1760
11987W        W28121  13.021   8.330   4.621  0.0265  0.1718  0.4504
11988W        W28122   2.280   0.327   1.482  0.0942  0.0375  0.0041
11989W        W28123   3.880  16.211  10.512 -0.2705 -0.1541  0.0470
11990W        W28124  11.270   2.858  12.056  0.1240 -0.1659  0.1743
11991W        W28125   9.968  15.752   0.596  0.4051  0.1819  0.1899
11992W        W28126  13.309  12.665  10.324 -0.2724  0.0658 -0.1477
11993W        W28127  11.087   1.035   0.898  0.0011  0.4089 -0.0945
11994W        W28128  16.707   7.415   0.432 -0.3677  0.3826 -0.0565
11995W        W28129  10.707  14.120   2.855  0.2874  0.1889  0.2202
11996W        W28130   2.969  10.073   4.251  0.0132  0.1460  0.2271
11997W        W28131   5.497   8.010   1.383  0.1315 -0.2908  0.2278
11998W        W28132   9.112   3.679   0.744  0.1266  0.1599 -0.1773
11999W        W28133   2.038  17.110   2.594  0.1135 -0.4388 -0.2082
12000W        W28134  18.005   1.223  10.470 -0.0691  0.2468  0.2793
12001W        W28135   9.933  15.083   0.140 -0.0315 -0.2856  0.1763
12002W        W28136   8.663  15.356   0.913 -0.1825  0.1574 -0.2429
12003W        W28137   1.463   4.306  11.807 -0.1165  0.2281  0.0889
12004W        W28138  16.371   6.432  11.928 -0.0188 -0.1721 -0.1571
12005W        W28139  17.529   8.931  10.505 -0.1356 -0.0602  0.0742
12006W        W28140  10.788   3.855   0.726 -0.0340  0.0862  0.1725
12007W        W28141   3.568   3.998   2.687 -0.3915 -0.0665  0.0160
12008W        W28142   2.255   8.439   2.982 -0.0432  0.0210 -0.0675
12009W        W28143   1.380  16.104   1.673 -0.0548 -0.1776 -0.0469
12010W        W28144  16.745   4.671   1.062 -0.0161  0.0084 -0.1561
12011W        W28145   9.046   6.536   2.524 -0.0366  0.1004  0.1743
12012W        W28146   3.265   6.309   2.985 -0.0324  0.1132  0.0838
12013W        W28147   6.816   2.948   3.368 -0.1772 -0.1613  0.0515
12014W        W28148  10.847   3.265   3.248 -0.1390 -0.0570 -0.0178
12015W        W28149   9.800   2.756  10.696 -0.2526  0.4119 -0.4706
12016W        W28150   2.797   0.574   0.913  0.1385 -0.0050  0.0010
12017W        W28151   2.465   7.504  11.337 -0.1108  0.0962  0.1839
12018W        W28152   8.105  13.074   0.988  0.3085 -0.2205 -0.1340
12019W        W28153   5.979  10.429   1.212 -0.1197  0.0138 -0.0859
12020W        W28154   4.530  13.389   5.533  0.0396 -0.0540 -0.0864
12021W        W28155  11.153   5.165   1.280 -0.2294  0.0234 -0.1819
12022W        W28156  16.407   3.068  10.570 -0.1215  0.1804 -0.5360
12023W        W28157  14.158  10.615   1.812  0.2049  0.2744 -0.0406
12024W        W28158  12.069   0.041   1.553  0.0469  0.0466 -0.0348
12025W        W28159  14.949  10.809  10.815 -0.1253  0.0589  0.0313
12026W        W28160   1.225   3.370  12.153  0.0757 -0.2384 -0.3391
12027W        W28161   9.398   6.669  14.731 -0.1845 -0.0153 -0.1387
12028W        W28162  13.300   0.539   0.554 -0.2536 -0.0261 -0.0988
12029W        W28163   6.079  12.047   4.881 -0.0346  0.0753 -0.2640
12030W        W28164   0.515  16.051   1.285  0.1250 -0.3211  0.2353
12031W        W28165   3.083   3.572   5.849 -0.1281 -0.1805 -0.0470
12032W        W28166   6.802   9.587  13.549 -0.4146  0.1546  0.0921
12033W        W28167  10.217   3.963  12.551 -0.0629 -0.0701  0.1685
12034W        W28168  16.939  15.268   3.804  0.1733  0.2009 -0.1662
12035W        W28169   4.756  13.760  13.277  0.0457 -0.0760  0.0697
12036W        W28170  15.074   3.880   0.394 -0.1554 -0.4075  0.1934
12037W        W28171   8.515  13.702   3.343  0.1374 -0.1489 -0.1615
12038W        W28172  17.127  14.136   1.464 -0.1647  0.2339 -0.1156
12039W        W28173  12.486   5.096  14.597  0.0771 -0.1974  0.2540
12040W        W28174  14.320   5.642   2.302  0.0807  0.2665  0.1101
12041W        W28175   8.580   8.390  13.133 -0.2555  0.0377 -0.0796
12042W        W28176  10.227  13.109   0.356  0.2654 -0.2658  0.0756
12043W        W28177  14.661  18.285  12.408 -0.3259 -0.0987 -0.2251
12044W        W28178   9.405   9.331  13.757  0.0132  0.2221  0.1711
12045W        W28179   4.876  11.959  10.900 -0.1295  0.0161  0.2857
12046W        W28180  15.188  17.910   4.568  0.1080 -0.1047 -0.1027
12047W        W28181   0.641   9.591  10.600 -0.0647 -0.0089  0.2018
12048W        W28182  14.623  16.458   3.749 -0.1290  0.3208  0.1316
12049W        W28183  18.105   9.439   0.407  0.0497  0.1562 -0.1627
12050W        W28184   4.466  11.152   1.852 -0.2869 -0.2149 -0.2333
12051W        W28185  18.370   0.602  13.380  0.3161  0.0161  0.0501
12052W        W28186   0.684  16.758   5.679  0.0530  0.0791  0.0209
12053W        W28187   5.473   9.143  14.913  0.1005 -0.2460  0.0469
12054W        W28188  17.710  15.616  11.539 -0.3605 -0.1231 -0.2914
12055W        W28189  15.396  14.922  14.896 -0.2319  0.0232 -0.0374
12056W        W28190   4.320   4.809  10.716  0.3252  0.0582 -0.4281
12057W        W28191  10.640  13.554  13.687 -0.3786 -0.1406  0.2900
12058W        W28192   2.525  16.015  10.678  0.0777  0.0823  0.0673
12059W        W28193   2.560  10.239  11.182  0.1372 -0.1792 -0.1060
12060W        W28194   1.558   7.903   0.713 -0.1398 -0.1001  0.1699
12061W        W28195  18.075  11.714  13.656 -0.1637  0.0236  0.2782
12062W        W28196  11.970  18.594  14.589  0.2168 -0.0077 -0.2780
12063W        W28197   9.490  18.113   1.673 -0.2263 -0.1407  0.1451
12064W        W28198   9.285  18.892  13.030  0.2045  0.1210 -0.3054
12065W        W28199   0.792   6.744  13.342  0.0237 -0.2438 -0.0609
12066W        W28200  13.604  12.289   4.085 -0.1622  0.0186 -0.1125
12067W        W28201   3.579  18.417  13.328 -0.0620  0.1130 -0.1518
12068W        W28202   4.834  11.237  14.048  0.2640  0.0757 -0.2998
12069W        W28203  10.657  17.020  14.265  0.0550 -0.2644  0.5917
12070W        W28204   5.654   3.361  13.373 -0.0955  0.0554 -0.2509
12071W        W28205   4.433   8.085  11.860  0.1244 -0.3199 -0.3281
12072W        W28206   6.831  17.101  14.938  0.0555 -0.0388 -0.0911
12073W        W28207   0.969  13.397   0.900 -0.0288  0.1092  0.3808
12074W        W28208   2.004  14.806  11.222 -0.0505  0.2235 -0.2981
12075W        W28209   3.746  18.897   4.862  0.0724  0.0720  0.4019
12076W        W28210   0.888  12.430   3.928 -0.1258 -0.1928  0.1532
12077W        W28211   2.735   1.485   0.952 -0.1200  0.2295 -0.0706
12078W        W28212   7.965   7.782  11.612  0.2522 -0.1103 -0.2543
12079W        W28213   3.374   1.565   3.748 -0.0326  0.0890 -0.4372
12080W        W28214   6.899   0.786   2.628  0.0904  0.1665  0.1173
12081W        W28215   8.292  18.784   4.433  0.1329 -0.2102  0.2228
12082W        W28216   9.610   3.338  14.528  0.1800  0.5373 -0.3149
12083W        W28217   4.988  13.915   0.492 -0.1467  0.2407  0.0085
12084W        W28218   5.230  12.267   2.528  0.3219 -0.0302 -0.0608
12085W        W28219   9.751  12.469  13.939 -0.0768  0.0872  0.1655
12086W        W28220  16.067   3.894   3.923 -0.1701  0.3873  0.1169
12087W        W28221   7.935  18.037  12.761 -0.3570 -0.2207  0.2305
12088W        W28222   2.348  12.910  11.427  0.1386 -0.1359  0.2023
12089W        W28223  15.112  14.605  12.178  0.0559 -0.2097  0.2304
12090W        W28224  16.825   8.327   9.522 -0.4245  0.0581  0.0419
12091W        W28225  13.531  16.827   9.841  0.2767 -0.3066  0.0036
12092W        W28226  16.439  10.596  11.735  0.1555  0.1071  0.3049
12093W        W28227  18.232  13.194   5.013 -0.4577 -0.0838 -0.1986
12094W        W28228  12.326  19.064   2.744 -0.0467  0.0129 -0.4134
12095W        W28229  13.942  11.419   4.631 -0.2428  0.3278 -0.0685
12096W        W28230   4.912   6.149   1.233  0.0042 -0.0713  0.1899
12097W        W28231   4.658  18.597   2.159 -0.0416  0.0229  0.0905
12098W        W28232   4.138   4.193  12.565 -0.1506 -0.0760 -0.2074
12099W        W28233   8.902  18.905   3.588 -0.0535  0.0188 -0.0308
12100W        W28234  13.256  14.775  11.179 -0.2844 -0.1697  0.0403
12101W        W28235  12.878   2.724  14.526  0.0180  0.0430  0.3231
12102W        W28236   4.521   1.714   2.172 -0.1349  0.2544 -0.1455
12103W        W28237   4.115   1.437   2.187  0.2318 -0.0215  0.0841
12104W        W28238  12.849   7.067  11.821 -0.1652  0.1326  0.1117
12105W        W28239  15.414  10.082   3.793  0.0147  0.0665  0.1014
12106W        W28240  17.050   4.965  12.787  0.0184  0.0219 -0.2129
12107W        W28241   2.883   3.769   1.052  0.1116 -0.1307  0.0577
12108W        W28242   6.097  15.628  15.035 -0.1439 -0.0932  0.2041
12109W        W28243   2.546  12.591   0.283 -0.2512 -0.1735  0.2739
12110W        W28244   8.589   2.788   0.523 -0.0260  0.1912  0.3393
12111W        W28245   9.331  10.976   0.332 -0.1180  0.0630  0.0231
12112W        W28246  16.505  16.190   3.525 -0.0624 -0.0562 -0.0856
12113W        W28247  10.366   0.209  10.764  0.0061  0.1849  0.1226
12114W        W28248   8.649  12.752  10.931 -0.4013 -0.3356  0.1458
12115W        W28249   7.889   7.455   4.758  0.4138 -0.1011  0.0268
12116W        W28250  14.210  18.873   4.260  0.1369 -0.4404  0.0521
12117W        W28251  16.778   1.855   2.544  0.1412 -0.1558  0.1340
12118W        W28252   1.345   0.939  14.306  0.0016 -0.0433  0.0523
12119W        W28253  10.937  12.081  10.873 -0.3096 -0.1535  0.0609
12120W        W28254   0.656  17.429   4.010 -0.0704  0.2386 -0.0399
12121W        W28255  12.604   1.074  11.658  0.2424 -0.0028  0.0656
12122W        W28256  10.734   5.515  13.586  0.1007 -0.1879 -0.0371
12123W        W28257   4.078   1.936   0.119  0.0288 -0.4602 -0.2657
12124W        W28258  14.859   0.125  14.144 -0.0323 -0.2545 -0.0229
12125W        W28259   9.771  16.377   3.907  0.1790  0.1728  0.3887
12126W        W28260   5.190   5.807   1.371 -0.0073  0.0868  0.0520
12127W        W28261   6.275  12.496  13.867 -0.1166  0.1673 -0.2803
12128W        W28262   3.675  10.814  12.732 -0.1012 -0.0178 -0.4597
12129W        W28263   8.618  18.451  13.608 -0.2495 -0.2291  0.0001
12130W        W28264   6.627  10.701  14.267  0.1301 -0.0951  0.0240
12131W        W28265  15.391  11.487  14.150  0.1315  0.0482 -0.1500
12132W        W28266   2.113   1.250   5.300  0.0264  0.5127 -0.1319
12133W        W28267   3.802  11.156   4.556  0.1874 -0.0759 -0.2687
12134W        W28268  14.315  14.518  13.693  0.0370  0.2670 -0.5106
12135W        W28269  17.880   1.778  14.041 -0.2458 -0.1710  0.2758
12136W        W28270  13.980  14.410  11.762 -0.0735  0.1719 -0.1724
12137W        W28271  15.537   0.601   4.632 -0.3217  0.0528  0.1518
12138W        W28272  19.101  19.017   1.048 -0.1180 -0.2601  0.0438
12139W        W28273   4.767  12.901   4.719 -0.2875 -0.0194 -0.0796
12140W        W28274   7.290  17.951  14.139 -0.1698  0.1700  0.0401
12141W        W28275  18.649  10.822  14.121  0.3632  0.1015 -0.0776
12142W        W28276  14.312   0.900  11.996  0.3223 -0.0307 -0.2118
12143W        W28277  14.715   9.729   3.910  0.2106  0.0127 -0.2839
12144W        W28278   4.809  18.937   0.547  0.1563  0.1944 -0.0477
12145W        W28279  14.247   8.300   3.843 -0.1597  0.0292  0.2589
12146W        W28280  18.192  16.938   0.962 -0.2206 -0.0777 -0.0684
12147W        W28281  10.518  10.675   1.892  0.0257 -0.2101 -0.2511
12148W        W28282   2.784   0.423   1.386  0.0839  0.1760  0.0655
12149W        W28283   7.263   8.477  14.233  0.1111  0.1053 -0.4097
12150W        W28284   0.285  14.367   0.160 -0.0538  0.3269  0.3863
12151W        W28285   0.963  11.470  13.051 -0.2022 -0.2043 -0.0683
12152W        W28286   6.127   1.652   1.488 -0.0208  0.0144  0.3915
12153W        W28287   8.768  12.849   2.524  0.2294 -0.0016 -0.0020
12154W        W28288  17.377  18.700   1.677 -0.1099 -0.1967  0.0736
12155W        W28289   4.198  11.497   4.876 -0.4226  0.0820 -0.0651
12156W        W28290   3.900   7.223   0.077 -0.0749  0.2505  0.1558
12157W        W28291  13.595   3.858   3.357 -0.2449  0.4822 -0.0504
12158W        W28292   9.720   5.634   3.064 -0.3579 -0.2799  0.0435
12159W        W28293  15.225   5.751  14.440  0.5278  0.0779  0.3310
12160W        W28294   2.297   0.668   4.661 -0.3354 -0.0274 -0.0788
12161W        W28295  15.781   3.111  11.515 -0.2272  0.2190 -0.3293
12162W        W28296   2.013   1.754  14.050  0.1147  0.0177 -0.3666
12163W        W28297   0.390  10.892   3.756  0.3199 -0.0850 -0.0988
12164W        W28298  15.697   2.578  14.414  0.1409 -0.2768 -0.1076
12165W        W28299  19.122  11.677   4.161  0.3755  0.1136  0.0740
12166W        W28300  18.654   9.253  14.265  0.1149 -0.1970 -0.1322
12167W        W28301  19.168  14.490   3.166 -0.2156 -0.0518  0.0406
12168W        W28302   0.870  17.273  10.429  0.0490 -0.2154  0.0836
12169W        W28303   7.377  14.751  11.734 -0.1917 -0.1865  0.0515
12170W        W28304  16.395   9.252   3.857  0.3812 -0.4482 -0.2281
12171W        W28305   1.101   5.244  12.838 -0.3803  0.0694  0.1297
12172W        W28306   4.109   7.920  14.313 -0.1709 -0.1543  0.2887
12173W        W28307  14.140   1.388   2.011 -0.0826 -0.2329  0.0262
12174W        W28308   7.254   1.968  11.688  0.0333  0.0347 -0.4728
12175W        W28309  17.338  14.181  10.582 -0.3396  0.0212  0.0465
12176W        W28310   2.043  10.694  11.898 -0.3331  0.0163  0.0189
12177W        W28311   3.990  11.112  11.703 -0.0592  0.2691  0.0000
12178W        W28312   3.665  18.012  14.931 -0.2090  0.3591 -0.2390
12179W        W28313   5.253   3.780   3.746  0.1878 -0.0060  0.0855
12180W        W28314  15.952  13.346   4.783 -0.0748 -0.0684  0.0997
12181W        W28315   6.843  18.242   3.300 -0.0734  0.2178  0.2642
12182W        W28316   6.774  10.887   1.488 -0.1288  0.2025 -0.1022
12183W        W28317   0.635  11.498  14.253  0.0036  0.0988  0.1726
12184W        W28318   3.067   3.903   2.481 -0.2063  0.1766  0.1917
12185W        W28319   0.461   0.758  11.110  0.0463  0.1065  0.1534
12186W        W28320  15.572  12.748   5.467 -0.1240  0.1220 -0.3267
12187W        W28321   4.435  18.504   1.026 -0.1948 -0.2877 -0.3553
12188W        W28322  18.357  18.441  14.076  0.2890  0.0424  0.1108
12189W        W28323   8.776   8.865  14.369 -0.3096 -0.0100  0.1029
12190W        W28324   6.393  11.096   0.732  0.0373  0.1052  0.3055
12191W        W28325   7.132  17.041  13.170 -0.0615  0.1249  0.1835
12192W        W28326   7.942   3.924   3.545  0.1061 -0.1693 -0.1042
12193W        W28327   9.938   7.405  14.877  0.0422 -0.3134  0.0949
12194W        W28328  17.257   8.415  11.603 -0.1763  0.4462 -0.1265
12195W        W28329   6.530  15.559  14.596 -0.2659 -0.0102 -0.2466
12196W        W28330   4.300  13.080  10.414 -0.0938 -0.2144  0.0599
12197W        W28331   8.531  14.211  13.210 -0.1482  0.1482 -0.0191
12198W        W28332   5.215   4.729   0.563  0.1624  0.1474  0.2805
12199W        W28333  15.305   6.227  10.263  0.1812 -0.1284 -0.3420
12200W        W28334   4.829  16.210  10.549 -0.1735  0.2051 -0.1763
12201W        W28335   9.353   2.580  11.226 -0.3094 -0.2222  0.1281
12202W        W28336  15.853  14.104   1.517 -0.0297  0.1247 -0.2585
12203W        W28337  17.348   1.871   2.175 -0.3666  0.4703 -0.1555
12204W        W28338  13.135  15.128  12.085  0.3080 -0.0250  0.0082
12205W        W28339   9.935   9.976  11.601 -0.1291 -0.0889  0.0410
12206W        W28340  16.712   4.170   2.998 -0.2852  0.0472  0.1753
12207W        W28341   7.141  15.816  10.571  0.0588 -0.2059  0.0183
12208W        W28342   7.378  15.106   1.159 -0.1150  0.4213 -0.3355
12209W        W28343  17.000   4.258  13.732 -0.0450 -0.2601 -0.0951
12210W        W28344   9.466  16.992   2.189  0.0435 -0.1880  0.1548
12211W        W28345   2.576   2.247  14.813  0.2070 -0.1416  0.0763
12212W        W28346  16.165  10.197  12.515  0.0759 -0.0366 -0.3473
12213W        W28347   6.009   7.782  11.815  0.1761 -0.2249  0.1020
12214W        W28348   6.881   1.823   2.426 -0.1516  0.1278  0.0147
12215W        W28349   6.606   0.409   2.386  0.1629  0.2304 -0.3238
12216W        W28350   5.030   9.256   0.054 -0.4654 -0.0426 -0.1068
12217W        W28351   3.678  14.135   1.670  0.0379 -0.1721  0.0447
12218W        W28352   4.667  13.528  14.590  0.3086 -0.1855  0.4396
12219W        W28353   4.576   8.770   1.303  0.2431  0.0458 -0.0152
12220W        W28354   4.167   1.979   1.846  0.2348  0.1658  0.0820
12221W        W28355  11.513  18.941   0.567 -0.2842 -0.0764  0.1472
12222W        W28356  17.254   5.492  12.565 -0.0941 -0.0164  0.1995
12223W        W28357  14.577   2.563  11.201  0.1126 -0.1868  0.0143
12224W        W28358   4.628  14.062   2.349 -0.0773  0.0571  0.0772
12225W        W28359  12.286   3.845   4.392  0.2213 -0.3396  0.3069
12226W        W28360   9.755  13.024   1.663 -0.1647  0.2277  0.2545
12227W        W28361   2.235   1.483   0.621  0.2632  0.1125  0.0394
12228W        W28362   4.186  17.871  14.070  0.2108 -0.6375  0.0096
12229W        W28363   0.925   5.640  11.488 -0.3260 -0.1038  0.1840
12230W        W28364  11.789  17.656   2.226  0.3045 -0.1090 -0.0779
12231W        W28365   2.788   7.009  12.289 -0.1781  0.2497 -0.0106
12232W        W28366   0.576   4.977  12.054 -0.1607  0.1773  0.1719
12233W        W28367  17.959   9.266  12.676 -0.0087 -0.0140  0.0628
12234W        W28368   8.910   5.070   1.930 -0.0568  0.0649 -0.1844
12235W        W28369  17.481  11.296   4.487  0.4386  0.3978  0.1125
12236W        W28370  14.703  18.423  14.100 -0.1423 -0.0461 -0.3165
12237W        W28371   0.543   7.505  11.354 -0.4886  0.1418  0.2241
12238W        W28372  18.292   1.044  12.515  0.0840  0.1995 -0.2585
12239W        W28373  17.101   3.936  14.724 -0.0160  0.0887 -0.1716
12240W        W28374  12.057   3.867   5.329 -0.1020 -0.0119 -0.0207
12241W        W28375   4.505  18.135   3.597  0.0681 -0.0495  0.3422
12242W        W28376  16.178   8.943  14.439 -0.1851  0.0984 -0.2324
12243W        W28377   8.174   0.314  10.415 -0.2150 -0.0685 -0.2011
12244W        W28378  15.983  14.573   1.415 -0.3103  0.1335 -0.4683
12245W        W28379  14.783   8.395   3.498  0.1669  0.2317  0.1951
12246W        W28380  15.420   1.703  13.846 -0.0082  0.0602 -0.0829
12247W        W28381  14.608  18.235   3.286 -0.0532  0.0526 -0.1476
12248W        W28382   4.227   3.862   4.120 -0.2288  0.3313 -0.0484
12249W        W28383  12.537   6.372  14.085  0.2226 -0.1401  0.0691
12250W        W28384   3.099   3.381   9.444  0.0137 -0.1283 -0.0235
12251W        W28385  11.568   5.588   2.032  0.3378 -0.0973  0.0993
12252W        W28386  13.005  11.742   4.439  0.0092 -0.4043 -0.1033
12253W        W28387  16.293  14.706   2.626  0.0549 -0.1043 -0.2411
12254W        W28388  11.661  10.731   1.086 -0.1079  0.1405  0.2714
12255W        W28389   6.068   8.273   2.230  0.1166  0.2550 -0.0627
12256W        W28390  14.444  16.646  13.724 -0.1099  0.0169 -0.0128
12257W        W28391  14.908  10.135   2.608 -0.1320 -0.2129 -0.2038
12258W        W28392   4.311   5.619   2.848  0.2253 -0.0193 -0.3847
12259W        W28393  14.142   9.351  13.161 -0.1913  0.1451  0.2036
12260W        W28394  11.482   0.935  11.718 -0.3563  0.1376  0.1353
12261W        W28395  18.599   6.768  14.586 -0.0019 -0.0201 -0.2634
12262W        W28396   8.591  17.402  13.335 -0.1479  0.0023  0.0879
12263W        W28397   1.623   7.814  11.037  0.0761 -0.1619  0.0976
12264W        W28398  13.548   1.506   3.264 -0.0991 -0.1097 -0.4010
12265W        W28399  14.474   1.924  14.829 -0.1772  0.1813  0.2075
12266W        W28400   2.708  17.859   1.716 -0.2700  0.0434  0.4394
12267W        W28401  10.836  15.502   3.258  0.0839  0.2347 -0.0914
12268W        W28402  10.059   7.312   1.072 -0.2197 -0.1921  0.0571
12269W        W28403   9.640   9.703  13.159  0.0304 -0.0136 -0.0104
12270W        W28404  14.123  14.709   3.213  0.0602  0.3052  0.0769
12271W        W28405  18.504   0.752  14.901 -0.1822 -0.0659 -0.2217
12272W        W28406  16.064   1.227   0.986 -0.0654  0.1939  0.1394
12273W        W28407   0.052  18.626   0.801  0.0799 -0.2249 -0.0806
12274W        W28408  14.751   9.113  10.966  0.1055  0.2383 -0.0681
12275W        W28409  11.070   6.894  12.843 -0.0706  0.0585  0.1949
12276W        W28410   4.750   4.006   5.106 -0.0537 -0.2706 -0.1858
12277W        W28411  10.892  14.814   4.911 -0.0446 -0.2450 -0.0508
12278W        W28412   6.923   8.090  11.455  0.1808  0.1004 -0.0568
12279W        W28413  15.073   1.437   4.175  0.1886 -0.0265 -0.5395
12280W        W28414   8.151   0.141   4.108 -0.1229  0.0207 -0.0665
12281W        W28415  14.156   5.478  13.747  0.1591 -0.0597  0.1763
12282W        W28416  11.299   8.753  12.243 -0.1391  0.1870  0.2794
12283W        W28417  12.433  11.110   3.913 -0.0826  0.2868  0.3278
12284W        W28418   7.213   9.747   2.666  0.1463 -0.0799  0.1207
12285W        W28419   7.153  12.677  10.961 -0.0065  0.0599  0.4902
12286W        W28420  11.526  13.226  15.012  0.3633  0.0580 -0.0319
12287W        W28421   0.654   9.953  11.780 -0.0572  0.0957  0.0253
12288W        W28422  16.672   4.008   4.667  0.0917  0.1209  0.2200
12289W        W28423   6.069  10.145  14.698 -0.2018  0.0283 -0.0110
12290W        W28424   9.995   7.651  11.847 -0.2436 -0.1386  0.2193
12291W        W28425   8.651  18.018  13.993  0.2929 -0.2599 -0.0556
12292W        W28426   7.772  16.061  14.163  0.2785  0.0546  0.0001
12293W        W28427   7.506  17.396  14.061  0.4163 -0.2320 -0.1600
12294W        W28428  17.626   3.122   2.795  0.2302 -0.1917 -0.1777
12295W        W28429  18.814  11.850   2.814  0.0074  0.3440  0.2139
12296W        W28430   0.364  17.478  13.948 -0.2566 -0.2794  0.2030
12297W        W28431  15.429  13.506  10.036 -0.3696 -0.0100  0.0792
12298W        W28432  15.008  17.953  12.204  0.1194 -0.3115 -0.1023
12299W        W28433  14.538   3.913   3.762  0.0778 -0.1453  0.0276
12300W        W28434  11.132   9.962   1.568  0.2018 -0.0867 -0.3620
12301W        W28435   9.470  18.120   4.569  0.0988  0.1173 -0.1759
12302W        W28436   0.423  10.602  12.861  0.1296  0.0914 -0.1672
12303W        W28437   9.304   0.441   5.219 -0.5459  0.2555  0.1174
12304W        W28438   7.576  10.468  11.599  0.1483 -0.1353  0.0270
12305W        W28439   3.669  16.924   3.579  0.3064 -0.0755  0.2222
12306W        W28440  12.861   2.429  11.079  0.1411  0.2667  0.0907
12307W        W28441   1.777   2.554  12.540 -0.1772  0.0111 -0.0326
12308W        W28442  18.333  12.104   1.531 -0.1449 -0.1332  0.0217
12309W        W28443  13.198  15.368  13.389 -0.0284  0.0800 -0.2728
12310W        W28444  15.109   7.097   4.938 -0.3687  0.1091 -0.1960
12311W        W28445  16.744  16.408   4.290  0.2522  0.0151  0.1973
12312W        W28446   4.849  17.504  11.697  0.0181 -0.0202 -0.3045
12313W        W28447  14.138  13.414  12.118 -0.1805  0.1515 -0.1092
12314W        W28448  15.410  16.809   0.617  0.2890 -0.0745 -0.1330
12315W        W28449  10.151   1.875  10.415 -0.1979  0.1269 -0.0885
12316W        W28450   5.342  12.673  13.235  0.2086 -0.0999 -0.1734
12317W        W28451  12.258  16.211   3.487  0.0682 -0.2686  0.4589
12318W        W28452   8.269   7.966   9.951  0.0679  0.4729  0.3489
12319W        W28453   2.518   3.593  11.825  0.2840  0.0093  0.4103
12320W        W28454  14.722   9.382   0.119  0.0289  0.1963  0.2907
12321W        W28455  11.813  11.437   2.488 -0.1038  0.1222 -0.0558
12322W        W28456  19.197  18.573   2.925  0.1536 -0.0766 -0.0656
12323W        W28457  12.021   0.348  11.225  0.1128  0.0014 -0.1160
12324W        W28458  18.912  16.066   3.818 -0.1483  0.2138  0.1384
12325W        W28459  11.281  16.078   1.050 -0.0500 -0.1984 -0.1726
12326W        W28460   0.071  12.239   2.076 -0.0483  0.0711 -0.1013
12327W        W28461   0.768  11.655   9.598  0.2004 -0.0986  0.1878
12328W        W28462   2.005   7.059  14.171  0.1596  0.0998 -0.1898
12329W        W28463  16.974   0.807  11.592  0.1798 -0.1265 -0.2556
12330W        W28464  13.360   5.944   0.759  0.0758  0.1346 -0.3238
12331W        W28465   7.216   0.669  10.640 -0.3411 -0.3530  0.0857
12332W        W28466  14.822   5.230  11.859  0.0495  0.0771 -0.0999
12333W        W28467  15.953  18.459   5.519 -0.2407  0.1530  0.1792
12334W        W28468   1.780   5.882   9.453  0.1412 -0.0279 -0.1825
12335W        W28469   1.371  10.193  11.548 -0.2046 -0.0171  0.0102
12336W        W28470  15.625  14.377   5.493  0.1967  0.1541  0.2892
12337W        W28471  11.587   9.768  12.114  0.0312  0.0553 -0.1694
12338W        W28472   7.813   3.662   0.306 -0.0898  0.0443  0.0872
12339W        W28473  12.438  13.728   1.369  0.1317 -0.0975 -0.3823
12340W        W28474   9.247   6.759   2.059  0.3600 -0.3076 -0.0542
12341W        W28475   9.148  12.295   0.509 -0.0137 -0.0728 -0.0236
12342W        W28476   4.154  14.366   0.215  0.0783 -0.3920  0.0658
12343W        W28477  17.151  11.133  12.693  0.0245  0.0536 -0.1347
12344W        W28478  17.041   4.459  11.789 -0.1695 -0.0234 -0.0725
12345W        W28479   5.865  16.398   4.548  0.1445  0.2019  0.2962
12346W        W28480   1.694   0.347  11.268  0.0040 -0.3697 -0.1357
12347W        W28481  12.653  11.120  10.578 -0.2329 -0.0877  0.2953
12348W        W28482   3.817  11.813   9.979 -0.0003  0.4887  0.2702
12349W        W28483  18.797  17.630  12.786 -0.1071  0.3056  0.3918
12350W        W28484  10.337   1.491   1.889 -0.2286  0.0802 -0.2315
12351W        W28485   3.740  13.388   1.435 -0.2396 -0.0458  0.1205
12352W        W28486  12.121   1.220   2.035  0.2342  0.1629  0.1304
12353W        W28487  16.997  16.877   4.432  0.1430  0.0689  0.2953
12354W        W28488   2.950  14.427  13.738  0.1143  0.0952 -0.0323
12355W        W28489   7.379  11.573   0.856 -0.3975  0.3648 -0.3347
12356W        W28490  14.862  18.855  11.168 -0.1473 -0.1015  0.3446
12357W        W28491  14.254   1.197   0.475 -0.3043 -0.0913 -0.0772
12358W        W28492   7.169   3.358  11.807 -0.2252  0.1225 -0.1791
12359W        W28493  17.208  13.582   1.510 -0.4054  0.1110  0.4704
12360W        W28494  17.294   6.492   3.821  0.0219  0.0358 -0.4015
12361W        W28495   0.601   4.766  11.546  0.1841 -0.1741  0.1136
12362W        W28496   1.142  13.231  12.178  0.1640  0.0365  0.0009
12363W        W28497  11.690  14.033   2.756  0.3103 -0.1231  0.0770
12364W        W28498   5.392  12.101   3.035 -0.1796 -0.3443 -0.0645
12365W        W28499   8.820   3.801   3.503 -0.2063 -0.2969 -0.2204
12366W        W28500  12.861   5.923   2.591 -0.1473 -0.0297 -0.1064
12367W        W28501  10.174   3.654   3.951 -0.0378 -0.0201  0.4970
12368W        W28502   9.524  13.963   4.438 -0.2255 -0.2562  0.1576
12369W        W28503   1.072  15.011  13.607  0.2478  0.1007  0.1240
12370W        W28504  17.353   9.830  15.008  0.1554  0.1719 -0.0178
12371W        W28505   2.875  19.198  11.691  0.1914  0.3585 -0.2525
12372W        W28506  16.242   6.641   4.693 -0.2032  0.0582 -0.1241
12373W        W28507   5.643   2.073   2.165  0.2084 -0.2169  0.1621
12374W        W28508  17.100   3.968   3.369  0.1301 -0.1585  0.3938
12375W        W28509  18.676  12.063  14.779  0.2371 -0.0925 -0.0917
12376W        W28510  14.433   7.945   3.479  0.0370 -0.0692  0.1426
12377W        W28511   6.846  13.897   1.054  0.1712 -0.0421  0.0812
12378W        W28512   4.881   3.386   3.676  0.1325 -0.2704  0.1945
12379W        W28513   8.976   2.145  14.980  0.0037  0.3211 -0.3128
12380W        W28514  10.715  18.527   3.293  0.0607 -0.0139 -0.1910
12381W        W28515  13.828  13.988   4.789  0.0128  0.1619 -0.1163
12382W        W28516   2.981  12.206   1.759  0.2462 -0.1143  0.1492
12383W        W28517  15.157   4.135   4.462 -0.3868  0.0284 -0.1441
12384W        W28518  15.192   7.670   4.642 -0.1608  0.0315  0.0988
12385W        W28519   3.614  14.198   5.815 -0.0489  0.0002  0.1597
12386W        W28520   1.557  11.192  11.256  0.0301 -0.1554 -0.0070
12387W        W28521  11.336  13.582  13.054 -0.0564  0.1060 -0.1027
12388W        W28522  16.580  15.117  12.730  0.1083 -0.1439 -0.3244
12389W        W28523  17.115   4.996   0.983 -0.2190  0.1219  0.4640
12390W        W28524   5.178   1.602   4.250 -0.1831 -0.1122  0.3125
12391W        W28525  13.084  17.940  12.558  0.0468 -0.0212 -0.0745
12392W        W28526  14.653   4.664   0.577 -0.1105  0.0570  0.1580
12393W        W28527  18.280  12.941  11.548  0.0737 -0.5271  0.2596
12394W        W28528   2.447   9.848   0.104 -0.1087  0.0021  0.0168
12395W        W28529   2.678   5.760   3.371  0.0456  0.0258 -0.0389
12396W        W28530   6.409  12.169   1.096  0.1514  0.0985 -0.0702
12397W        W28531  13.800  15.884  12.383  0.0829  0.3806  0.0882
12398W        W28532   1.016   3.628  14.014 -0.2541  0.1499  0.1062
12399W        W28533  13.914   0.603  10.497  0.0766  0.0095 -0.2530
12400W        W28534   5.689   9.973   1.922 -0.1997  0.1021  0.0366
12401W        W28535   4.160   5.615  11.072  0.0570  0.0576 -0.2205
12402W        W28536  10.101   3.755   2.324  0.1366  0.1064 -0.0851
12403W        W28537   5.489   7.555   2.321 -0.0676  0.2978 -0.1855
12404W        W28538   8.959   9.990   0.732  0.1177 -0.1863  0.1292
12405W        W28539  10.727   6.312  10.246 -0.0499 -0.2525 -0.2966
12406W        W28540   3.916  11.327  10.825  0.1285  0.0574  0.2363
12407W        W28541  19.119   9.371  14.547  0.0187  0.3297  0.0067
12408W        W28542  12.171  10.373   0.433  0.3100  0.0075  0.1385
12409W        W28543   3.936   3.389   9.940 -0.2168  0.3060 -0.1497
12410W        W28544   3.589   5.910   0.034  0.0951  0.0705 -0.0364
12411W        W28545   6.259   2.159   0.299  0.1132  0.0723 -0.1894
12412W        W28546   2.473   6.165  13.146 -0.1887  0.0019 -0.4137
12413W        W28547  12.402   9.912   1.909 -0.0933 -0.0876 -0.2132
12414W        W28548   0.686   3.490   1.014  0.3169  0.2192  0.2869
12415W        W28549   3.442   9.004  11.354 -0.1561  0.0398 -0.0015
12416W        W28550   9.891  17.875   3.440  0.0060 -0.0690 -0.1198
12417W        W28551  13.159   5.387  12.194 -0.4582  0.2983 -0.0196
12418W        W28552  17.521  11.274  10.613  0.0641  0.3806 -0.0418
12419W        W28553   4.841   7.504  13.277 -0.1715  0.5440  0.1589
12420W        W28554  14.339  11.927  12.755 -0.2889 -0.0310 -0.0287
12421W        W28555   0.815   6.539   3.037 -0.3331  0.1170 -0.1105
12422W        W28556   3.593  14.844   0.510 -0.3401 -0.2982  0.2112
12423W        W28557  16.052   8.881  13.567  0.1333 -0.1217  0.0843
12424W        W28558  18.963  11.219  11.315  0.1159  0.0702 -0.4974
12425W        W28559   5.990  14.226  13.807  0.3131  0.3582 -0.3654
12426W        W28560  18.888   1.492  13.635  0.1106 -0.0561  0.0827
12427W        W28561  17.351  18.576   0.206  0.1445  0.2057  0.0175
12428W        W28562  12.306  12.767  14.652  0.2072  0.0622 -0.1495
12429W        W28563  11.805   9.877  12.903 -0.1072 -0.0708  0.4879
12430W        W28564   3.929   9.207  11.813  0.2139 -0.1701 -0.1502
12431W        W28565  14.849  16.650  14.057 -0.3542  0.0669 -0.2422
12432W        W28566   6.667  17.548   3.707 -0.4641  0.2425 -0.1757
12433W        W28567  11.684  12.252   1.418  0.1189 -0.3405  0.2921
12434W        W28568   6.863   3.964   3.151 -0.0441 -0.1912  0.0733
12435W        W28569   0.962   7.291   4.453 -0.1551 -0.1081  0.1452
12436W        W28570   9.144  10.813   9.597 -0.0326 -0.0195  0.3973
12437W        W28571  12.174   8.901  14.979  0.2205  0.0973 -0.0684
12438W        W28572   2.863  10.357   2.254  0.1044 -0.2369  0.4480
12439W        W28573   8.695   7.133  11.180 -0.1290  0.3095  0.0503
12440W        W28574  13.445  17.236   1.665  0.1022 -0.2454  0.1128
12441W        W28575   8.924  13.650  15.003 -0.0836  0.1105 -0.0404
12442W        W28576  13.451   2.176  12.664 -0.1346  0.1518 -0.1878
12443W        W28577  11.328   6.029   2.969  0.2595 -0.0766 -0.1388
12444W        W28578  13.209   6.628  14.183 -0.1046 -0.0962  0.2320
12445W        W28579   6.160   0.911   0.049 -0.1171  0.1251  0.0979
12446W        W28580  15.788   5.587   4.124  0.1122  0.0186  0.1494
12447W        W28581  13.009  16.807   0.806 -0.3805 -0.0643 -0.0908
12448W        W28582   5.023   5.362  10.531 -0.1170 -0.3513 -0.0959
12449W        W28583  17.641  15.852  12.797  0.0780  0.0812 -0.2216
12450W        W28584  17.311   5.553  14.931 -0.2602 -0.1028 -0.0035
12451W        W28585   0.973  16.875   3.286 -0.2732 -0.0250 -0.0935
12452W        W28586   8.166  17.978   3.140 -0.0160  0.1250  0.1384
12453W        W28587  15.268  10.153  14.075 -0.2239 -0.2725 -0.0564
12454W        W28588   4.565  17.372  13.523 -0.0525  0.1093  0.2409
12455W        W28589  13.708   6.003   1.092  0.0428  0.2350 -0.2121
12456W        W28590  16.813  14.015   3.073  0.2990 -0.1735  0.3133
12457W        W28591   1.404  10.098  13.913 -0.2163 -0.2047  0.2475
12458W        W28592  15.411   0.425   0.227  0.1255 -0.0789 -0.1350
12459W        W28593   6.136   5.070   0.095  0.1490 -0.0394 -0.0281
12460W        W28594   2.602  13.075   4.513 -0.1111  0.3500  0.1049
12461W        W28595  18.213  13.027  14.388  0.1182 -0.1868 -0.0781
12462W        W28596  17.404   1.218   4.874 -0.1953  0.0404  0.1089
12463W        W28597  18.769  18.133   2.243 -0.2196 -0.3365  0.2036
12464W        W28598   4.557   6.467   3.252 -0.1736 -0.5151 -0.0784
12465W        W28599   6.476  12.873   3.824  0.3696  0.0659 -0.1558
12466W        W28600  17.657   1.773   3.719  0.0305  0.1936  0.1584
12467W        W28601   1.584  14.822  13.642 -0.0315  0.1945  0.1609
12468W        W28602  18.076   5.121   1.949 -0.0433 -0.0846  0.0174
12469W        W28603   7.344  11.878  10.010  0.1483  0.1307 -0.1313
12470W        W28604  16.642   2.361  12.633 -0.0802 -0.1191  0.4203
12471W        W28605   0.687   9.803  12.960  0.0432 -0.0597  0.3629
12472W        W28606   2.901   3.156   4.155  0.0983  0.0631 -0.0262
12473W        W28607  17.986  10.540   0.720  0.0417 -0.1160 -0.0275
12474W        W28608  13.347  18.363  12.883 -0.3374  0.1699 -0.0306
12475W        W28609   8.676  11.406   1.037 -0.1458 -0.1459 -0.0357
12476W        W28610  18.533   6.870  13.927 -0.2377 -0.1387 -0.1204
12477W        W28611  11.859  15.749  14.682 -0.0803  0.1469  0.1426
12478W        W28612  16.673  15.666   2.698  0.4509  0.1160 -0.4623
12479W        W28613   9.825  12.190  11.879  0.0918  0.0162  0.2111
12480W        W28614  17.745   3.167  10.588  0.2740 -0.0755  0.0904
12481W        W28615   1.738   6.431  10.515 -0.0370 -0.1575 -0.0549
12482W        W28616   7.689  18.254  11.675 -0.1107 -0.4053 -0.1294
12483W        W28617  10.519   0.664   2.409  0.2136 -0.0635  0.1139
12484W        W28618   9.668  10.307   4.488  0.1158  0.3206  0.1963
12485W        W28619   8.588   5.772  13.689 -0.1676 -0.0121 -0.0553
12486W        W28620   3.234   4.161  11.682 -0.1638 -0.0680 -0.0527
12487W        W28621  15.334  12.414   3.706 -0.2165 -0.1406 -0.2750
12488W        W28622   2.651   3.873   2.133  0.2489  0.1746  0.2004
12489W        W28623   3.900  13.390  13.307 -0.1242 -0.1533 -0.0099
12490W        W28624  12.013   8.349  14.197 -0.5730 -0.0791 -0.2762
12491W        W28625   2.827   6.053   3.012  0.4297  0.1995  0.3395
12492W        W28626   5.138  19.079  14.106  0.0628  0.0224 -0.0188
12493W        W28627   8.642  12.488   0.320  0.0069  0.0280  0.1985
12494W        W28628   3.449  16.833   3.102 -0.2170  0.3682 -0.5144
12495W        W28629  15.633  15.276   3.126  0.1922  0.0703  0.2290
12496W        W28630  12.824  13.927  12.286  0.2565  0.1146 -0.0254
12497W        W28631   9.042  14.374   3.619 -0.3620 -0.4094 -0.0026
12498W        W28632  10.587  15.973   3.460 -0.0208  0.3286  0.2207
12499W        W28633   6.786   0.557  12.235 -0.1619  0.3317  0.2034
12500W        W28634   3.011   7.392  13.864  0.1854 -0.2378  0.0083
12501W        W28635  17.594   1.737   1.735  0.2381 -0.2108  0.3767
12502W        W28636  15.559  19.072  12.101 -0.3145  0.0514 -0.4616
12503W        W28637   3.836  16.290   4.854  0.0059 -0.2425  0.0080
12504W        W28638   8.442  13.815   5.218  0.1929  0.2592  0.0251
12505W        W28639   7.272   8.621  12.575  0.0552 -0.4223  0.0875
12506W        W28640  12.095  12.892  13.762 -0.0279 -0.1927 -0.0818
12507W        W28641   0.324  13.083  12.110  0.0204  0.2187 -0.0979
12508W        W28642  12.727  12.176  14.162  0.0721 -0.1485 -0.1558
12509W        W28643  14.724   4.099   4.730 -0.0082 -0.0472  0.0416
12510W        W28644   5.133  16.276   4.862 -0.0474 -0.3306 -0.1856
12511W        W28645   8.586  17.985   1.239  0.1778 -0.1137 -0.2681
12512W        W28646   5.452  12.234  14.819 -0.0494  0.0664  0.5761
12513W        W28647   5.166   8.592   4.702  0.0179 -0.4421  0.0298
12514W        W28648   5.593   6.899   4.549  0.0759  0.1154  0.2165
12515W        W28649   0.185   1.344  14.447  0.3395  0.2443 -0.6011
12516W        W28650   4.796   7.425  10.330  0.0607 -0.1697  0.0964
12517W        W28651   3.685   5.676  11.394 -0.1948  0.4528  0.3664
12518W        W28652  12.487   4.113  12.274  0.0307 -0.0437 -0.1389
12519W        W28653   5.370   6.664  13.336 -0.0607  0.0725  0.2525
12520W        W28654  16.069   2.603   4.793 -0.0614  0.1189  0.2674
12521W        W28655   1.158  12.845   0.346  0.0366 -0.2002  0.1032
12522W        W28656  13.672  17.697   0.801  0.1297  0.0661  0.1707
12523W        W28657   5.559   1.316  11.116  0.0842 -0.3755 -0.0700
12524W        W28658   8.251  19.017  13.159  0.1379  0.0116  0.1600
12525W        W28659  12.599  13.462  11.402  0.1127  0.2409 -0.0497
12526W        W28660  17.687  15.531  10.980  0.2223  0.0815  0.3166
12527W        W28661  18.723   0.999  10.693 -0.0302 -0.3585  0.0119
12528W        W28662  14.719  12.090  12.136  0.1165  0.3760  0.1725
12529W        W28663   5.241  15.999  12.066  0.2092 -0.2417 -0.2922
12530W        W28664  18.725   9.493  13.707  0.1969 -0.3602 -0.3037
12531W        W28665   3.661   8.249  12.026 -0.2459  0.0888  0.0155
12532W        W28666  16.006  11.309   2.630  0.1107 -0.0303 -0.0725
12533W        W28667  16.687  15.303  12.305  0.1499  0.1224  0.5055
12534W        W28668  12.098   0.832   3.805  0.0949  0.4469  0.0932
12535W        W28669  17.155   8.244   0.810  0.2674 -0.0912  0.3066
12536W        W28670  19.094  17.199  13.694 -0.1349  0.0487 -0.0318
12537W        W28671  12.305  10.829   2.262  0.0595  0.2389  0.1696
12538W        W28672  18.896  16.500   1.005 -0.1241 -0.1031 -0.1447
12539W        W28673  15.300  16.868  10.093 -0.4595  0.1577 -0.1511
12540W        W28674  18.730   6.141   4.379  0.2798  0.0148  0.1377
12541W        W28675   7.248   6.057  13.023 -0.0761  0.5267  0.1656
12542W        W28676   2.736   5.735   4.363  0.0139  0.0444 -0.1967
12543W        W28677  11.838  18.245  13.287  0.0565  0.0621 -0.0313
12544W        W28678  12.845   3.578  11.893  0.0348  0.0055 -0.1179
12545W        W28679  13.870  16.691  10.549  0.1217  0.0324 -0.0669
12546W        W28680   1.801   2.660   3.690  0.4021 -0.0673 -0.0659
12547W        W28681   7.793   1.332  12.077  0.1448  0.3765  0.0637
12548W        W28682   1.932  14.443   4.131  0.2175  0.4769 -0.0061
12549W        W28683   9.165   5.472   4.424 -0.0274  0.0928 -0.0209
12550W        W28684   3.640  11.063  13.897 -0.0986 -0.1099 -0.0597
12551W        W28685   6.373   4.810   4.177  0.0250  0.1511 -0.2471
12552W        W28686  14.080  17.749   4.488  0.0111 -0.1987  0.0906
12553W        W28687  17.934  13.536  14.124  0.3554 -0.1053  0.0726
12554W        W28688   5.210   3.364  14.960  0.2914  0.1297  0.2018
12555W        W28689   1.107   5.416   5.897  0.0461 -0.0143  0.0203
12556W        W28690   8.456  12.060   4.907  0.3122  0.1781  0.0359
12557W        W28691  18.546   5.711   5.638 -0.0355  0.0389 -0.0686
12558W        W28692   6.053  11.202  13.739  0.1013 -0.0779 -0.4147
12559W        W28693   7.916  12.568   1.797 -0.1298 -0.0590 -0.0990
12560W        W28694   6.014  14.677   5.496 -0.0414  0.0575  0.2829
12561W        W28695  16.326  16.998   0.965  0.1142  0.3064 -0.0002
12562W        W28696  10.434   6.430   1.653 -0.1175 -0.0661 -0.5244
12563W        W28697   5.659   8.095  10.984 -0.3092  0.0399  0.1970
12564W        W28698   1.030  16.513  13.168 -0.1682 -0.1082  0.0360
12565W        W28699   1.141  16.619   2.876  0.0153 -0.0306 -0.2600
12566W        W28700   6.055  10.515  11.964 -0.2948 -0.1609 -0.0990
12567W        W28701   3.287  12.668   3.381  0.0333  0.4563  0.1703
12568W        W28702   9.409   4.549  14.800  0.0657 -0.0848 -0.1009
12569W        W28703   8.123  10.929   1.132 -0.2313  0.1031 -0.0449
12570W        W28704   6.691  15.495   5.859  0.0615 -0.2181 -0.0583
12571W        W28705  18.193  17.678   0.996 -0.1493  0.2097 -0.4386
12572W        W28706   5.850   5.318  12.285 -0.0773  0.2556  0.1371
12573W        W28707  17.343   3.245   9.957  0.2148  0.4916 -0.1683
12574W        W28708   9.309   7.805   4.788 -0.0357 -0.1151 -0.0194
12575W        W28709   8.674   0.379  11.156 -0.0319 -0.1483  0.2564
12576W        W28710   8.332   5.429   0.658  0.1030 -0.4134 -0.0156
12577W        W28711  16.184   2.816  11.421  0.0713 -0.1405  0.0371
12578W        W28712   8.694   1.256  14.960  0.0846 -0.3914  0.1159
12579W        W28713   3.427   1.694  11.379  0.0872  0.2018  0.1467
12580W        W28714  11.223  10.441  13.696  0.2409 -0.1126 -0.1620
12581W        W28715  11.382   2.266   1.249 -0.0059  0.1602 -0.0040
12582W        W28716  10.136   4.058   4.337 -0.3547 -0.2942 -0.0570
12583W        W28717  13.860  17.766   3.360  0.1398  0.1300  0.1858
12584W        W28718   4.969  15.972   1.675  0.2758  0.4803  0.0801
12585W        W28719  14.044   9.913   2.293 -0.3109  0.2563  0.0354
12586W        W28720   6.171   3.054  10.163 -0.1059  0.2178  0.4656
12587W        W28721   3.888   3.967  10.802 -0.0889  0.1761 -0.3553
12588W        W28722   1.427   2.314  12.888  0.2216  0.1600  0.1706
12589W        W28723   4.285   4.137   0.543  0.0213 -0.0228  0.0133
12590W        W28724   0.416   2.579   1.985  0.4262  0.4560  0.0462
12591W        W28725  17.331   8.890   3.317  0.1351 -0.1815  0.1253
12592W        W28726   7.654  12.622  10.814 -0.1952 -0.2976  0.0866
12593W        W28727  12.425  15.774  14.752 -0.3367 -0.0713  0.0866
12594W        W28728  18.808   5.228  12.860  0.1255 -0.0233  0.3508
12595W        W28729  16.678  17.561  13.737 -0.1102 -0.1025 -0.3307
12596W        W28730  10.378   9.682  11.656 -0.0743 -0.0804  0.2228
12597W        W28731  18.601   0.245   2.873  0.2814  0.1856 -0.2651
12598W        W28732  13.300  18.805  12.120 -0.1954  0.0614 -0.0312
12599W        W28733   8.057   3.000   1.556 -0.2866 -0.1131 -0.2044
12600W        W28734  14.131   5.842   0.795  0.0393  0.2910  0.0377
12601W        W28735   9.526  17.542   0.852 -0.3126 -0.0318 -0.0339
12602W        W28736  17.808  17.993   1.382  0.1150  0.0391  0.0386
12603W        W28737  15.756   1.812  11.644  0.2041 -0.1243 -0.3343
12604W        W28738  16.657   7.431   4.885 -0.1021  0.0898 -0.2359
12605W        W28739   2.775  18.664  12.376  0.4944 -0.1149 -0.1436
12606W        W28740   6.185  11.916   2.338  0.0751 -0.1272  0.0069
12607W        W28741  17.719  11.049  12.221  0.0911 -0.1161 -0.0750
12608W        W28742   2.713   0.427   3.635 -0.2498 -0.1065 -0.2371
12609W        W28743  10.173  12.120  11.239  0.0612 -0.0103 -0.2000
12610W        W28744   5.795  12.298   3.357  0.0395 -0.0938 -0.2066
12611W        W28745   9.056   0.938   1.698  0.1386 -0.1387 -0.1722
12612W        W28746  11.227  17.739  13.685  0.0030  0.4058 -0.2637
12613W        W28747   0.856  10.410  10.065 -0.2496 -0.0227  0.2566
12614W        W28748   7.261   7.940  11.127 -0.2996 -0.1651  0.1233
12615W        W28749  17.317  18.227   3.316  0.0002 -0.4310 -0.2617
12616W        W28750  15.409  14.970  13.227 -0.3120 -0.0532  0.1407
12617W        W28751  15.614   3.666   2.696 -0.2316  0.0410 -0.2980
12618W        W28752  13.413  12.598   5.095  0.1884  0.0239  0.3081
12619W        W28753  16.530   5.425   0.314 -0.4070  0.1136  0.1852
12620W        W28754  16.343   2.305   1.155  0.0649 -0.3906  0.2707
12621W        W28755  18.956  12.419  11.677 -0.1221 -0.0875  0.1521
12622W        W28756  18.593  17.732  11.250  0.0845  0.2381 -0.2405
12623W        W28757   2.052  12.375   4.242 -0.1453  0.3602  0.1848
12624W        W28758   5.020   5.658  13.882 -0.0074  0.4919  0.0770
12625W        W28759  10.561  15.153   1.802  0.1086  0.0810 -0.2472
12626W        W28760  13.084  10.886  13.948 -0.3075 -0.0996  0.1506
12627W        W28761  16.028   0.806  14.245  0.2192  0.0372 -0.1831
12628W        W28762  12.767  14.964   5.193  0.1943 -0.0652 -0.1592
12629W        W28763  18.025  12.604  11.880 -0.0312  0.0668 -0.1545
12630W        W28764  10.113   4.580   1.825 -0.1469 -0.1494 -0.2408
12631W        W28765  13.025  11.793  13.809  0.0569  0.3118 -0.2137
12632W        W28766   3.964   0.919  11.057 -0.0337  0.0382  0.0636
12633W        W28767   7.747  18.805   2.182  0.0535 -0.1431 -0.3143
12634W        W28768  10.039   0.374  14.434  0.0879  0.2880  0.1689
12635W        W28769   2.673  13.842  14.168 -0.1823 -0.0114 -0.1245
12636W        W28770  12.154  17.442   0.356  0.0010 -0.1069 -0.0461
12637W        W28771   6.150  14.099   1.927 -0.0326  0.1773  0.3233
12638W        W28772   5.691   3.139   5.007  0.1145 -0.3513  0.3612
12639W        W28773  12.616  15.735   1.890  0.1902  0.2306 -0.0078
12640W        W28774   6.115  16.668  13.806  0.0891 -0.1709  0.2110
12641W        W28775   3.454  19.139  14.292  0.1309 -0.2372  0.0433
12642W        W28776  16.045  10.830   2.398 -0.3170 -0.0565  0.1700
12643W        W28777  15.393  12.050   4.750  0.1296  0.5907 -0.3336
12644W        W28778  18.497  14.823   4.114  0.0720  0.1005  0.1523
12645W        W28779  10.869  10.631   3.833 -0.1112 -0.0466  0.3378
12646W        W28780  15.261   7.413  14.645  0.3609 -0.3107  0.1061
12647W        W28781   0.431   3.664   0.134  0.1370  0.0209 -0.3613
12648W        W28782  13.002  16.312  12.632 -0.0654 -0.0472 -0.1630
12649W        W28783  11.836  10.529   3.404  0.0441  0.0982 -0.0714
12650W        W28784   5.805  18.994   3.596  0.1503 -0.2458  0.0024
12651W        W28785   6.729  15.510  12.419 -0.0910 -0.0756 -0.0523
12652W        W28786   2.750   1.935  11.003 -0.1458 -0.2643  0.0612
12653W        W28787   0.037  12.938  12.472  0.0645  0.1571  0.0084
12654W        W28788   4.547   9.807   2.283 -0.1272  0.0498 -0.1181
12655W        W28789   8.854  14.765   2.718 -0.0015  0.1104 -0.1678
12656W        W28790   7.425   6.993   2.949  0.1510 -0.1198 -0.2366
12657W        W28791  12.228   9.055   5.275  0.3571 -0.0162  0.1710
12658W        W28792   3.644  16.977   1.676 -0.0665  0.2668  0.1430
12659W        W28793   7.812  13.475   4.880  0.1032 -0.1251  0.1116
12660W        W28794   6.110   4.474  11.862 -0.0282  0.0638  0.3730
12661W        W28795  16.374  15.440  13.551  0.4717  0.2942 -0.1885
12662W        W28796   2.384   8.095  12.089  0.0388  0.2138 -0.0931
12663W        W28797  16.721  12.897   0.868  0.3994 -0.2349  0.3596
12664W        W28798  15.907  11.980   2.777 -0.1151  0.0050  0.3751
12665W        W28799   9.031   5.474   4.952 -0.0867 -0.2693 -0.2742
12666W        W28800   9.239   0.170  10.770  0.0247  0.0223 -0.3213
12667W        W28801   1.140  16.043  12.313 -0.3187 -0.0704  0.3522
12668W        W28802   9.879   8.657  11.070  0.2929 -0.1463 -0.3478
12669W        W28803   2.033   6.272  14.482 -0.0387  0.0514 -0.1331
12670W        W28804  13.046  12.467   2.580 -0.4260 -0.2310 -0.2012
12671W        W28805  19.211  10.640   3.489  0.2456 -0.0501  0.2023
12672W        W28806  13.255   4.868  11.554 -0.1155 -0.1680  0.0086
12673W        W28807  14.265   1.806   3.852 -0.1778 -0.0584  0.2720
12674W        W28808   7.906  10.889  13.528  0.1479 -0.1416  0.2965
12675W        W28809  14.702  10.463   3.566  0.1172 -0.0520 -0.1146
12676W        W28810   3.335   4.366   2.332 -0.3579  0.2081 -0.0012
12677W        W28811   4.333   6.487  10.857 -0.2906 -0.0224  0.0192
12678W        W28812   4.830  13.354   1.835  0.0871 -0.3004  0.1573
12679W        W28813   1.772   9.108   4.815 -0.0199  0.1379 -0.0197
12680W        W28814   6.328  16.827  14.215 -0.2157  0.1153 -0.1622
12681W        W28815   2.993  18.656   9.765  0.1529  0.0381  0.0820
12682W        W28816   2.958   2.801   5.155 -0.1749  0.3123 -0.1594
12683W        W28817  11.231   6.800   1.664 -0.1383 -0.2758 -0.1103
12684W        W28818   2.942   8.729  13.836  0.0431  0.2408 -0.1681
12685W        W28819   3.729   7.788   0.484 -0.0187 -0.3446  0.3448
12686W        W28820   2.610  15.596  12.741 -0.0548  0.0477 -0.1643
12687W        W28821  19.113  13.587   2.176 -0.1008 -0.0256  0.2297
12688W        W28822  17.147  11.365   5.066 -0.0439 -0.3829  0.0761
12689W        W28823  12.750   7.299  13.041  0.1479 -0.1435  0.2516
12690W        W28824   6.226  14.419  10.729 -0.3235 -0.1734  0.0748
12691W        W28825   7.000   3.859  13.391  0.0935 -0.2298  0.1382
12692W        W28826   9.858   8.523  14.090  0.2287 -0.1209  0.0178
12693W        W28827  16.616  15.686  10.780 -0.1760 -0.3767 -0.0565
12694W        W28828  11.971  17.880  10.674  0.0882  0.0553  0.1248
12695W        W28829   5.171   0.760   4.146  0.0054  0.0151  0.0055
12696W        W28830   4.523  12.646   1.144  0.1094  0.2595 -0.0196
12697W        W28831   7.311  17.469   1.876  0.3417 -0.1825 -0.5046
12698W        W28832  11.948   3.150  12.054  0.0733 -0.2469 -0.3072
12699W        W28833  11.244  11.882  14.126 -0.0994 -0.0215  0.1646
12700W        W28834   4.712  17.279  10.873  0.0395 -0.1208  0.1691
12701W        W28835  12.200  18.447   0.009  0.3252  0.2631  0.1034
12702W        W28836   0.649   1.854  12.293  0.2391  0.6755  0.1014
12703W        W28837   3.813  18.774   2.665 -0.1538  0.0554 -0.1155
12704W        W28838   6.611   9.528   3.188 -0.2157  0.2179 -0.1757
12705W        W28839  11.745   0.417  13.548  0.1131  0.2950 -0.3694
12706W        W28840   9.841   2.716   2.537 -0.0432  0.1100 -0.2275
12707W        W28841   2.114   5.149   5.490 -0.0605 -0.1194  0.0893
12708W        W28842  13.837  12.122   0.767  0.1025  0.2066 -0.3627
12709W        W28843  18.679   9.849  13.188 -0.0178  0.0874 -0.4393
12710W        W28844  12.225  13.272   4.591 -0.4288 -0.0918  0.1363
12711W        W28845  15.828   8.885   4.170 -0.0903  0.0644  0.0910
12712W        W28846  16.450   0.774   2.439  0.0590  0.1088  0.1821
12713W        W28847   9.553   5.861   3.547 -0.1151 -0.0032  0.0662
12714W        W28848  14.688   5.729   3.114 -0.3044 -0.0073  0.2020
12715W        W28849  15.885   4.503  13.015  0.1408 -0.1256  0.2585
12716W        W28850   0.561  12.884   4.993  0.1654 -0.0658 -0.2407
12717W        W28851   5.447  15.279   0.741 -0.2490 -0.1733  0.2888
12718W        W28852   8.480  17.167   1.738  0.0626  0.1247 -0.1233
12719W        W28853  11.558  14.169   0.090 -0.0526 -0.1446  0.1863
12720W        W28854  17.122   6.165   2.509 -0.0168  0.0214  0.2022
12721W        W28855   4.439  11.756   1.120  0.0581 -0.2725  0.1239
12722W        W28856   3.586   5.938  14.200 -0.1636 -0.2247  0.0133
12723W        W28857  11.612   2.888  11.741  0.2375 -0.1574  0.0816
12724W        W28858  13.269  15.265  12.591 -0.0441 -0.0088  0.2174
12725W        W28859   5.415  17.877   0.339 -0.1259 -0.1573 -0.0205
12726W        W28860   7.854  18.609  14.817  0.0267  0.0283 -0.2231
12727W        W28861   0.477  17.931  11.057 -0.2427 -0.0801 -0.1245
12728W        W28862  10.274  19.215  11.938 -0.1635  0.2205  0.3077
12729W        W28863   4.714  15.662   0.984  0.1287 -0.1843 -0.2660
12730W        W28864  13.991  15.529   1.578  0.2754 -0.1502  0.3030
12731W        W28865  18.115   8.058   1.570 -0.0054 -0.1106 -0.0002
12732W        W28866   6.642   2.562   1.214  0.0458 -0.1354  0.0751
12733W        W28867  17.151   5.025   2.645  0.1619  0.1200 -0.0565
12734W        W28868  11.006   0.137   3.134 -0.0617  0.0831 -0.0400
12735W        W28869   4.991  10.014   4.603 -0.2312  0.2022 -0.2249
12736W        W28870  15.177  10.225  14.945 -0.0594  0.0580 -0.1202
12737W        W28871  15.662   5.713  15.024 -0.0034 -0.2231  0.1199
12738W        W28872   2.032   5.289   1.073 -0.1275  0.1283  0.3436
12739W        W28873   3.224   8.716  13.333  0.2029  0.1754 -0.0843
12740W        W28874   4.988  18.571  10.640 -0.2869 -0.0346 -0.0744
12741W        W28875  14.547  17.817  12.585  0.0239 -0.1776  0.0826
12742W        W28876  15.445   2.938   3.226  0.0117  0.0154 -0.1665
12743W        W28877  14.367   8.884  12.582  0.3481 -0.0939  0.3243
12744W        W28878   7.031  16.257  10.514  0.1067  0.0449 -0.3038
12745W        W28879  16.373   5.481  13.345  0.0425  0.0591 -0.0939
12746W        W28880  11.656  12.069   0.467 -0.0509  0.1960  0.4411
12747W        W28881  17.108   1.857  12.406 -0.1095 -0.2646 -0.1210
12748W        W28882   1.533  12.526   2.967 -0.0566  0.0419 -0.3041
12749W        W28883   1.541   1.767   4.272 -0.3283 -0.2571 -0.1631
12750W        W28884  16.127  18.664  11.455  0.1498 -0.1089 -0.3615
12751W        W28885   1.204  13.619  12.556  0.0892 -0.2272 -0.2039
12752W        W28886  11.807  16.982   1.649  0.3783 -0.1915 -0.0437
12753W        W28887  14.334   1.323  11.108 -0.2253  0.0213 -0.1830
12754W        W28888   2.361   1.523  11.335 -0.1729 -0.0264 -0.2340
12755W        W28889  18.186   4.081  11.572 -0.0505 -0.1015  0.2088
12756W        W28890   9.236  18.469   2.956  0.0498  0.0353  0.1089
12757W        W28891  18.617   8.751  11.748  0.0334  0.4134 -0.0395
12758W        W28892  15.437  13.155  13.326  0.0522 -0.1775  0.2147
12759W        W28893  11.887  15.997  13.094 -0.1608  0.1265 -0.3243
12760W        W28894  14.690  11.624  11.945 -0.0045  0.0955  0.1004
12761W        W28895  14.552  15.644  14.256  0.1099  0.0863  0.2721
12762W        W28896   6.855   0.506  14.642  0.0541  0.0145  0.1385
12763W        W28897  15.972  13.483   2.183 -0.1484  0.0632  0.0664
12764W        W28898   8.845  17.201   3.364  0.3143  0.0766 -0.1849
12765W        W28899   1.917  13.872   1.491 -0.2424 -0.1996  0.2445
12766W        W28900  18.089   2.023  15.012  0.1710  0.1060  0.0676
12767W        W28901  12.553  11.618   3.022  0.1899  0.1710  0.3310
12768W        W28902   5.129   8.592   2.950  0.0158  0.0279  0.1762
12769W        W28903   4.212  12.624   5.725 -0.0624  0.1000 -0.0994
12770W        W28904  18.053   9.487  13.916 -0.4436 -0.3272  0.0126
12771W        W28905  13.207   8.694   2.123  0.1108  0.0262 -0.0568
12772W        W28906  15.695   5.583  14.373  0.2126 -0.1587 -0.1159
12773W        W28907  13.103   7.652   4.476 -0.3135  0.1870 -0.0038
12774W        W28908   6.492   5.983  14.283 -0.1096  0.0639 -0.2412
12775W        W28909   2.863  10.553   1.064 -0.1918 -0.0716 -0.1360
12776W        W28910   0.571  11.678   1.415 -0.1225  0.2185  0.4768
12777W        W28911   0.720   3.797   4.863  0.5611 -0.0158 -0.0760
12778W        W28912  18.927  15.582   3.121 -0.0357 -0.0278 -0.0817
12779W        W28913   0.923  14.496   0.286 -0.1712 -0.0259 -0.0362
12780W        W28914  16.459  18.169  13.718 -0.3252  0.1224 -0.0561
12781W        W28915  12.680   9.134   1.269 -0.0589 -0.2154  0.1893
12782W        W28916   0.953   6.161   3.304  0.0576 -0.2269  0.3724
12783W        W28917  17.239   4.534   1.737  0.4861 -0.0340  0.0041
12784W        W28918  10.736  17.674  10.538 -0.4408 -0.0401 -0.0577
12785W        W28919   1.800   0.943   3.831 -0.0252 -0.0551  0.2353
12786W        W28920   7.398   9.026   2.800 -0.0137 -0.4613 -0.2385
12787W        W28921   1.747  17.661  12.899  0.3153  0.1634 -0.3976
12788W        W28922   4.932  14.900   0.097  0.2173  0.0072 -0.1105
12789W        W28923   3.971   3.409   5.179  0.1642  0.0708 -0.1616
12790W        W28924   0.714   8.567  11.398 -0.1020 -0.2664  0.0434
12791W        W28925  15.684  17.265   0.551 -0.1732  0.0419  0.3611
12792W        W28926  11.157   5.625  11.397 -0.1906  0.3963 -0.2987
12793W        W28927  15.837   3.706   1.052  0.4058 -0.1182  0.1365
12794W        W28928  10.108  15.663   4.268  0.1839 -0.0137  0.1083
12795W        W28929  17.050   4.360  10.856  0.0753 -0.2971 -0.0185
12796W        W28930  16.969  12.029  10.990  0.0934  0.0209  0.0672
12797W        W28931  11.826  12.139  12.466  0.4241 -0.1063 -0.0197
12798W        W28932  15.075  10.639  13.809 -0.2277 -0.0559 -0.1835
12799W        W28933  16.733  12.493  11.844  0.1646 -0.0131  0.0491
12800W        W28934   2.203   3.203  11.194  0.0680 -0.1904 -0.1284
12801W        W28935   6.310  11.366   0.345 -0.0890  0.0277 -0.2934
12802W        W28936  16.415   6.340   3.271 -0.0838  0.3471  0.0684
12803W        W28937   0.661   7.466   1.926 -0.1185  0.0854 -0.1373
12804W        W28938  11.320   0.521  13.916 -0.1477  0.3083 -0.2088
12805W        W28939  11.039   0.003  14.140  0.0252 -0.1262 -0.2826
12806W        W28940   8.724  18.998  10.484 -0.5129 -0.2045 -0.0923
12807W        W28941   4.593   5.942  13.176  0.1865  0.1139  0.0421
12808W        W28942   8.925   8.881   0.649 -0.3287  0.3199 -0.1925
12809W        W28943  18.982   4.537   4.300 -0.1606 -0.0949 -0.0673
12810W        W28944   8.351  13.599  11.885 -0.1685 -0.1553  0.1554
12811W        W28945  15.034  17.192   1.936 -0.0820 -0.3143 -0.1725
12812W        W28946   2.530  11.722  14.492  0.0689 -0.0246 -0.2688
12813W        W28947   0.488  14.472  11.945 -0.0387  0.1894  0.5098
12814W        W28948   4.327  14.774  14.606  0.3446 -0.0028 -0.0878
12815W        W28949   5.153   1.032  11.196 -0.0498  0.1349 -0.1351
12816W        W28950   4.532   2.669  11.426 -0.2576  0.1065 -0.1839
12817W        W28951  18.753   2.533   2.070 -0.0893  0.3647 -0.1578
12818W        W28952  12.072   1.150  12.362 -0.0777 -0.2982 -0.1999
12819W        W28953  19.110   0.199   2.769  0.1267 -0.1695 -0.3432
12820W        W28954  12.989   1.398  12.127 -0.3592  0.1022  0.2963
12821W        W28955   7.193  11.482  13.469  0.0153  0.2801 -0.0774
12822W        W28956   3.641  18.060  11.512 -0.1917  0.1463  0.2808
12823W        W28957  15.192  14.177   3.289 -0.3405 -0.0933  0.1475
12824W        W28958   5.855   3.771   1.451 -0.4626 -0.2921 -0.3056
12825W        W28959   2.858  12.669  11.587  0.1961  0.0654 -0.1147
12826W        W28960  13.007  14.133   5.324  0.1655 -0.1850 -0.0651
12827W        W28961   0.677  17.478   2.476  0.1799  0.1234  0.1571
12828W        W28962   4.702   3.994  14.700 -0.3965 -0.1809 -0.0031
12829W        W28963  14.757   2.763  10.620 -0.0569  0.0451  0.1364
12830W        W28964   3.693   0.257  13.853 -0.0002 -0.0482 -0.1565
12831W        W28965  11.474  13.389   4.374 -0.3358  0.4491  0.0136
12832W        W28966  17.493  16.175  11.395  0.2490  0.2639  0.0124
12833W        W28967   2.638   5.664  11.095  0.3384 -0.0544 -0.4128
12834W        W28968   3.697  12.320   1.360  0.1055  0.0691 -0.0980
12835W        W28969   4.062  12.402   4.624  0.1045  0.0160  0.1601
12836W        W28970   9.726   0.907  13.595  0.4330 -0.0143  0.1168
12837W        W28971  16.064   9.332  10.016  0.1868 -0.0854 -0.0672
12838W        W28972   5.323   3.962   0.082  0.2068  0.0450 -0.0668
12839W        W28973   1.759  17.352  10.610  0.1360 -0.2437 -0.2592
12840W        W28974   1.537  17.327   0.977 -0.1923 -0.2793  0.0756
12841W        W28975   8.885   2.868   2.264  0.2070 -0.3086  0.0629
12842W        W28976   4.431   3.988   4.577  0.0212  0.0987 -0.1152
12843W        W28977  13.889  10.108   4.281  0.1883 -0.0492 -0.2553
12844W        W28978  13.066   4.305   0.174 -0.1037  0.2377 -0.1739
12845W        W28979   3.208  11.396  11.041  0.0663 -0.0193 -0.1016
12846W        W28980   3.653  10.637   0.011 -0.2546  0.0257  0.2409
12847W        W28981   1.525   2.721  11.630  0.0291  0.0964 -0.1854
12848W        W28982   3.931  16.890  10.989 -0.1529 -0.2756 -0.3306
12849W        W28983   6.070   7.171   2.583  0.1960 -0.2056 -0.1928
12850W        W28984   7.403   7.696   1.203  0.1186 -0.2472 -0.0513
12851W        W28985  11.232   3.780   1.686 -0.2114 -0.0516  0.0067
12852W        W28986  12.919   6.926   3.480  0.0225  0.1858  0.1083
12853W        W28987  10.737   4.243   3.171  0.1551 -0.1699  0.3132
12854W        W28988   5.943   4.110  11.311  0.0500  0.1648 -0.0548
12855W        W28989  14.679   5.732  14.327 -0.0469  0.1545 -0.0648
12856W        W28990   7.897  16.325   1.081 -0.0022  0.0414  0.1605
12857W        W28991   5.069   3.750  12.908  0.1343  0.2062  0.3096
12858W        W28992   9.957  17.024  14.776 -0.1148  0.1839 -0.1446
12859W        W28993   4.499   1.655   0.890  0.1123  0.5737  0.2443
12860W        W28994   2.739  11.302  10.711  0.1665  0.0806  0.1787
12861W        W28995  14.212  10.362   4.562  0.1952  0.2235  0.0075
12862W        W28996  12.380   4.587   3.664  0.0849 -0.0345 -0.0806
12863W        W28997   1.058   4.859   1.834 -0.1936  0.0803  0.0682
12864W        W28998  14.477   6.217  13.393 -0.0040  0.3989  0.0224
12865W        W28999   9.875   6.219  13.200 -0.0188  0.3730 -0.0148
12866W        W29000   9.096   7.989   1.271  0.2430 -0.0880 -0.2873
12867W        W29001  14.496   5.679  10.961  0.2366  0.2625 -0.3272
12868W        W29002  17.926   6.520   2.455 -0.2089 -0.0575  0.3025
12869W        W29003   0.009   1.511   0.322  0.0073 -0.0665  0.2517
12870W        W29004   6.116  12.512   3.714  0.1635  0.1709  0.2337
12871W        W29005   7.157   5.781   2.260 -0.0750 -0.1722  0.1310
12872W        W29006   7.336   8.290  10.780  0.1465 -0.0577  0.2886
12873W        W29007  10.016   0.415  10.272 -0.1357  0.4841 -0.1481
12874W        W29008   7.446   9.245  14.753 -0.1646 -0.1317  0.1658
12875W        W29009  11.335  10.432   0.204  0.1094  0.0037  0.1244
12876W        W29010  19.069  14.353  10.824 -0.1815 -0.0842 -0.1112
12877W        W29011   8.191  12.829   2.127 -0.1747  0.0757 -0.0473
12878W        W29012   5.342  16.525   2.863  0.0941 -0.3716 -0.1720
12879W        W29013   3.636  13.694  14.677 -0.0093 -0.0150  0.1016
12880W        W29014  12.157   4.525   4.774 -0.0680 -0.0683  0.0199
12881W        W29015   7.729  16.094  10.498  0.0563  0.0552  0.1960
12882W        W29016  10.594  10.829  14.325  0.0453  0.1882  0.0876
12883W        W29017   7.442   8.450   3.037 -0.1330  0.0726  0.0842
12884W        W29018   0.655  18.087   4.916 -0.0843  0.3791 -0.0398
12885W        W29019   1.728   2.261  15.006  0.2804  0.1932 -0.0631
12886W        W29020  17.550  12.262   4.563  0.2428  0.1850 -0.2570
12887W        W29021  11.568  14.711   0.128  0.1504 -0.0620  0.0926
12888W        W29022  12.880  18.914   9.776 -0.1586  0.2968  0.3942
12889W        W29023  18.576  18.339  13.058 -0.1857  0.1694  0.1739
12890W        W29024  10.372   1.838   1.203 -0.2339  0.1984 -0.1660
12891W        W29025  17.052  13.407   4.909 -0.0771 -0.0254 -0.2467
12892W        W29026   1.793   7.455   4.913 -0.1062  0.0516 -0.0822
12893W        W29027   0.040  17.808  12.966  0.0918  0.4608 -0.3375
12894W        W29028   0.592   1.601  10.334 -0.2238  0.3520 -0.1613
12895W        W29029   7.540  12.138   0.927 -0.1282  0.0491  0.2858
12896W        W29030  18.829  14.647  12.060 -0.0538  0.1309 -0.1628
12897W        W29031   6.939   4.793  15.017  0.2256  0.2040 -0.0200
12898W        W29032  12.643  14.177   2.149  0.0909  0.3046  0.0278
12899W        W29033   3.160  14.205  11.151 -0.1922  0.1535  0.1178
12900W        W29034  15.141  10.960   1.006  0.0825 -0.0531  0.0683
12901W        W29035   0.686   8.811  15.023 -0.2925  0.1740 -0.0576
12902W        W29036   8.395   6.845  11.529  0.3140 -0.1432 -0.0529
12903W        W29037  18.794  13.701  12.070  0.0627  0.1198 -0.3447
12904W        W29038   1.503  11.334  12.688 -0.3912  0.3144 -0.0387
12905W        W29039   9.824   9.185   0.002  0.0016  0.2225  0.0052
12906W        W29040   6.920   4.832   9.881 -0.1252  0.0269 -0.0446
12907W        W29041   7.753  12.412  11.226  0.2720 -0.2151  0.1112
12908W        W29042   8.811   9.403   2.395  0.1511 -0.0552  0.1741
12909W        W29043  10.863  12.710  11.666  0.2485 -0.3546 -0.2192
12910W        W29044  16.700  16.213  13.854 -0.1977  0.0247  0.3006
12911W        W29045   5.901   1.831   0.007  0.0455  0.1303  0.2589
12912W        W29046   8.478   6.332   4.250  0.4412 -0.2632 -0.2650
12913W        W29047  10.577   6.925   2.500  0.0752  0.2135  0.4105
12914W        W29048  12.930   5.863  12.047 -0.2034  0.0506 -0.1089
12915W        W29049  14.996  12.392  11.211  0.0579  0.0409  0.0335
12916W        W29050  17.288   8.154  14.466  0.3761  0.0646  0.0650
12917W        W29051   2.648   8.297   3.956  0.0440 -0.1774  0.0222
12918W        W29052  16.651  12.422   0.788 -0.2766  0.0417 -0.2276
12919W        W29053   0.486  19.229  13.782  0.2649  0.0655  0.2542
12920W        W29054   0.923  16.086  13.393  0.0973 -0.2358 -0.0259
12921W        W29055   1.641   6.616   0.201  0.0794 -0.2293  0.1366
12922W        W29056  17.875  13.612   9.845  0.1249  0.3650  0.0606
12923W        W29057  10.805  15.563  15.019 -0.1447  0.2423 -0.0860
12924W        W29058   9.213   1.018  15.012  0.1300  0.0233  0.1165
12925W        W29059  15.026   8.575  14.000  0.4174  0.0798 -0.0621
12926W        W29060   1.370   6.041   1.094  0.0739  0.3293  0.1580
12927W        W29061   6.549   8.211   5.363 -0.0510 -0.2996  0.1126
12928W        W29062   5.275   8.290  10.371  0.0069 -0.1296 -0.1013
12929W        W29063  15.850  11.167   3.604  0.0247 -0.2572  0.1832
12930W        W29064  17.198  14.574  14.956 -0.0239 -0.0215  0.1721
12931W        W29065  15.738  12.907   4.580  0.0942  0.0027  0.0084
12932W        W29066   8.848  17.832   3.319 -0.1196 -0.3152  0.0277
12933W        W29067  16.955  17.901  10.279 -0.1923  0.0416 -0.1945
12934W        W29068   9.199   4.618   4.529 -0.0185 -0.0381  0.2448
12935W        W29069  16.492  15.301  11.146 -0.2092 -0.2234  0.0284
12936W        W29070   1.381   2.103  13.413 -0.2173 -0.0311  0.1016
12937W        W29071   8.546   5.359  13.080 -0.0666 -0.2969 -0.3507
12938W        W29072   2.098  12.044   2.285 -0.0684  0.2669 -0.0392
12939W        W29073  17.722  16.697  14.115  0.1514 -0.0124 -0.0831
12940W        W29074   3.648  10.738  13.503 -0.1581  0.3912  0.0578
12941W        W29075  16.619   0.633  14.006  0.1034 -0.2325  0.3160
12942W        W29076  10.965   7.361  10.894  0.1731 -0.1230 -0.4774
12943W        W29077  11.677  13.397  11.081  0.1972 -0.3725 -0.0748
12944W        W29078   0.722  12.598  11.371  0.0506  0.1466 -0.1519
12945W        W29079  13.651  10.830  12.664  0.1839 -0.1888 -0.1018
12946W        W29080  15.602   0.117   4.674  0.1301 -0.3235 -0.0681
12947W        W29081  10.303  16.087   1.718  0.1936 -0.0563 -0.1493
12948W        W29082   5.592  10.045   1.378 -0.0570 -0.0822  0.2819
12949W        W29083  11.295   3.423   2.816 -0.0950 -0.0335 -0.0245
12950W        W29084  17.977  11.308   1.119 -0.0753  0.1053  0.2179
12951W        W29085   6.724   4.332  13.238 -0.1419 -0.0870 -0.0537
12952W        W29086   1.546   6.612  14.214 -0.2456 -0.1711 -0.1255
12953W        W29087   5.614   4.657   2.364 -0.0743  0.0137 -0.6703
12954W        W29088   0.462  11.796   3.287  0.0119  0.0226 -0.1588
12955W        W29089  15.523  17.052  10.526  0.1030  0.3914 -0.0976
12956W        W29090  10.718   0.657   3.023 -0.0442 -0.1271 -0.3107
12957W        W29091   2.933   0.800  13.184 -0.0673 -0.0325 -0.1453
12958W        W29092  17.677   5.393   2.117 -0.0927  0.4623  0.2118
12959W        W29093  18.329   7.761  11.478 -0.0963 -0.0213 -0.1496
12960W        W29094   2.126   9.057  14.387 -0.0222 -0.0950  0.2021
12961W        W29095  12.684   6.692   4.398  0.4294  0.0842  0.0533
12962W        W29096  12.489   2.842   2.948 -0.0438 -0.0926 -0.2919
12963W        W29097   1.224   2.103  10.907 -0.1051 -0.3210  0.2198
12964W        W29098  10.359  11.731  14.215 -0.1146 -0.0863 -0.0586
12965W        W29099   8.797   2.900   0.953 -0.0046  0.0755 -0.4432
12966W        W29100   7.784  17.030  11.097 -0.3477  0.0738 -0.0883
12967W        W29101  16.467   6.913  13.389 -0.0623 -0.0856  0.1399
12968W        W29102   0.059   4.424   4.702 -0.1545 -0.0777  0.1032
12969W        W29103  16.121   0.179   3.844 -0.5821  0.2676 -0.2614
12970W        W29104   9.184  11.389   2.032  0.4815  0.0435  0.1441
12971W        W29105  11.941  18.810  10.539  0.1800 -0.0985 -0.1535
12972W        W29106   4.702  10.022   1.872  0.0741  0.1504 -0.0729
12973W        W29107  15.529   8.634   1.420  0.3111  0.1862 -0.1516
12974W        W29108   7.906   8.673   1.941 -0.6730  0.2978  0.1239
12975W        W29109  12.981   4.127  10.465  0.0287  0.3623  0.2326
12976W        W29110   8.234   6.706  12.901  0.0268  0.1981  0.5181
12977W        W29111  11.082  10.954  14.283  0.1698 -0.2450  0.2370
12978W        W29112   0.184  18.254  12.617 -0.4579 -0.1364  0.0918
12979W        W29113  17.695   2.748   0.007 -0.1453  0.3576  0.2174
12980W        W29114  18.875   2.182   3.486 -0.1717  0.1250 -0.1268
12981W        W29115   3.521   1.765   0.909  0.3113  0.0668  0.3862
12982W        W29116   9.847   7.827  10.248 -0.0738 -0.0743 -0.2946
12983W        W29117   1.706  17.083   3.322 -0.2752  0.1018  0.0495
12984W        W29118   8.524  14.713  13.625 -0.1830 -0.4435  0.1283
12985W        W29119   8.772  12.391   3.178  0.1491 -0.0706 -0.2588
12986W        W29120   0.311  15.342  14.978 -0.4075  0.1371  0.3861
12987W        W29121   4.564   6.778  11.678  0.2049  0.0388 -0.0496
12988W        W29122  16.841   7.097  11.636  0.0430  0.1811 -0.1538
12989W        W29123   2.252   3.683   0.259 -0.1470  0.3733  0.2172
12990W        W29124  11.255   0.607   0.929 -0.0955 -0.2688  0.0890
12991W        W29125  13.260   0.421   3.033 -0.0502  0.1117 -0.2531
12992W        W29126   5.667   5.390   9.730 -0.2869 -0.1973 -0.0441
12993W        W29127   4.302  14.048  10.824 -0.3491 -0.0439  0.0852
12994W        W29128   9.715   3.485   1.939 -0.0892 -0.0303 -0.2003
12995W        W29129   6.355   3.359   4.217 -0.1990  0.1585 -0.0874
12996W        W29130   7.129  11.340  11.221  0.3065 -0.2796 -0.0597
12997W        W29131  15.178  17.224  12.536 -0.0911 -0.0355  0.0835
12998W        W29132   4.066  12.425   4.087 -0.0177 -0.1087 -0.0492
12999W        W29133   7.592   5.189  13.410 -0.0543 -0.2775 -0.4158
13000W        W29134  12.829  19.132  14.008  0.0914  0.0331  0.3951
13001W        W29135   7.116   1.431   3.725 -0.1992  0.0248  0.0913
13002W        W29136  16.400  15.917   0.886  0.1738  0.1390  0.0282
13003W        W29137   2.419  11.949   1.875  0.2769 -0.0176  0.0837
13004W        W29138  13.821  16.251   3.371  0.4897 -0.2436 -0.2713
13005W        W29139   7.841   7.787  13.713 -0.2878  0.2437  0.0412
13006W        W29140  10.144  15.284   3.885 -0.1096  0.0058  0.4744
13007W        W29141  13.435  13.989  13.756 -0.0509  0.0194  0.0823
13008W        W29142   0.732   5.080   4.659 -0.0886  0.1512 -0.0449
13009W        W29143  13.151  10.479   0.941 -0.2092 -0.0762 -0.0962
13010W        W29144   4.974  12.804  14.145 -0.0800 -0.3189  0.0010
13011W        W29145  16.021  13.741   3.789 -0.0461  0.0148  0.0103
13012W        W29146   5.856   8.421   1.111 -0.2398  0.1392  0.0984
13013W        W29147   7.850  18.336   3.052 -0.3183 -0.2837 -0.1039
13014W        W29148  12.904  14.404  14.948 -0.2565  0.1073  0.2150
13015W        W29149   5.115  18.061  11.820 -0.0729 -0.0573 -0.2392
13016W        W29150   1.617  10.638   2.664 -0.0720 -0.2492 -0.0576
13017W        W29151   0.183  10.947   1.497 -0.1083  0.3317 -0.1049
13018W        W29152   8.331  16.279   3.643 -0.0512  0.0477 -0.0426
13019W        W29153  15.692   0.131   2.973 -0.0019  0.2690 -0.3107
13020W        W29154  11.025   5.987  12.417 -0.0137  0.3041  0.2723
13021W        W29155   9.258   3.994  13.960  0.0786  0.1426  0.1426
13022W        W29156  13.618   7.412  11.525  0.0145 -0.0919 -0.1008
13023W        W29157  12.653  12.385  13.173 -0.0701  0.1556  0.2269
13024W        W29158  13.678   2.564  11.912 -0.1724  0.0869 -0.0972
13025W        W29159   8.553   5.208  11.063  0.0888 -0.0044  0.1827
13026W        W29160  15.115  16.492   0.881 -0.0973  0.2568 -0.3416
13027W        W29161   4.327  10.622   3.627  0.1632  0.1627 -0.1251
13028W        W29162   0.862   8.314   2.360  0.0335  0.5478 -0.0964
13029W        W29163   7.161  11.803  11.406  0.1365 -0.1418 -0.1820
13030W        W29164  19.068  10.674   4.423 -0.1095 -0.0349 -0.1302
13031W        W29165  13.863   1.448   2.438 -0.4055  0.3078 -0.2064
13032W        W29166   8.136   4.509   2.389 -0.1361  0.1231  0.2645
13033W        W29167  13.545   7.150  13.344  0.0191  0.3251  0.3133
13034W        W29168   9.485  12.592  10.703 -0.2375  0.1053  0.2689
13035W        W29169  12.342   5.604  12.799  0.1473 -0.0556 -0.1796
13036W        W29170   1.926   0.549   2.972 -0.0268  0.0670 -0.1236
13037W        W29171   5.978   1.059  13.479  0.0986 -0.1099  0.2272
13038W        W29172  13.344  18.253  12.114 -0.0754  0.1510  0.0709
13039W        W29173  18.684   5.824   1.515 -0.2954 -0.0361  0.2765
13040W        W29174   0.881  11.541  13.850 -0.0737 -0.0181  0.0583
13041W        W29175  18.978   2.264  13.785  0.1084  0.0697  0.0902
13042W        W29176   7.403   6.198   5.129  0.0183  0.1342 -0.0861
13043W        W29177  11.617   1.473   1.373  0.1513  0.0210 -0.2158
13044W        W29178  19.240   2.631  11.001 -0.1516  0.0602  0.0157
13045W        W29179   3.508  11.902  14.132  0.0394 -0.1761  0.3154
13046W        W29180   6.498  10.516  11.592  0.1382  0.0613  0.0277
13047W        W29181  12.118   9.996   0.071 -0.0877 -0.0827 -0.2776
13048W        W29182   5.687  13.404   2.190  0.1443  0.2792  0.1310
13049W        W29183  15.904   2.261   0.388 -0.0373  0.1951 -0.0561
13050W        W29184  15.080   4.386   0.586 -0.0614  0.1133 -0.2348
13051W        W29185  16.478   2.829  12.546  0.1250  0.3442 -0.1096
13052W        W29186  19.207  14.872  13.760 -0.0365  0.1927  0.0532
13053W        W29187   1.729   7.925   1.681  0.0864  0.0471  0.0695
13054W        W29188   2.369   6.451  11.754  0.0559 -0.2009  0.0089
13055W        W29189   0.647  12.340  14.341  0.2276  0.3313 -0.0463
13056W        W29190   6.369  18.601   4.175 -0.1522  0.1558 -0.5060
13057W        W29191  17.854   7.451   0.863  0.1458 -0.3280  0.2343
13058W        W29192   4.184   9.863  13.688 -0.3143  0.0110  0.1201
13059W        W29193   2.830   8.354   0.094 -0.3683  0.0673  0.2608
13060W        W29194   3.365  11.464  14.941  0.1973  0.0359  0.3221
13061W        W29195  14.808  19.120   4.773  0.1582 -0.1066 -0.0681
13062W        W29196   3.923   6.210   5.361  0.2117 -0.0585  0.0821
13063W        W29197  16.831  16.558   1.551 -0.0937 -0.0925  0.3112
13064W        W29198   1.548   5.968   4.397  0.0152  0.1260 -0.3177
13065W        W29199  16.205   6.303  10.380  0.1609 -0.0236 -0.1012
13066W        W29200   0.506  16.080   3.213 -0.0500  0.4664  0.0205
13067W        W29201   0.524  17.127   1.207  0.4036 -0.2119 -0.1400
13068W        W29202   1.823  16.729   2.200 -0.5617 -0.0153  0.0847
13069W        W29203   8.624  14.014   4.840 -0.2083 -0.3130  0.2546
13070W        W29204  14.368   2.106   0.626  0.0800 -0.3364 -0.0969
13071W        W29205  16.253   3.683   4.577 -0.2907  0.2265  0.1124
13072W        W29206  17.783  17.272  10.646  0.1174 -0.1548 -0.0574
13073W        W29207  18.991  13.387  11.600 -0.0094  0.0394  0.1752
13074W        W29208   0.526   1.063   1.874  0.1588 -0.0498 -0.0793
13075W        W29209   2.666   7.665   2.677 -0.0679 -0.0988 -0.1779
13076W        W29210  10.246   9.569  12.477 -0.0775  0.1233  0.3338
13077W        W29211   5.748  18.357  11.012  0.1970  0.0622 -0.0735
13078W        W29212  16.346  17.091   3.711 -0.2232  0.1557  0.1894
13079W        W29213   6.724  16.948  12.939  0.2233 -0.1985  0.2209
13080W        W29214  14.081   0.067  12.248  0.0066 -0.2209 -0.2455
13081W        W29215  12.865   7.571   4.032 -0.0936  0.1068 -0.0590
13082W        W29216   5.777  14.402   0.587 -0.0149  0.1606  0.0776
13083W        W29217  17.673   9.715   4.253  0.2233  0.0421 -0.1604
13084W        W29218  13.465   5.690  11.957  0.2366  0.1879  0.3507
13085W        W29219   9.141  18.910   0.012  0.0700  0.0180 -0.1911
13086W        W29220   5.616  14.125  12.912  0.2023  0.3053  0.1061
13087W        W29221  16.901   1.442  13.618 -0.1736  0.0988  0.0936
13088W        W29222  13.122   8.004  14.336  0.0293 -0.1952 -0.1075
13089W        W29223   0.970   4.212   4.490 -0.0296 -0.1839 -0.3225
13090W        W29224  16.670   4.318  14.571  0.0245  0.2067  0.1446
13091W        W29225  14.405  10.010  10.930  0.0422 -0.0048 -0.1910
13092W        W29226   7.944  16.406   5.862  0.0606 -0.1536  0.3443
13093W        W29227   7.136   0.807   0.332  0.1533 -0.0729  0.2957
13094W        W29228   8.718   2.751  14.519  0.0408  0.0179  0.2227
13095W        W29229  12.371   3.161  13.589 -0.1182 -0.3737 -0.0002
13096W        W29230   5.312   5.307   1.307 -0.0468  0.2625  0.2152
13097W        W29231   9.172   2.561   2.822  0.1038  0.0605  0.1983
13098W        W29232   9.932   3.016   3.505 -0.1290  0.0950 -0.1137
13099W        W29233  14.728  13.650   4.877 -0.0575 -0.1912 -0.0903
13100W        W29234   0.479   4.971   9.785 -0.0258 -0.0436  0.0934
13101W        W29235  11.606   3.921   1.242  0.0126  0.0406  0.1808
13102W        W29236  16.172   9.290  10.536  0.0600  0.1697 -0.3252
13103W        W29237  16.838   8.646  12.405 -0.3544  0.0582  0.1523
13104W        W29238   7.267   4.720   0.575 -0.0093 -0.1355  0.2182
13105W        W29239  15.356  12.106   4.168  0.0954 -0.3093 -0.0601
13106W        W29240   8.395  15.924   4.427  0.2554 -0.0173  0.2367
13107W        W29241  10.380  16.294   1.261  0.2828  0.0973  0.5381
13108W        W29242  17.739   6.479  14.432  0.0561 -0.0899  0.0015
13109W        W29243  16.179   4.136   3.488 -0.1017  0.0551  0.0418
13110W        W29244  17.849   8.312   3.846  0.0255  0.2496  0.0593
13111W        W29245  11.635  14.052  11.634  0.0907  0.1024  0.1102
13112W        W29246  18.066  11.425  12.763 -0.2608 -0.1674 -0.1989
13113W        W29247   0.581   6.615  14.448  0.0307  0.3373 -0.3448
13114W        W29248  18.823  17.833  14.802 -0.0359  0.0933  0.1691
13115W        W29249   1.746  11.567  13.049  0.1376  0.1837  0.0450
13116W        W29250  14.127   1.443   3.506  0.2051  0.0624  0.2694
13117W        W29251   3.979   7.643  10.985 -0.1141  0.2106  0.1665
13118W        W29252  12.687  11.747  13.041 -0.0078  0.2138  0.0403
13119W        W29253   9.123   6.956   4.515  0.0662 -0.0798 -0.0977
13120W        W29254  13.795  13.459   3.838  0.1366 -0.2298 -0.1443
13121W        W29255  10.831  17.783   1.923 -0.1480  0.1628 -0.0168
13122W        W29256   5.898  12.596   0.382 -0.2372 -0.3303 -0.1054
13123W        W29257  12.332   7.432  11.018 -0.2988 -0.1845 -0.0425
13124W        W29258   2.823  15.164   3.004 -0.3611 -0.1233  0.2930
13125W        W29259   0.291   8.730   1.460 -0.2864 -0.0167  0.1386
13126W        W29260   1.602  15.910  12.611 -0.3075 -0.3249 -0.0517
13127W        W29261  13.128   1.665   3.513 -0.4603  0.1805 -0.1186
13128W        W29262  10.566  15.580   3.859  0.2140 -0.0706  0.2824
13129W        W29263  12.767   0.416   0.477  0.0357  0.0807  0.1408
13130W        W29264   1.238  15.045  14.502 -0.0046 -0.5559  0.0342
13131W        W29265   9.638   5.795  12.138 -0.2341 -0.0150 -0.0429
13132W        W29266   9.750  16.594  14.406 -0.1017  0.1666  0.3320
13133W        W29267  17.756   1.097   9.217  0.3098  0.3069 -0.1239
13134W        W29268  16.730  13.603   1.225 -0.2726  0.1185  0.1400
13135W        W29269   4.908   2.169  10.439  0.3622 -0.2464 -0.1346
13136W        W29270   4.281  13.201   3.511  0.0916 -0.0633  0.0779
13137W        W29271   5.971   4.782  14.667 -0.0850  0.0746  0.1329
13138W        W29272  15.707  15.626  14.507  0.0955  0.2332  0.3059
13139W        W29273  13.392   4.916   2.853  0.1792  0.2112 -0.0461
13140W        W29274   4.239  18.313  13.863 -0.0115  0.2628 -0.1401
13141W        W29275   8.014   0.917  11.743 -0.1569  0.2827 -0.0152
13142W        W29276   7.271   6.846   3.588  0.3709 -0.0525  0.1308
13143W        W29277  13.422   5.406  10.250  0.2818 -0.0246  0.0791
13144W        W29278   1.600   7.392   1.567  0.2465  0.1416 -0.0138
13145W        W29279  17.016   3.879   5.119  0.0054  0.0277  0.0815
13146W        W29280  17.725  18.411  11.338  0.3023 -0.2258 -0.1279
13147W        W29281   9.002  13.694   1.819 -0.2107  0.0985  0.2149
13148W        W29282  17.711   3.490  11.435  0.0151 -0.1592 -0.1506
13149W        W29283   4.867   1.248   0.812 -0.2068 -0.0547  0.1538
13150W        W29284  12.283   6.352   0.195  0.1520 -0.0535 -0.0435
13151W        W29285   2.456   9.947   4.906  0.2422 -0.1898  0.1555
13152W        W29286  10.772  16.773  11.871 -0.0703 -0.0525  0.1665
13153W        W29287   3.045   7.224   4.041  0.0941 -0.0781  0.1167
13154W        W29288  10.856  13.983  13.483  0.2117 -0.0631  0.0816
13155W        W29289  17.490  12.545  14.865  0.1738  0.0433  0.0913
13156W        W29290  10.655   6.278  14.980  0.1204 -0.0965 -0.2677
13157W        W29291  10.964  16.038  14.941  0.1360  0.0053 -0.1189
13158W        W29292   3.679   8.117  14.047  0.1407  0.2043  0.1321
13159W        W29293   3.733   1.575   4.501  0.0462 -0.0208 -0.1967
13160W        W29294  15.001   8.907   4.996  0.0545  0.0191  0.1108
13161W        W29295  11.990  12.232  14.694  0.0752 -0.0477  0.0657
13162W        W29296   4.290  11.609  12.632 -0.0311 -0.1229 -0.1306
13163W        W29297   8.635   9.015   3.594  0.2683  0.0242  0.0580
13164W        W29298  10.718  11.857  11.828 -0.0340  0.3600 -0.2064
13165W        W29299   0.344  10.513   1.144  0.3732 -0.0581 -0.0378
13166W        W29300  14.209   2.434   1.547  0.1205 -0.0868 -0.1948
13167W        W29301   9.323   4.813   2.787 -0.4336  0.1450 -0.1438
13168W        W29302  18.379   3.910  12.002 -0.0475 -0.0348 -0.0317
13169W        W29303  17.852   8.580  14.401  0.0651  0.0907 -0.0412
13170W        W29304   6.562  15.160   5.022  0.0928 -0.0363  0.1937
13171W        W29305  16.802  17.474   3.809 -0.1435  0.0066 -0.0935
13172W        W29306   4.379   4.645   1.147 -0.2370  0.3094  0.0814
13173W        W29307   1.110   6.924   0.826  0.0934 -0.1692 -0.1386
13174W        W29308   4.190   2.656  13.191 -0.1193 -0.1406  0.1366
13175W        W29309   1.930   3.765   4.856 -0.1688  0.1163  0.1719
13176W        W29310  16.265  14.140   4.019 -0.1308  0.0845 -0.1223
13177W        W29311  10.196  18.633  10.173 -0.0793 -0.0655 -0.2460
13178W        W29312   5.377  15.621   1.939 -0.1420  0.3417  0.0868
13179W        W29313   2.063  13.097   0.234 -0.0618  0.0193  0.1457
13180W        W29314   8.271   6.644   5.479  0.1167 -0.4577  0.0894
13181W        W29315  18.193   8.959  14.914 -0.1532  0.0251 -0.0588
13182W        W29316  13.289  16.565  13.024  0.0928 -0.2921  0.1911
13183W        W29317   1.833  14.878  11.729 -0.1427  0.1488 -0.2794
13184W        W29318   2.888  10.313   3.212  0.1837  0.1469  0.0204
13185W        W29319   2.183   6.296  12.809  0.2392 -0.0698 -0.3218
13186W        W29320   9.054   8.728  10.849 -0.0594 -0.0437  0.1456
13187W        W29321  16.399   0.780  12.770 -0.2033  0.1188  0.0431
13188W        W29322  12.990  17.379  11.484 -0.1619  0.5192 -0.0764
13189W        W29323   4.376   9.417  11.709  0.3599 -0.0781  0.2921
13190W        W29324   0.633  19.011   3.332  0.0917 -0.2756  0.3012
13191W        W29325   4.426   8.603  10.709  0.1916 -0.1483  0.1299
13192W        W29326  13.813   0.888  14.217 -0.0860 -0.0291 -0.0151
13193W        W29327  16.593   1.592  10.432  0.0054 -0.2172 -0.2732
13194W        W29328   5.009   4.474  10.280  0.1779  0.2372  0.2057
13195W        W29329  19.193  18.405   1.260  0.0427  0.1507  0.1319
13196W        W29330  19.129   9.591  11.276  0.1627 -0.0260  0.1490
13197W        W29331   6.593   2.687   4.040  0.0425  0.2111 -0.1639
13198W        W29332  16.388   6.909   0.237  0.0808  0.5590  0.0229
13199W        W29333   4.871   6.784   3.468  0.0571 -0.3952 -0.0234
13200W        W29334  13.029   4.712   3.102  0.1146  0.2427  0.0629
13201W        W29335   4.958  17.809  12.619 -0.0186 -0.1559 -0.0036
13202W        W29336   0.446   8.875   1.000  0.0469 -0.0636 -0.0836
13203W        W29337  10.167   2.456  13.129  0.2081 -0.0896 -0.0430
13204W        W29338   3.603  14.396   2.781  0.3046  0.0371  0.0190
13205W        W29339   4.700   5.439   0.541  0.0021  0.0576  0.0462
13206W        W29340   0.921   9.205   2.538  0.1660 -0.2434 -0.0807
13207W        W29341  12.781   2.159  11.729 -0.0978 -0.2622 -0.1064
13208W        W29342  14.890   4.178  11.903  0.1582 -0.0421 -0.0236
13209W        W29343   5.980   9.246   2.775  0.0625  0.1997 -0.4181
13210W        W29344  13.717  16.613  13.757 -0.0188  0.0685  0.1238
13211W        W29345   3.614   0.308   0.416  0.0741 -0.2008 -0.0831
13212W        W29346  10.269  15.808   4.714 -0.0272  0.2033 -0.0134
13213W        W29347  18.111   8.708   2.797  0.0687 -0.0306 -0.1548
13214W        W29348   4.543   2.224  11.757 -0.0079 -0.1653 -0.0598
13215W        W29349   7.781  16.357   1.587 -0.2174  0.0120  0.1049
13216W        W29350  12.574   5.673   2.276 -0.0784 -0.0911 -0.3001
13217W        W29351  16.386   1.988  12.122  0.2376  0.0298 -0.0796
13218W        W29352  18.187   6.406  12.802  0.0911 -0.2750  0.0310
13219W        W29353   3.116   2.791  14.730 -0.1567 -0.1997 -0.0298
13220W        W29354  18.301   6.113   1.456 -0.0129 -0.1971 -0.1487
13221W        W29355  17.346  11.313  14.951 -0.0226 -0.1132  0.0817
13222W        W29356   1.755  17.666   3.731  0.2436 -0.1705  0.3333
13223W        W29357  10.543   9.992  12.615 -0.4128  0.1197 -0.1167
13224W        W29358   3.057  10.590   2.650  0.2930 -0.0339 -0.1751
13225W        W29359  13.790   0.729   4.036  0.2023  0.2838 -0.2213
13226W        W29360  15.077   0.045  11.890  0.4172 -0.4341  0.2102
13227W        W29361   0.370   3.086   4.153 -0.1202  0.2250 -0.0669
13228W        W29362   4.239   9.504  14.781  0.0359  0.3494 -0.3534
13229W        W29363  11.966  17.847  12.546  0.0886  0.2036  0.0068
13230W        W29364  14.409  15.080   5.206 -0.0042  0.1154 -0.2240
13231W        W29365  12.441   2.959   0.559 -0.2919 -0.1448 -0.1613
13232W        W29366   5.632  12.172  12.703 -0.0906  0.1892 -0.1535
13233W        W29367  13.646  11.002  11.627 -0.4774 -0.1136 -0.1116
13234W        W29368   5.984  17.813  14.775  0.0072  0.0648 -0.3006
13235W        W29369  10.211  16.942   1.851 -0.1183  0.1082 -0.0724
13236W        W29370   1.601   7.185  13.908  0.0934  0.3867  0.1048
13237W        W29371   4.980   2.421   2.493 -0.0189  0.1843  0.0212
13238W        W29372  14.928  14.305  12.779  0.2751 -0.2033 -0.0287
13239W        W29373  12.774  17.824  11.375  0.1686  0.3019  0.1906
13240W        W29374  18.925  15.424  12.495 -0.1063  0.1821 -0.7015
13241W        W29375   7.196   8.793   1.590 -0.2764  0.0731 -0.0212
13242W        W29376  16.285  13.521  14.145  0.1957 -0.1249  0.0803
13243W        W29377   8.176  11.845  11.596 -0.1461 -0.5885 -0.1656
13244W        W29378   5.693   2.696   2.992  0.1561  0.2226 -0.0767
13245W        W29379   6.817   9.905   1.252 -0.0853  0.0232  0.3034
13246W        W29380  14.677   7.266  11.332 -0.0984 -0.0671  0.1241
13247W        W29381   0.773   0.317  13.454  0.0933 -0.2311  0.2360
13248W        W29382  18.346  12.825   1.410  0.0041 -0.0359  0.1689
13249W        W29383   8.723  12.356   4.223  0.1500  0.2775  0.0726
13250W        W29384   5.531   0.743   1.988 -0.2756 -0.1541 -0.1700
13251W        W29385  14.432  10.423  13.621 -0.0545  0.0529  0.0979
13252W        W29386   6.033  18.375   0.652  0.0681 -0.0347  0.2187
13253W        W29387  19.022   3.380  11.959 -0.0090 -0.1497 -0.2087
13254W        W29388   4.132   2.079  10.964  0.3658  0.1818  0.0891
13255W        W29389   0.947   8.111   1.123 -0.2290 -0.0593 -0.0760
13256W        W29390   5.963  13.757   2.868 -0.0094  0.1045 -0.1775
13257W        W29391  18.980   3.553   4.994  0.2336  0.0577 -0.0350
13258W        W29392   9.606  12.942   4.430  0.0378  0.0465  0.0137
13259W        W29393  13.560  11.680   2.315 -0.2229  0.0394  0.0339
13260W        W29394  16.765   3.200  12.566  0.2814 -0.2911  0.0815
13261W        W29395  16.111  15.449   0.746 -0.4605  0.1463  0.0481
13262W        W29396   3.665  17.544   1.406  0.1190  0.0145  0.2540
13263W        W29397   9.254   8.503   1.301  0.0537  0.1951  0.0290
13264W        W29398  11.077  10.379   4.402 -0.0044  0.4056 -0.0611
13265W        W29399   2.790  17.332  12.252 -0.0843  0.0949  0.0475
13266W        W29400  15.146   8.259  13.496  0.1478 -0.0539  0.2539
13267W        W29401  14.476  16.956  14.136  0.0835  0.1089 -0.0781
13268W        W29402   8.274  12.146   0.218 -0.2254 -0.1903  0.2474
13269W        W29403  16.793  12.440  14.405 -0.0038 -0.1930 -0.0487
13270W        W29404   8.901   9.241   5.067  0.3378  0.0078 -0.0808
13271W        W29405   9.175   2.453  14.150 -0.1017 -0.1711 -0.5981
13272W        W29406   2.520  10.614  13.504  0.1413 -0.0641  0.0242
13273W        W29407   2.516  12.359  12.629 -0.2310 -0.0267 -0.1437
13274W        W29408  12.788   5.313   1.948 -0.2352 -0.1038 -0.1833
13275W        W29409   2.563  15.444  11.304  0.1110 -0.3216 -0.0724
13276W        W29410  10.468   9.692   1.942  0.1323  0.2887  0.1502
13277W        W29411   9.288  11.830  11.338 -0.0149  0.1608 -0.0575
13278W        W29412   1.736   4.382  13.304  0.1662 -0.2539 -0.1054
13279W        W29413  18.799  12.578   1.411 -0.1529 -0.4203  0.0577
13280W        W29414   0.666   2.984  11.818  0.0460  0.1864  0.0199
13281W        W29415   5.667  14.670  13.001  0.1434  0.2368 -0.3780
13282W        W29416  14.785  14.593  13.512 -0.1240  0.1176 -0.1160
13283W        W29417  17.355  14.903  11.665  0.1680 -0.0552  0.0688
13284W        W29418  14.257   2.525  10.821  0.3503 -0.2560  0.2558
13285W        W29419   6.443   4.074   0.243 -0.0716  0.3119  0.0867
13286W        W29420  13.936   1.687  14.349  0.2558  0.0573 -0.0406
13287W        W29421   5.295  13.580   3.989 -0.0337 -0.2053 -0.0034
13288W        W29422   1.748  18.194   3.983  0.0842  0.0190  0.0707
13289W        W29423   2.826   7.430  13.089 -0.1380  0.2457 -0.0133
13290W        W29424   0.778  12.972   1.839  0.2345 -0.0479 -0.0903
13291W        W29425   6.713  18.240  10.178 -0.3545 -0.1518  0.0544
13292W        W29426  11.695  11.413   1.735 -0.2192  0.0717 -0.0601
13293W        W29427   6.119  17.740   1.087  0.0054 -0.0837 -0.0775
13294W        W29428   9.080  17.534  13.127  0.0543 -0.2866 -0.1281
13295W        W29429  14.895   3.974  12.387  0.1429 -0.1459  0.0013
13296W        W29430   5.127   8.698  12.629 -0.0593 -0.1343  0.3051
13297W        W29431   4.897   6.547  13.490  0.1541  0.1161 -0.0574
13298W        W29432  13.874   2.734   3.965  0.1496  0.1252  0.1637
13299W        W29433   5.021   0.490  11.573  0.0103  0.1120 -0.0097
13300W        W29434   2.404   1.444   3.353  0.2459 -0.1010  0.0749
13301W        W29435  13.571   6.023  13.371  0.4866  0.0384 -0.0196
13302W        W29436   5.043  10.106   3.136  0.0758 -0.0430  0.2656
13303W        W29437  12.120   6.145  13.728 -0.1323  0.1822  0.0213
13304W        W29438  13.699  17.992  12.386  0.0244  0.0162  0.0511
13305W        W29439   9.825  17.214  13.242 -0.0570 -0.0399  0.1624
13306W        W29440  13.869  12.074  11.562 -0.0957  0.3039 -0.0684
13307W        W29441  12.277   3.939   2.984  0.1946  0.0832  0.1717
13308W        W29442  17.025  12.159   1.526  0.1743 -0.2177  0.0547
13309W        W29443   5.625  17.914  10.686  0.1819  0.2088  0.2245
13310W        W29444  10.552   1.832   0.684 -0.0349  0.0818 -0.1827
13311W        W29445  16.421  11.774  14.252 -0.0878  0.1679  0.1803
13312W        W29446  17.127  17.607   9.947 -0.0728 -0.2302  0.2727
13313W        W29447   5.835   7.929  12.746 -0.1295 -0.2444 -0.2735
13314W        W29448   7.033  13.573  13.255  0.1484 -0.0089  0.0302
13315W        W29449   6.474   4.266  12.851  0.1959  0.0522 -0.0586
13316W        W29450  19.204   3.956   2.100  0.1097 -0.1672 -0.1133
13317W        W29451  19.234   6.404   4.016 -0.0885 -0.1672 -0.2743
13318W        W29452   3.464   8.842  14.869 -0.3417  0.0237 -0.2403
13319W        W29453   3.135  18.171   4.877 -0.2139 -0.1032  0.2037
13320W        W29454   7.226  14.678   2.230 -0.1915 -0.0349  0.0914
13321W        W29455  14.144   7.196  12.293  0.0370  0.0232 -0.0276
13322W        W29456   0.210  12.213   3.491  0.1975 -0.0949 -0.0195
13323W        W29457   2.273   4.907   9.843 -0.1724  0.4754  0.2073
13324W        W29458   9.985  16.555   3.058  0.4016 -0.2646 -0.1016
13325W        W29459  12.201   9.024   0.464 -0.1604 -0.2350  0.1695
13326W        W29460   9.886  16.701  11.504  0.0086 -0.0397 -0.2049
13327W        W29461  10.087  13.499  12.328 -0.2030 -0.2131 -0.2978
13328W        W29462  15.082  16.298   3.504 -0.0960  0.0421 -0.0663
13329W        W29463   3.486   4.953   5.373 -0.0093  0.2212 -0.1525
13330W        W29464   3.750  17.975   2.465 -0.0062 -0.0215 -0.1456
13331W        W29465   0.111   4.952   4.994  0.1604 -0.0405 -0.1175
13332W        W29466  16.483   6.222  12.442  0.0224 -0.0908 -0.3266
13333W        W29467   1.342  11.363  13.794  0.0446  0.0545 -0.0716
13334W        W29468  10.713   3.050   1.242 -0.0823 -0.0445 -0.2108
13335W        W29469   3.250  14.048  13.492  0.0855  0.0593 -0.3318
13336W        W29470  10.549  17.462   3.923 -0.1572  0.0703 -0.0086
13337W        W29471  12.333   7.764   3.205 -0.0274  0.0113  0.4833
13338W        W29472  15.345  10.137   1.272 -0.1684 -0.1548 -0.1200
13339W        W29473   9.917  15.830  11.246  0.2052 -0.2063  0.0397
13340W        W29474  13.054   2.162   2.261  0.0204 -0.0344 -0.0153
13341W        W29475   4.168   8.397   4.831 -0.0186  0.4276 -0.1291
13342W        W29476   6.635  16.868   4.129  0.1640 -0.1064  0.2307
13343W        W29477  18.764  18.998  11.107  0.1430 -0.1822  0.1227
13344W        W29478  18.009  11.080   2.970 -0.0159  0.1506 -0.2577
13345W        W29479  11.248   7.814   4.237 -0.1323 -0.1950 -0.0733
13346W        W29480  14.665  13.600   1.697  0.0936  0.3681  0.0065
13347W        W29481   8.238  12.131   3.924  0.1326  0.2709  0.2828
13348W        W29482  14.827   9.508  13.644  0.1232 -0.2406  0.1429
13349W        W29483  14.923  11.512   5.015 -0.1100  0.1018  0.1867
13350W        W29484   9.162  11.103  12.543  0.0889 -0.2578 -0.0121
13351W        W29485   3.468  13.865   5.392  0.0112  0.0654  0.1380
13352W        W29486  18.685   9.357  10.976  0.1769 -0.4139  0.0948
13353W        W29487  13.272   9.981   3.507 -0.0292  0.0774  0.2463
13354W        W29488   8.509   5.534  11.576 -0.1097 -0.3488  0.2850
13355W        W29489   2.404   5.103  11.093 -0.2991 -0.0546  0.0530
13356W        W29490  10.381   5.589  10.310  0.1050 -0.0505 -0.0851
13357W        W29491  18.363   4.891   0.501  0.2133 -0.1217 -0.0676
13358W        W29492   0.377   9.157  12.654 -0.0903 -0.2724 -0.0939
13359W        W29493  17.836  11.105   9.227  0.0523 -0.3165  0.0037
13360W        W29494  19.010  11.119   0.934 -0.0372  0.2308 -0.3373
13361W        W29495  12.743  15.020   3.640  0.0428  0.0983 -0.0939
13362W        W29496   2.717   1.487   0.420  0.3031  0.1620 -0.2139
13363W        W29497   3.531  17.081  13.888 -0.2055 -0.3443  0.1122
13364W        W29498  12.622   3.851  10.724  0.0723  0.0951  0.2681
13365W        W29499   3.113   1.780   3.378 -0.2934  0.0397 -0.0953
13366W        W29500  15.192   8.697   2.200  0.0377 -0.0873  0.1442
13367W        W29501   1.392  16.995  14.873 -0.1557  0.0629 -0.2442
13368W        W29502  17.211  16.654   2.929  0.0880  0.1479  0.3595
13369W        W29503  10.161  14.526   4.280  0.0338 -0.3268  0.0728
13370W        W29504   4.966  11.500   4.269  0.0173  0.0322 -0.1177
13371W        W29505   8.511   9.620   3.506 -0.1813 -0.0576 -0.2523
13372W        W29506  10.899   8.640  10.936 -0.2185 -0.3797  0.0007
13373W        W29507  14.642  13.805   9.687  0.1101 -0.0266 -0.1519
13374W        W29508   3.460  16.006  14.568 -0.2052 -0.0001 -0.2905
13375W        W29509   6.975   4.183   5.410 -0.2398 -0.3029 -0.1507
13376W        W29510  12.105   3.821  12.685  0.3095 -0.2463  0.1891
13377W        W29511  18.418   8.355   0.112  0.2499  0.2407 -0.0903
13378W        W29512  14.690  15.970   3.874 -0.0608  0.0909 -0.1309
13379W        W29513   8.899  17.580   2.298 -0.0689  0.0903  0.0183
13380W        W29514   2.368   1.960   0.976  0.1864 -0.0055 -0.0435
13381W        W29515  16.998   7.923  11.469  0.0442  0.2095  0.1645
13382W        W29516   9.544   8.031   5.196 -0.0848 -0.1626 -0.2456
13383W        W29517  11.199  14.898  12.244  0.2197  0.1245 -0.2045
13384W        W29518  16.429  13.089  14.256  0.0912  0.0800  0.1090
13385W        W29519  14.992   8.747  10.727  0.0072  0.1245  0.1745
13386W        W29520   0.118  16.788  14.697 -0.3148 -0.0028 -0.2822
13387W        W29521   6.538   7.779  12.708 -0.1886 -0.0563 -0.2713
13388W        W29522  15.930   6.637   5.130  0.1846 -0.2320 -0.0471
13389W        W29523   5.198   0.005  10.352  0.2540 -0.1143 -0.1632
13390W        W29524  17.105   5.850  10.545 -0.0708  0.1470  0.1563
13391W        W29525  13.069   9.156  12.330 -0.0200  0.1126  0.0117
13392W        W29526  17.955   1.292  11.737  0.0418 -0.0556 -0.0762
13393W        W29527  18.453   9.867  13.966 -0.1623 -0.1735  0.0101
13394W        W29528  13.228   4.591   2.040 -0.0077  0.0572  0.5061
13395W        W29529   4.517  18.509   5.311  0.1163 -0.1206 -0.0365
13396W        W29530  19.233   0.076  13.817  0.2911  0.0697  0.0711
13397W        W29531   3.979  11.017   2.738  0.0123  0.0321 -0.3632
13398W        W29532   0.266   8.985  14.236 -0.0671 -0.0176 -0.4009
13399W        W29533  18.504  13.224   2.161 -0.3572  0.2209  0.2149
13400W        W29534  17.961   1.916  12.642  0.5946  0.0495 -0.0630
13401W        W29535  16.230   8.225   2.944  0.2095  0.0315 -0.3786
13402W        W29536  16.684  13.409   0.765 -0.2606 -0.0407 -0.2043
13403W        W29537   0.336   9.911   4.744  0.1710  0.3200  0.0392
13404W        W29538  10.528   4.629   4.546  0.0383  0.3069  0.0652
13405W        W29539   1.888  15.624   3.719  0.0716  0.2076 -0.2422
13406W        W29540   7.694   8.188   0.241  0.1612 -0.2493  0.1909
13407W        W29541  18.517   0.578  10.755 -0.0497  0.0740  0.2103
13408W        W29542  12.206  10.777  13.770 -0.3113 -0.0647 -0.0293
13409W        W29543  10.078  17.661   2.943  0.1696  0.1109  0.2940
13410W        W29544  15.944  13.594   4.314 -0.1902 -0.0504  0.1152
13411W        W29545   1.425  12.833  11.867 -0.1528 -0.2077 -0.2025
13412W        W29546  18.164  11.108  12.354  0.1196  0.2378 -0.5173
13413W        W29547   5.061   9.914   0.689 -0.0230 -0.0136  0.1722
13414W        W29548  15.104  15.788   9.609  0.0426 -0.1135  0.1256
13415W        W29549   3.677  15.136   2.385 -0.0866  0.2031 -0.0100
13416W        W29550   1.634   0.246  14.612 -0.0485  0.0821 -0.0044
13417W        W29551  14.102   2.870  12.570 -0.2767  0.0151  0.0786
13418W        W29552   6.485  11.471  13.556  0.0669  0.0984 -0.2667
13419W        W29553   4.975  13.992  11.943 -0.1507  0.1537 -0.0121
13420W        W29554  16.757   3.110  10.182  0.2518  0.2729 -0.1479
13421W        W29555  11.742  10.008   3.235 -0.0678  0.1384 -0.0929
13422W        W29556   6.626  17.433  14.567 -0.2301  0.0107 -0.1032
13423W        W29557  15.486   8.511  14.138 -0.0901 -0.1544  0.1403
13424W        W29558  16.326   2.582   1.592  0.2066  0.0677 -0.1649
13425W        W29559   3.916   8.517  12.711  0.1464 -0.4000 -0.2066
13426W        W29560   5.551  17.405  13.735  0.0472  0.0677  0.1090
13427W        W29561   4.346  16.304  11.937  0.1739  0.0822  0.0153
13428W        W29562  10.857  18.019   3.291 -0.0141  0.1563  0.0831
13429W        W29563   0.395   9.604  14.743  0.0096 -0.0729 -0.0686
13430W        W29564  17.409  11.329   3.390  0.2288  0.3851  0.1258
13431W        W29565   9.318   0.748  11.788 -0.1078 -0.3705  0.1040
13432W        W29566  14.485   0.001   1.823  0.2697 -0.1288  0.1220
13433W        W29567   1.788   2.146  10.064 -0.0065  0.0853  0.1552
13434W        W29568  18.217   2.764  13.073 -0.1562  0.0195  0.3097
13435W        W29569  16.616  16.087  12.861  0.1003  0.0519  0.0603
13436W        W29570  10.116   3.403  13.862 -0.1191  0.0678  0.0069
13437W        W29571   5.728  18.389  13.742  0.0722  0.0040  0.1537
13438W        W29572  11.950  11.848   1.594 -0.0178  0.0103  0.0673
13439W        W29573   9.249   9.405  12.758  0.2286 -0.1493  0.0830
13440W        W29574  18.436  15.090  10.953 -0.1336  0.3649  0.1171
13441W        W29575  10.891   5.169   3.256  0.0037 -0.5868  0.0106
13442W        W29576   2.479   6.444   1.803 -0.1246 -0.1614  0.0333
13443W        W29577  17.326   5.049  10.266 -0.0141 -0.0428 -0.0762
13444W        W29578   9.424  16.519  10.899  0.1214  0.0806 -0.2039
13445W        W29579   2.760   7.168   2.933  0.0811  0.1809 -0.0579
13446W        W29580   6.601  13.858  11.399  0.1089  0.3075 -0.1677
13447W        W29581  16.726  13.257  11.136  0.1218  0.2955 -0.1510
13448W        W29582   5.263  18.869  12.239  0.0803  0.0303 -0.1406
13449W        W29583   8.095  15.462  11.094 -0.0554  0.0215  0.0999
13450W        W29584   0.309  11.015   9.738  0.0722 -0.3836  0.0391
13451W        W29585   5.696   3.721   3.559 -0.5473  0.0199 -0.0446
13452W        W29586  14.363  15.576   1.942  0.2392 -0.1394 -0.0483
13453W        W29587   3.162  10.752   3.176 -0.0651  0.2102  0.0273
13454W        W29588  16.715  11.136   1.986  0.1450 -0.3360  0.0553
13455W        W29589   0.757  16.170   3.734  0.1108  0.0287 -0.0227
13456W        W29590   4.670   7.257  11.397  0.1036  0.3667 -0.0345
13457W        W29591   0.618  13.736  12.568 -0.2862  0.3119  0.0826
13458W        W29592  14.512  14.130   0.996  0.2388 -0.1042 -0.0593
13459W        W29593  14.241   2.625   0.383 -0.1400 -0.0952 -0.0048
13460W        W29594  11.763  12.048   4.676  0.0013 -0.0297 -0.1672
13461W        W29595   0.714   8.900  14.048 -0.0730 -0.2866  0.1592
13462W        W29596  11.097   6.427  10.588  0.2762  0.1792  0.1999
13463W        W29597  11.003  15.837  11.948  0.0431  0.1577  0.0205
13464W        W29598   8.326  16.925   4.147 -0.3086  0.2181  0.0893
13465W        W29599   9.921  14.167  13.377 -0.2359 -0.2432  0.0784
13466W        W29600   7.340   0.926  13.881  0.1947  0.1606  0.0448
13467W        W29601   7.104   3.170  14.133 -0.1806 -0.0621 -0.0701
13468W        W29602  16.098   4.712  10.459 -0.0533 -0.0716 -0.0808
13469W        W29603   9.884   7.668  13.220 -0.3864  0.0002  0.0551
13470W        W29604   0.571   0.305   4.597 -0.0811 -0.2308 -0.0320
13471W        W29605  18.234  11.654  10.930 -0.2563  0.0173  0.0244
13472W        W29606  18.003  12.836  14.864 -0.1128 -0.0492  0.2663
13473W        W29607  13.423   4.002  14.498  0.2310 -0.1989  0.0764
13474W        W29608   5.103   8.520   1.870 -0.0573  0.2637  0.1231
13475W        W29609  11.216  17.099  14.839  0.1312  0.1302  0.1895
13476W        W29610  10.850   9.882  13.042 -0.0979  0.0186  0.1244
13477W        W29611  13.226  15.600   2.715  0.2117  0.1930 -0.2045
13478W        W29612  10.322   3.867   2.807 -0.0152  0.2821 -0.0949
13479W        W29613  16.428   1.965   1.609 -0.2246  0.1385 -0.1857
13480W        W29614   6.953   7.299  14.720 -0.2279 -0.3733 -0.2737
13481W        W29615  11.401  11.166   9.808 -0.0332 -0.2811  0.3165
13482W        W29616  11.205   7.549  10.520  0.1025 -0.1780 -0.1076
13483W        W29617  17.343  12.591  13.121 -0.1999  0.2556 -0.0619
13484W        W29618  10.208   6.645  13.081 -0.1631  0.2639 -0.1188
13485W        W29619   0.631  10.028   4.327  0.2233 -0.2264  0.0547
13486W        W29620  15.941  11.592   1.375 -0.0297  0.0523 -0.3358
13487W        W29621  15.584  12.031  14.584 -0.1005 -0.1449 -0.4016
13488W        W29622   2.963   2.325   5.498  0.1440  0.0918  0.1411
13489W        W29623  10.931  16.069  13.049  0.1460  0.1374 -0.0078
13490W        W29624   8.000  14.869   5.593  0.0312 -0.2106  0.0431
13491W        W29625   7.032  11.974   1.796 -0.1483  0.0557 -0.1036
13492W        W29626   9.902  14.164  11.040 -0.0632 -0.0816  0.3014
13493W        W29627  13.478  13.579   4.565 -0.0280 -0.2746 -0.0106
13494W        W29628  16.194   9.901   1.267 -0.1353  0.1212 -0.3365
13495W        W29629  14.173  13.323   1.084 -0.3839 -0.0698 -0.2719
13496W        W29630  13.752   9.464   0.555 -0.3282  0.1402 -0.2790
13497W        W29631  10.594  16.619   1.733  0.0726 -0.0480  0.0902
13498W        W29632   7.053   9.240   4.414 -0.1049 -0.0487  0.0320
13499W        W29633   7.867  16.689   0.253 -0.0913 -0.1947  0.0088
13500W        W29634   0.691   4.691   0.903  0.3421  0.2023  0.0773
13501W        W29635   2.964  14.885   3.386 -0.0721  0.1090 -0.0321
13502W        W29636   1.315  11.977   4.803 -0.0890 -0.2817 -0.1916
13503W        W29637   9.413   6.495  10.936  0.2661  0.3593  0.0417
13504W        W29638   7.076   9.680   3.269 -0.1923  0.0476  0.2987
13505W        W29639  18.079   1.485   3.806 -0.2861 -0.2475 -0.0102
13506W        W29640   8.711   5.090  12.461 -0.1145  0.1156  0.1663
13507W        W29641  13.811  14.249  14.896  0.1773  0.0659  0.0069
13508W        W29642   7.797  10.241   3.609  0.4437  0.1633  0.1663
13509W        W29643   8.539   6.614   4.684 -0.1670  0.1151  0.1395
13510W        W29644  11.015   8.149   1.427  0.1571  0.3509 -0.1758
13511W        W29645   2.138   4.970   5.003  0.0180  0.1304  0.0663
13512W        W29646   0.889   7.626  13.519 -0.2676  0.1613  0.2665
13513W        W29647   5.270  16.632  11.103  0.0791 -0.0804 -0.2895
13514W        W29648   1.005   0.473   3.264  0.1584 -0.1979 -0.0731
13515W        W29649  17.920  10.651   4.251  0.0271 -0.1178 -0.1401
13516W        W29650   3.253   8.671   1.191  0.1147 -0.0227 -0.2933
13517W        W29651   9.260  12.684   2.334  0.0058  0.2640 -0.0455
13518W        W29652   3.490   1.099  13.697 -0.2968 -0.1979 -0.2003
13519W        W29653   6.768  10.277   3.764 -0.4845  0.1635  0.0665
13520W        W29654  11.382   3.261  12.361 -0.1566 -0.3788 -0.0409
13521W        W29655  18.714   8.711  14.175 -0.1631  0.1550 -0.0057
13522W        W29656   9.576  11.560  10.982 -0.5731 -0.1860 -0.4127
13523W        W29657  11.865   3.586   2.965  0.1785 -0.1315 -0.0722
13524W        W29658   4.754   1.591  12.417  0.4124 -0.0165  0.0447
13525W        W29659  13.733   1.193   3.736  0.0687 -0.3020 -0.3244
13526W        W29660  17.840   4.352   4.735  0.0353  0.6452 -0.0832
13527W        W29661   5.363  11.397   3.481  0.0250  0.0085  0.0075
13528W        W29662  18.170   4.305   3.707  0.1450 -0.0150  0.3788
13529W        W29663   9.484   8.154  14.869 -0.0406 -0.0652  0.0213
13530W        W29664  18.476   2.073   0.600  0.1824  0.0392  0.1240
13531W        W29665  15.195   1.640   3.679  0.1580 -0.0040 -0.4303
13532W        W29666   8.716   5.417   4.192  0.1790  0.1132  0.0808
13533W        W29667   3.667   0.360  14.387  0.2579  0.3901  0.1212
13534W        W29668  11.447  10.834  14.962 -0.4275 -0.2586  0.1134
13535W        W29669  12.042  11.706   0.852  0.2224  0.0985  0.1121
13536W        W29670  17.179  14.727  12.626 -0.2762 -0.2004  0.0108
13537W        W29671  11.305   4.191  11.015  0.1094  0.1808  0.2498
13538W        W29672  14.344  12.195  13.770 -0.1072  0.2080 -0.3048
13539W        W29673   9.918  12.209   0.940 -0.0769  0.3015  0.1562
13540W        W29674  14.258  11.801  10.758  0.4148  0.0556 -0.0357
13541W        W29675  13.742   4.229  11.643 -0.1267  0.3835 -0.0558
13542W        W29676   2.809   6.639   3.632  0.2997 -0.1211 -0.3245
13543W        W29677  10.904   0.265   0.516  0.0182  0.2099  0.1423
13544W        W29678  17.406   8.490   1.341  0.1674  0.0140 -0.4399
13545W        W29679  11.807  18.193   0.035  0.1392  0.1765 -0.2225
13546W        W29680  13.309   1.318  13.192 -0.0973  0.0408 -0.0919
13547W        W29681   3.557   5.400   3.902 -0.2745 -0.0536 -0.3188
13548W        W29682  15.611  18.572  11.760 -0.2143  0.0624  0.3135
13549W        W29683  12.291   8.749   2.591  0.1154 -0.1491 -0.1742
13550W        W29684   2.090   2.317  10.922  0.1181  0.1108  0.2482
13551W        W29685  17.410  16.756   4.710  0.2439 -0.2652  0.1472
13552W        W29686   5.970   0.004   1.252 -0.3184 -0.2538 -0.0423
13553W        W29687   6.558   1.393   3.268  0.1274  0.5495  0.0263
13554W        W29688  16.967  18.225  12.402 -0.1304 -0.2344 -0.1721
13555W        W29689   1.506  15.136  11.317  0.0474 -0.2425  0.2653
13556W        W29690   5.344  12.608  12.418 -0.2288  0.2860 -0.1263
13557W        W29691   3.774   4.974  11.945  0.1385 -0.0272  0.1586
13558W        W29692  17.565  11.773  13.731 -0.1004 -0.0689 -0.0512
13559W        W29693  16.401  19.044   2.220  0.1700 -0.0007  0.1463
13560W        W29694  14.856   0.731   3.653  0.0374 -0.0851  0.2218
13561W        W29695  17.063  16.164  14.361  0.0324 -0.2696 -0.1163
13562W        W29696   8.897  11.153   2.370  0.2149 -0.1202 -0.3738
13563W        W29697   2.709   4.092   4.361  0.0293  0.1968  0.1740
13564W        W29698  12.147  15.474  14.987  0.2065  0.0486 -0.0256
13565W        W29699   8.549  13.709  10.719 -0.0349 -0.3044 -0.2046
13566W        W29700  13.186   6.581   0.084 -0.2498  0.1669  0.1030
13567W        W29701   6.657   5.979   0.601 -0.0044 -0.0261 -0.0743
13568W        W29702   4.068   5.529  11.822  0.0847  0.2982 -0.0645
13569W        W29703   6.665   2.885   0.814 -0.0712 -0.0516 -0.2101
13570W        W29704  11.861   8.529  14.754 -0.0500  0.0626  0.1183
13571W        W29705  10.249   1.261  14.278 -0.1936 -0.1188  0.0594
13572W        W29706   8.282   6.320   5.090  0.0890  0.0611 -0.3587
13573W        W29707  14.123  11.744  15.007 -0.1101  0.1527 -0.2657
13574W        W29708   2.523   9.892   3.054  0.1569  0.3614  0.0871
13575W        W29709   7.012   6.569  10.362 -0.0021 -0.2983 -0.1425
13576W        W29710  14.644   5.242   1.153  0.3908 -0.0098 -0.1353
13577W        W29711  10.881   3.292  12.673  0.0912 -0.3391  0.0603
13578W        W29712   0.219   2.531   5.731 -0.0157  0.2189  0.0441
13579W        W29713  16.378   0.055  12.618 -0.0285  0.1823  0.0910
13580W        W29714  17.079   7.747  13.485 -0.0648  0.1527 -0.2380
13581W        W29715  14.355  15.319  10.800  0.0761 -0.1289 -0.0933
13582W        W29716  14.048   6.862  10.392  0.0326  0.0204  0.1317
13583W        W29717   0.367  15.186  12.256  0.1972  0.2957 -0.0539
13584W        W29718  12.529   2.062   2.170  0.0727  0.0051 -0.1047
13585W        W29719   4.568  14.354   4.674  0.3035 -0.3118 -0.3854
13586W        W29720   7.540  11.733  10.468  0.0982 -0.3603 -0.0244
13587W        W29721  15.042  17.261   0.905  0.0503  0.0670  0.1830
13588W        W29722  17.044  10.329  10.521 -0.0983  0.1487 -0.0631
13589W        W29723   8.160   4.019  13.280 -0.0571 -0.0356 -0.1014
13590W        W29724  16.875   9.013   3.160 -0.2264  0.0604 -0.2236
13591W        W29725  16.249   3.659  13.031 -0.1271 -0.1378 -0.0864
13592W        W29726  17.127   3.442  14.824  0.3373  0.3414  0.0974
13593W        W29727   7.526   5.571  13.795 -0.0853  0.0550 -0.3713
13594W        W29728  16.149  10.394   3.107 -0.0343  0.0353 -0.0996
13595W        W29729  15.524   2.271   1.135  0.4719  0.2497  0.5785
13596W        W29730  10.799   6.165   0.464 -0.1784 -0.3350  0.3012
13597W        W29731  10.011  18.850   1.224 -0.1168  0.0681  0.0983
13598W        W29732  16.333  19.213  13.812 -0.2862 -0.0153 -0.2040
13599W        W29733  12.526  12.983   5.087 -0.2835 -0.1540  0.1863
13600W        W29734   3.256   8.346  13.946  0.1889 -0.0796  0.0338
13601W        W29735   1.020   9.208   1.714 -0.4642  0.1279 -0.1537
13602W        W29736   4.883   5.510   2.954  0.2088  0.0583  0.0481
13603W        W29737   9.316   6.050  10.633  0.1540  0.0621  0.1439
13604W        W29738   7.773  18.636   1.674 -0.0766  0.1866 -0.2473
13605W        W29739  19.150  11.003   3.874 -0.1851  0.2464 -0.0066
13606W        W29740  13.288   9.462  13.145 -0.1104  0.4282  0.3227
13607W        W29741   0.255   4.063  11.142  0.2802  0.0628  0.2733
13608W        W29742   7.995  14.353  11.330  0.3397  0.3989 -0.1062
13609W        W29743  10.424   9.537  12.993 -0.2433  0.0798 -0.1120
13610W        W29744  18.020   1.421  12.789 -0.0655 -0.0266  0.2706
13611W        W29745   9.516  15.376  14.497  0.0082 -0.1730 -0.2657
13612W        W29746  17.009   4.893  10.596  0.1246  0.0810 -0.3924
13613W        W29747   5.495   3.824  13.199  0.3638 -0.1415  0.2531
13614W        W29748   0.324  10.866  14.743 -0.1047 -0.1701 -0.1350
13615W        W29749   0.312  16.084   4.519  0.0581 -0.0806  0.1765
13616W        W29750  16.009   5.217   1.055 -0.3930  0.0098 -0.0686
13617W        W29751   0.522  19.015   2.480 -0.0937 -0.0038 -0.1336
13618W        W29752  12.936  14.645   3.963  0.0341  0.1287 -0.1478
13619W        W29753  19.156   5.391   0.240  0.1069  0.0412 -0.1469
13620W        W29754  15.796   7.770   4.669  0.0081  0.3085  0.1827
13621W        W29755  17.320   0.355   2.023 -0.2928  0.0124  0.0589
13622W        W29756   1.971   6.526   1.705  0.0917 -0.2221  0.2081
13623W        W29757  17.324  17.124  13.719  0.2040  0.3686 -0.1766
13624W        W29758   8.105  12.597  13.405  0.0061  0.2352 -0.3161
13625W        W29759   8.675   2.759  10.934 -0.1881  0.0064 -0.0139
13626W        W29760   0.360   3.933  13.544  0.2536 -0.2976 -0.0613
13627W        W29761   9.898   5.281  13.068 -0.2259 -0.1794 -0.1429
13628W        W29762  13.640  14.782   3.311  0.1649 -0.2487 -0.0129
13629W        W29763   5.850  18.288   1.118  0.0615 -0.2347 -0.1550
13630W        W29764  16.013   7.873  12.174 -0.2560 -0.0628 -0.0499
13631W        W29765   2.482   6.670   0.736 -0.3282 -0.1815  0.3169
13632W        W29766  14.798  19.156   4.309 -0.0243 -0.3992 -0.0388
13633W        W29767  11.914   0.191   2.918  0.0824 -0.2662 -0.3485
13634W        W29768   8.895   0.896   3.217  0.2375 -0.3385  0.1215
13635W        W29769  17.418   2.747   1.860  0.1147  0.0989  0.1992
13636W        W29770   5.310  16.396  10.605 -0.2290  0.2388 -0.1830
13637W        W29771   9.255   0.047  12.267 -0.1756 -0.2859  0.1075
13638W        W29772   4.409   6.434  13.475 -0.0931 -0.0113  0.1564
13639W        W29773  13.866   3.203   4.204 -0.0498  0.3390 -0.1151
13640W        W29774   1.332   6.878   1.604 -0.0006  0.2790  0.1486
13641W        W29775   6.736  10.087  12.493  0.1954  0.1828  0.1348
13642W        W29776   2.002  12.611  13.807 -0.2328 -0.0529  0.0940
13643W        W29777   3.096  13.623  14.379 -0.1520 -0.2447 -0.1366
13644W        W29778  16.892  18.156   5.138 -0.2854  0.4315  0.0579
13645W        W29779   8.259   5.584  14.537 -0.6260 -0.0228  0.2949
13646W        W29780   4.266   4.229   2.379  0.0117 -0.0335 -0.0728
13647W        W29781  10.678  17.076   4.678  0.0809 -0.2256  0.0983
13648W        W29782   0.540  13.886   3.488 -0.0407 -0.0842  0.1079
13649W        W29783   9.853   6.607  14.429 -0.0237 -0.1138 -0.0280
13650W        W29784   4.208   2.661   9.298 -0.0397 -0.0125  0.1757
13651W        W29785  15.245  11.695  13.065  0.1021  0.1987  0.0489
13652W        W29786  14.897   9.672  12.166 -0.2756  0.0747  0.0626
13653W        W29787  18.156  17.534   4.663 -0.0213 -0.1375 -0.2358
13654W        W29788   6.953  16.441   1.223  0.1116  0.2348  0.2502
13655W        W29789  18.579  17.259   4.864 -0.3640 -0.1380  0.4494
13656W        W29790  13.427  15.532  11.975 -0.3587 -0.0571 -0.0695
13657W        W29791  16.585  15.588   2.194 -0.3026 -0.1010 -0.2831
13658W        W29792  15.352   8.178  15.012  0.3593 -0.1088 -0.1588
13659W        W29793  17.239   8.466   1.877  0.2853  0.1067  0.1078
13660W        W29794   4.608   6.436  13.936  0.0941 -0.0236 -0.0206
13661W        W29795   9.342   1.601  10.683 -0.0466 -0.2104 -0.2211
13662W        W29796   7.111  14.616  14.086  0.1834  0.2871 -0.1615
13663W        W29797   7.673  13.433  14.567  0.3174  0.0914  0.2688
13664W        W29798  12.212  17.029   3.393  0.1802  0.0767  0.1103
13665W        W29799   6.154  13.681   1.030  0.1335  0.2802  0.0807
13666W        W29800   6.189   7.797  11.110 -0.0050  0.1773 -0.1714
13667W        W29801   5.801   6.232  14.464 -0.1076 -0.2679  0.1894
13668W        W29802  14.483  11.404   0.189 -0.1301 -0.1815  0.0443
13669W        W29803  12.978   0.580   4.747  0.0722  0.3865  0.0608
13670W        W29804  10.739  18.031   5.086  0.1886 -0.0592 -0.0513
13671W        W29805   7.000  15.998   3.166  0.1071  0.0081  0.5168
13672W        W29806  14.420  17.158  12.184 -0.2255  0.1214  0.1554
13673W        W29807  11.612   0.197   1.730 -0.4398 -0.2356 -0.0688
13674W        W29808   5.088   8.589  14.254 -0.1671 -0.0469  0.0833
13675W        W29809   9.091   2.243   1.495  0.0018 -0.0981 -0.1096
13676W        W29810  12.930   1.727   9.488 -0.2804 -0.0873  0.0204
13677W        W29811  13.671   4.502   2.875  0.3351 -0.1674  0.1394
13678W        W29812  12.034  17.496   4.513 -0.0904  0.4346 -0.0873
13679W        W29813   8.578   0.040  11.491 -0.1492 -0.0070  0.0519
13680W        W29814  18.385   0.947  11.663 -0.2237  0.2845 -0.0020
13681W        W29815   5.116  16.223   2.509  0.3267  0.4102 -0.0593
13682W        W29816   3.562  17.580  11.177  0.2914  0.3278  0.0663
13683W        W29817  10.370   4.212   2.478 -0.1518 -0.1527 -0.1070
13684W        W29818   4.528   1.904  12.101  0.1299  0.3987  0.2228
13685W        W29819  19.033  18.714  12.568 -0.1041  0.1234 -0.4861
13686W        W29820   3.605   9.977  12.136  0.0240 -0.3629  0.3330
13687W        W29821   8.560   4.221   4.223  0.0918 -0.0535 -0.1305
13688W        W29822   0.765  16.252  11.072  0.1618 -0.3141  0.2120
13689W        W29823   0.322  10.865   4.305 -0.0207  0.0924  0.2415
13690W        W29824   9.723  10.647  10.871  0.1175  0.0281  0.0441
13691W        W29825   8.551   0.356  13.444  0.2346 -0.0735  0.2106
13692W        W29826  17.995   2.029   0.458 -0.0352 -0.1187 -0.0010
13693W        W29827  10.011  14.797   2.980  0.0864 -0.1560 -0.1020
13694W        W29828  11.489  13.244  10.664  0.0333  0.1392  0.1662
13695W        W29829   7.846  10.547   4.412  0.1216 -0.2368  0.1610
13696W        W29830  10.501   4.476  14.522  0.1288 -0.0432  0.2739
13697W        W29831   6.326  19.031   3.770 -0.1077  0.0436  0.2632
13698W        W29832  17.139  11.104  12.012  0.0293 -0.1374  0.0500
13699W        W29833   4.367  14.074  12.808  0.0696  0.1622  0.0328
13700W        W29834   6.095  15.547  10.042 -0.2084  0.0636 -0.2449
13701W        W29835   8.699   6.981   2.857  0.3194  0.1559 -0.2189
13702W        W29836  15.600   2.211  10.913  0.0959 -0.0906 -0.0985
13703W        W29837  10.092   1.725  13.884 -0.1750  0.0824 -0.1522
13704W        W29838  11.835  11.343   4.040  0.0161  0.2499 -0.1478
13705W        W29839   7.844   5.424   2.567  0.0470  0.0446 -0.1286
13706W        W29840   5.285   4.294   2.186  0.0066 -0.1645 -0.0250
13707W        W29841   7.298   0.346   1.496 -0.2893 -0.1004  0.1509
13708W        W29842   4.210   9.854  13.051 -0.2136 -0.0670  0.0127
13709W        W29843   9.718   8.122   2.189 -0.2616  0.2038 -0.1502
13710W        W29844  15.500  15.106   0.745 -0.0677  0.0962 -0.1122
13711W        W29845  14.950   1.938  11.489 -0.0060 -0.0113 -0.1588
13712W        W29846  14.233  19.142  11.794 -0.1890  0.1873  0.0071
13713W        W29847  10.708  18.840   1.641 -0.3236  0.1265 -0.1363
13714W        W29848  18.401   8.025   3.545 -0.0994 -0.0023 -0.2610
13715W        W29849   5.313   3.429   4.200  0.0421 -0.2269 -0.3033
13716W        W29850  15.556   3.946   2.282  0.0282 -0.0696  0.2018
13717W        W29851   8.983  13.117  14.533  0.2172  0.1763  0.0605
13718W        W29852   8.116  18.145   3.962  0.2253  0.2458  0.0598
13719W        W29853  19.210   9.265   2.215 -0.2114  0.1913 -0.1006
13720W        W29854  16.259   9.842   0.399  0.1196  0.2174 -0.1095
13721W        W29855   9.505  17.581  12.059 -0.2349  0.1692 -0.0854
13722W        W29856  13.268   4.763   3.577 -0.2802 -0.1626  0.0090
13723W        W29857  16.713   9.428   3.472  0.1970  0.2128  0.2422
13724W        W29858   6.637  16.246   2.199 -0.2624 -0.0952  0.2695
13725W        W29859   5.808  12.496   2.886 -0.1571  0.0185  0.0144
13726W        W29860  14.830   8.807   1.852  0.3197 -0.2539  0.0804
13727W        W29861   6.385   4.798   0.762  0.1545  0.1708  0.1052
13728W        W29862   5.827  10.236   2.497  0.2082 -0.0209 -0.2722
13729W        W29863   6.341   2.323   4.511  0.0617  0.0734 -0.2557
13730W        W29864  14.479   9.491  11.743  0.0638 -0.1690 -0.0783
13731W        W29865   0.285   1.650  11.862  0.0014  0.1320  0.2196
13732W        W29866   6.702   0.617   0.061 -0.0753 -0.1671 -0.2915
13733W        W29867  12.618   8.725   0.406 -0.2850  0.3489  0.1257
13734W        W29868  12.156   7.939   0.025  0.5199  0.0095 -0.1195
13735W        W29869  13.400  17.131   1.165 -0.0094 -0.1362 -0.2639
13736W        W29870  17.695  12.685  13.756 -0.0875  0.3423  0.2309
13737W        W29871   7.441   1.419   4.123  0.0282 -0.1080 -0.3559
13738W        W29872  14.382   6.732   9.482 -0.3795 -0.0523 -0.2140
13739W        W29873   1.176  17.688  13.635  0.2151 -0.1394  0.0055
13740W        W29874   0.605  18.382  13.539  0.1528 -0.1659 -0.0497
13741W        W29875   8.902   9.338   3.244  0.0640 -0.0287 -0.3003
13742W        W29876  14.080   8.432  12.434  0.2701  0.0528 -0.3133
13743W        W29877  19.218   6.166  13.924  0.3493  0.1293  0.0683
13744W        W29878  19.022   0.963   1.210  0.0057  0.2338 -0.0296
13745W        W29879  15.130  16.245   4.605  0.0171  0.1700  0.1451
13746W        W29880  15.048   7.901  14.699  0.0516  0.1938 -0.3398
13747W        W29881   1.761   8.962   2.388  0.3544  0.2352  0.2314
13748W        W29882  13.476  13.219  13.826  0.0562 -0.0432  0.0186
13749W        W29883  13.848   8.480  13.390 -0.0431 -0.0145 -0.1425
13750W        W29884  11.651   1.976  14.957 -0.1573 -0.0829  0.0055
13751W        W29885   4.236  15.145  13.449 -0.0708 -0.2216 -0.1396
13752W        W29886   1.789  11.653  12.043 -0.0746 -0.0669  0.0977
13753W        W29887   3.814   4.981   4.101  0.3569 -0.0838 -0.0171
13754W        W29888  11.470   6.761   0.295 -0.3495  0.2507 -0.1845
13755W        W29889  12.363   0.269   3.112 -0.2569 -0.0985  0.2050
13756W        W29890  13.706  10.246   4.751  0.2015 -0.0317  0.0798
13757W        W29891  12.462  18.225  10.665 -0.0249 -0.0374  0.3688
13758W        W29892   5.779  10.441   0.462  0.0179  0.0854  0.2254
13759W        W29893   9.991   3.765   1.274  0.2718 -0.1718 -0.4637
13760W        W29894  11.056  10.425  12.748 -0.1770  0.4025 -0.0557
13761W        W29895   4.939  11.620   9.605  0.3039 -0.0492  0.4402
13762W        W29896  15.251   1.013   3.374  0.0203  0.0043  0.4072
13763W        W29897  15.116  13.468  14.662 -0.0243 -0.1467  0.1683
13764W        W29898   2.866   8.724   9.886  0.0022  0.2479 -0.0108
13765W        W29899  14.721  17.714  13.149 -0.1869 -0.0134 -0.1693
13766W        W29900  14.707   2.192   1.505 -0.2433  0.0906 -0.2159
13767W        W29901   2.930   1.912  14.765  0.0720 -0.0861  0.2003
13768W        W29902   0.312  10.420   4.660 -0.1684  0.2047  0.1910
13769W        W29903  11.374   1.713  12.922 -0.2804 -0.2175  0.0521
13770W        W29904  10.290   3.122   9.443  0.0714 -0.0565  0.1124
13771W        W29905  15.317   4.917   3.496 -0.1113 -0.3521  0.0427
13772W        W29906   6.437  14.230  13.030 -0.1413  0.2071  0.1629
13773W        W29907  18.457  16.099  13.328  0.1194  0.1268  0.0788
13774W        W29908   7.227  15.644   3.978 -0.7048 -0.0249  0.3487
13775W        W29909   5.265   1.415   5.296  0.0990 -0.3097  0.0898
13776W        W29910  17.511   3.314  13.168 -0.2185  0.4508  0.0251
13777W        W29911   3.491   5.257  14.311  0.1922 -0.0350 -0.2613
13778W        W29912   4.741  15.626  11.624 -0.1844 -0.1402  0.1045
13779W        W29913  18.841   4.735   3.206 -0.1127  0.6053  0.3966
13780W        W29914  11.787  10.562   3.923  0.4090  0.0120 -0.0210
13781W        W29915   9.224   3.025   3.165  0.3473  0.1259  0.2346
13782W        W29916   8.363   5.155  12.127  0.2197 -0.0175  0.0205
13783W        W29917  12.944  16.565  12.104  0.0202 -0.0159  0.2317
13784W        W29918  15.937   2.906   2.027 -0.2065  0.1837 -0.1173
13785W        W29919  19.050   2.989  14.874  0.2441  0.0400  0.4025
13786W        W29920  17.012  18.574   3.176  0.0545 -0.0251  0.0495
13787W        W29921  10.480  11.180   2.962 -0.2494 -0.0694 -0.1111
13788W        W29922   3.069   3.615   2.020 -0.2014 -0.0855 -0.0141
13789W        W29923   2.896  15.441   4.508 -0.0390  0.2630 -0.1419
13790W        W29924  15.955  13.658   3.292  0.0798  0.0299  0.1021
13791W        W29925  10.593  10.883  11.019  0.0469 -0.0783 -0.0249
13792W        W29926   3.588   2.373  12.024  0.0238  0.0240  0.0416
13793W        W29927  11.381  13.691   3.967 -0.2599 -0.0440  0.2909
13794W        W29928   1.413   3.750  12.499 -0.3720  0.0019 -0.2317
13795W        W29929   1.801   9.029   1.779  0.1251 -0.0225 -0.1850
13796W        W29930  11.494   7.247  10.860  0.2867  0.0837  0.1267
13797W        W29931   2.152   1.140   9.584 -0.2733  0.0175  0.0662
13798W        W29932   2.639  13.706   0.556  0.3875 -0.1140  0.0658
13799W        W29933   9.067   4.713  12.602  0.1756  0.1195 -0.2821
13800W        W29934   4.267  16.433   3.658 -0.1897 -0.2562  0.1900
13801W        W29935  13.076  12.966  13.590  0.1855 -0.0502  0.3258
13802W        W29936  12.106  11.758  11.524  0.1226 -0.0086  0.0308
13803W        W29937   3.681  17.971  13.115 -0.1652  0.2329 -0.0235
13804W        W29938  12.708   5.132   1.414  0.0589 -0.2678  0.2746
13805W        W29939   5.506  18.007  14.390 -0.0806 -0.0853  0.3211
13806W        W29940   0.409   6.133  10.826  0.0802 -0.1867  0.0004
13807W        W29941   4.350  17.733   1.582  0.1529 -0.0330 -0.0297
13808W        W29942  16.912  12.053   3.195 -0.1072 -0.0590  0.0124
13809W        W29943   5.152  16.338   1.897  0.1289  0.2528  0.0595
13810W        W29944  11.234  18.308  12.514 -0.0018  0.0594 -0.1305
13811W        W29945   9.289  18.981   4.185  0.3205 -0.0213  0.1865
13812W        W29946  17.629  14.415  13.366 -0.5559  0.3230 -0.0148
13813W        W29947   0.584   9.967   1.497  0.0806  0.0620  0.0168
13814W        W29948   8.403  17.393   4.271 -0.0524 -0.1602  0.0217
13815W        W29949   5.389  10.227   2.241  0.1081 -0.2990  0.1268
13816W        W29950   0.886  13.927   1.994  0.2571  0.1921 -0.0360
13817W        W29951  13.465  19.163   3.319 -0.2320  0.0275 -0.2441
13818W        W29952  10.883   4.086   2.648 -0.0885 -0.2628 -0.2895
13819W        W29953  10.400  16.460  11.757 -0.0021 -0.3327  0.2671
13820W        W29954  13.525   5.560   5.079  0.2157  0.0245  0.0166
13821W        W29955  16.337   6.221  14.083  0.1476 -0.0045  0.0645
13822W        W29956  19.127  13.075  10.944  0.1344 -0.1627 -0.2996
13823W        W29957   6.234  13.388  14.260 -0.3381 -0.1139 -0.0381
13824W        W29958  18.528  11.588  12.658 -0.3919 -0.2063 -0.1641
13825W        W29959   0.187  14.527   5.643 -0.0175 -0.3731  0.2736
13826W        W29960   8.547   2.194  10.883 -0.0479 -0.0017 -0.0573
13827W        W29961   4.613  17.508   3.770 -0.2572 -0.0206  0.1091
13828W        W29962  14.269  12.289  11.780  0.1421 -0.1756  0.1008
13829W        W29963   3.189  10.733  10.006  0.0763 -0.1103 -0.1112
13830W        W29964  10.243  10.420   9.651  0.0616  0.0119  0.1785
13831W        W29965  17.663  18.119  14.696 -0.0539 -0.0475 -0.0573
13832W        W29966  13.886  18.294   2.777 -0.0353 -0.2177 -0.1225
13833W        W29967  10.263   0.457   4.739  0.0397 -0.1025  0.1171
13834W        W29968   1.717   9.124  14.669 -0.2025  0.0294 -0.1275
13835W        W29969   1.984   4.780  11.149 -0.1540  0.1539  0.0565
13836W        W29970   9.483   1.561  14.375  0.3456  0.4195 -0.3861
13837W        W29971   7.034  19.098  13.304  0.2219  0.0380 -0.2799
13838W        W29972   5.991   7.288  11.635 -0.2088  0.5006  0.3226
13839W        W29973   1.892   8.179  12.924 -0.1856 -0.1977  0.0890
13840W        W29974   6.963   7.973   5.545  0.0835 -0.0416  0.1897
13841W        W29975   1.509   1.227  11.130 -0.1416  0.6099  0.4234
13842W        W29976  11.676   7.521   1.984 -0.1256 -0.1919  0.2201
13843W        W29977   3.924   6.606   0.578  0.0216  0.1335 -0.0388
13844W        W29978  15.582   9.513  11.094  0.0684 -0.0187  0.2180
13845W        W29979  18.250   7.425   5.494  0.0208  0.1872 -0.0184
13846W        W29980  15.028   2.241  11.889 -0.0651  0.1201 -0.1697
13847W        W29981   4.758   0.766  13.523  0.0890  0.1771 -0.2341
13848W        W29982  13.460  16.658   0.807  0.3174  0.0506 -0.0544
13849W        W29983   1.460   6.413  12.692  0.2558 -0.2056  0.2010
13850W        W29984  18.137   6.844  13.643  0.0274 -0.0383 -0.0480
13851W        W29985  16.405   2.286  14.679 -0.0721  0.1817 -0.2957
13852W        W29986  15.648   8.001   2.188  0.0029 -0.1730 -0.1145
13853W        W29987   1.372   4.215   0.094 -0.3776  0.1389 -0.2854
13854W        W29988   2.076   4.144   1.994  0.1272 -0.2607  0.0866
13855W        W29989  18.993  13.417  12.565 -0.4663  0.0234  0.1950
13856W        W29990   7.594  14.290  11.618 -0.1060  0.0251 -0.1125
13857W        W29991  14.999  13.162   0.511 -0.1089 -0.1105 -0.0087
13858W        W29992   6.422   6.796   3.813 -0.0716  0.1979 -0.2788
13859W        W29993  12.521   1.459   1.110  0.0610 -0.0832  0.0300
13860W        W29994   5.731   0.600   4.066  0.0037  0.0283  0.1936
13861W        W29995   5.328   7.497  14.710  0.3270  0.1211 -0.0288
13862W        W29996  15.005  10.709  11.869  0.2184  0.0661  0.0253
13863W        W29997  12.990   9.426   2.875 -0.0062 -0.1226  0.2629
13864W        W29998  10.259  11.853   0.854 -0.4953  0.3644  0.1393
13865W        W29999  16.638  19.229  12.177 -0.1554  0.5035 -0.2595
13866W        W30000  11.883  18.034  13.778  0.0666 -0.0314  0.2473
13867W        W30001  10.915  11.636  12.230 -0.2565  0.1910  0.2517
13868W        W30002   2.540   6.122   3.625 -0.1160 -0.6187 -0.3574
13869W        W30003   9.837  16.071   3.497  0.2604 -0.2954 -0.4466
13870W        W30004   5.776  16.049  14.922 -0.0537 -0.1122  0.4177
13871W        W30005  13.729   2.844   5.455 -0.2481  0.0169 -0.0793
13872W        W30006   5.611  16.962   2.638 -0.1182 -0.0969 -0.0392
13873W        W30007  12.881  17.164   1.768  0.1834 -0.0918 -0.0772
13874W        W30008  12.630   7.201   3.814 -0.0385 -0.0663 -0.1048
13875W        W30009   0.908  11.602  12.037  0.2688 -0.4184  0.1605
13876W        W30010  10.414  13.714   2.983 -0.1533 -0.0460 -0.1604
13877W        W30011   3.615  12.031   0.891  0.0110 -0.2807  0.2014
13878W        W30012   0.164  13.989   2.369  0.1588 -0.3527 -0.0669
13879W        W30013  12.602   9.963   4.526 -0.2098  0.0578 -0.1551
13880W        W30014  11.611  10.289  11.833  0.0428  0.0475 -0.2104
13881W        W30015  10.878  11.965   1.854  0.0971 -0.0433  0.0142
13882W        W30016  15.206   0.138  13.813 -0.2797  0.0061  0.2016
13883W        W30017   8.345   4.249   4.686  0.0547 -0.3718 -0.1977
13884W        W30018  15.614   7.531   5.425  0.0336  0.0995 -0.1666
13885W        W30019   7.356   2.992   0.130  0.3692 -0.3106  0.1988
13886W        W30020  12.877  17.501   2.134 -0.1156  0.4184 -0.1352
13887W        W30021   4.989   6.026   3.980 -0.0421 -0.3285  0.0767
13888W        W30022   3.244  17.070  12.223 -0.0184 -0.2295 -0.0067
13889W        W30023   1.769   2.066   3.103 -0.0400 -0.2344  0.0593
13890W        W30024   0.745   0.359  12.140  0.0173 -0.3542 -0.0642
13891W        W30025  17.146  16.355   2.047  0.1858  0.0081  0.0593
13892W        W30026  17.613  13.032   5.752  0.1468 -0.0752  0.0980
13893W        W30027   8.959   9.357   0.515 -0.1068  0.2073  0.0394
13894W        W30028   1.057  16.754  13.655 -0.4437  0.0040 -0.1442
13895W        W30029  13.682  12.912   2.963 -0.4613 -0.0194  0.1333
13896W        W30030   8.125   5.165  14.764 -0.1403 -0.0554 -0.0465
13897W        W30031   8.233  16.401   4.171 -0.3000  0.1995  0.0006
13898W        W30032   3.272   7.194  13.042  0.2636  0.0901 -0.5298
13899W        W30033   7.040  18.899   1.991 -0.0557 -0.1207 -0.1024
13900W        W30034   6.587   4.189   0.958  0.0759  0.0744  0.2585
13901W        W30035  12.956  11.115   0.136 -0.2659 -0.5009 -0.2572
13902W        W30036  19.028   2.205  11.235  0.2946  0.3056  0.1940
13903W        W30037   3.649   9.215   3.595  0.1494 -0.0650  0.3268
13904W        W30038   9.278  13.038   2.700 -0.1103 -0.0022  0.2634
13905W        W30039  15.167   7.857  12.483  0.2545 -0.0134  0.1325
13906W        W30040  15.120   5.132  11.426  0.0346  0.1486 -0.2402
13907W        W30041   7.823   0.610  10.610  0.2223 -0.2511 -0.1285
13908W        W30042  12.296  16.653   9.898  0.0238  0.0972  0.0954
13909W        W30043   9.352  12.348   1.361  0.0145 -0.3771 -0.2250
13910W        W30044  18.017  11.465  10.456  0.0062 -0.0709 -0.3674
13911W        W30045  18.921  17.182   3.606 -0.0809 -0.1247  0.1329
13912W        W30046   3.689   2.566  14.854  0.2234 -0.0569  0.1940
13913W        W30047   4.687   1.271   0.291  0.0080  0.0665 -0.2588
13914W        W30048  18.908   3.080   1.936 -0.1006  0.0428  0.0295
13915W        W30049   2.962   8.902   5.505  0.0788  0.0272  0.1129
13916W        W30050  14.836   3.749  14.469  0.1148  0.4411 -0.5667
13917W        W30051  17.624   2.312   4.068 -0.0780  0.0141 -0.0396
13918W        W30052  14.234   4.491   1.754 -0.2378  0.5207  0.1692
13919W        W30053  19.006   5.201  14.327  0.1544  0.1712  0.3777
13920W        W30054   3.692   2.992  10.130 -0.3823 -0.0548 -0.0986
13921W        W30055   2.102  16.137   9.518  0.1178  0.0337  0.3126
13922W        W30056   5.175   2.074   4.694 -0.1271 -0.0638  0.2022
13923W        W30057   9.602   0.560  14.366  0.1424 -0.0618  0.1190
13924W        W30058   4.410  13.749   4.368  0.0382  0.1043  0.0565
13925W        W30059   0.737  18.965   4.872  0.1239  0.0159  0.0824
13926W        W30060  14.867   5.333  10.106 -0.0519  0.2754  0.0343
13927W        W30061  15.614   8.111  12.351  0.1102  0.1066  0.1110
13928W        W30062   0.095   4.911   0.233  0.2573  0.0312 -0.0048
13929W        W30063  13.371  11.178  13.487 -0.1330 -0.2551  0.1097
13930W        W30064  11.157   6.609  13.403 -0.2757 -0.0595 -0.0613
13931W        W30065   3.073  12.159  13.285  0.0084 -0.1122  0.0052
13932W        W30066   7.980   0.273   3.680 -0.1216  0.0397  0.0092
13933W        W30067   9.860  14.022   3.108  0.4079  0.1654 -0.0003
13934W        W30068   9.636   5.270   0.924  0.1507  0.4258  0.0264
13935W        W30069  14.161   3.589   3.985 -0.1633 -0.1220  0.2645
13936W        W30070  16.352   8.339   4.853 -0.0582  0.3461 -0.1191
13937W        W30071  10.623   1.172   1.190  0.0671  0.1351  0.1575
13938W        W30072   7.956  16.099   4.511 -0.2512  0.4777  0.1847
13939W        W30073   3.367   9.106   4.438  0.1265  0.0204  0.0235
13940W        W30074   4.752   4.145  11.324 -0.2162  0.2399 -0.1526
13941W        W30075  10.184   4.074  14.440  0.2948 -0.0752 -0.0716
13942W        W30076   6.305   5.705   3.050  0.0611 -0.1580  0.0854
13943W        W30077   3.723   3.027   0.006  0.0420  0.0363 -0.1200
13944W        W30078  17.642  19.191   0.362  0.1828  0.2961  0.2046
13945W        W30079   4.159   5.783  12.894  0.3718 -0.0134  0.2065
13946W        W30080  13.719  18.075   0.355 -0.1408  0.0699 -0.0433
13947W        W30081  10.985   4.063  11.597  0.3406  0.0329  0.2150
13948W        W30082  13.217   8.854  14.772 -0.0434 -0.2001  0.0500
13949W        W30083   0.106  14.165  12.051  0.1461  0.2601  0.2315
13950W        W30084   1.032  15.282  11.148 -0.0738 -0.1128  0.1306
13951W        W30085  18.289  13.092   4.531 -0.0158 -0.0176 -0.2348
13952W        W30086  10.636  19.143   3.983  0.1856 -0.4294 -0.0421
13953W        W30087  11.259  16.365  12.655  0.3777 -0.0939  0.0673
13954W        W30088   5.819  17.357   4.896  0.0980  0.0795 -0.0439
13955W        W30089  17.188   3.600   4.462  0.1584  0.2927 -0.2169
13956W        W30090  15.737   7.803  13.293  0.4274  0.2515 -0.1477
13957W        W30091  11.251  14.304   2.642  0.2011 -0.4082 -0.3468
13958W        W30092  10.860  17.533  11.419 -0.3735  0.2143 -0.2195
13959W        W30093   2.695  17.522   3.017 -0.1045  0.1007  0.0861
13960W        W30094   3.544  16.276  12.915  0.2049 -0.1058 -0.0386
13961W        W30095   9.424   4.406   2.471  0.1638 -0.0442 -0.1754
13962W        W30096   6.886   5.802   4.651 -0.2540 -0.4160 -0.0873
13963W        W30097  18.773   9.688  14.610  0.1187 -0.1626 -0.1745
13964W        W30098  14.596   2.474  12.132 -0.4253 -0.0726  0.1887
13965W        W30099   9.362   0.648  13.284 -0.3419  0.1215 -0.1880
13966W        W30100   1.458   2.415   9.782 -0.0984  0.0982 -0.0803
13967W        W30101  13.113   7.900   2.667 -0.0624 -0.0238  0.2234
13968W        W30102  12.741  13.980  11.379 -0.2645 -0.0713 -0.0002
13969W        W30103  17.178  12.203   1.028 -0.0741 -0.1662  0.2771
13970W        W30104  13.081  16.268  10.784  0.3861  0.0738  0.0975
13971W        W30105  11.669  18.382   2.151  0.2075 -0.1801 -0.1561
13972W        W30106  15.708   1.715  12.133 -0.0799 -0.7721  0.1025
13973W        W30107  18.572  18.907  12.369 -0.0004 -0.1827  0.0598
13974W        W30108   8.315  13.110  11.039  0.0075 -0.1027 -0.0094
13975W        W30109  19.166   8.914  12.640  0.1449  0.3090 -0.0019
13976W        W30110  18.832  14.466   4.080  0.1736  0.0368  0.3280
13977W        W30111   5.991   9.080   0.847  0.0799  0.0002  0.0469
13978W        W30112  17.249   2.924   3.683 -0.2129  0.1563 -0.2729
13979W        W30113  16.842  10.057  14.869 -0.1749  0.0467  0.0423
13980W        W30114   9.559  15.865   1.146  0.0088 -0.3068 -0.2682
13981W        W30115   5.353  13.123  11.856 -0.1933  0.0136  0.1296
13982W        W30116  14.535   4.688   0.014  0.1707 -0.0118 -0.1059
13983W        W30117   6.156   7.783   3.799 -0.3938  0.2757  0.0882
13984W        W30118   9.679   8.379   4.355  0.0428  0.2922  0.1879
13985W        W30119  11.076   3.897   1.163 -0.1677 -0.0375  0.1425
13986W        W30120   5.069  17.690   0.071  0.2730  0.0968 -0.0020
13987W        W30121  11.469   5.515   0.964 -0.0024 -0.0207 -0.1125
13988W        W30122   0.699  10.555   4.988 -0.0346 -0.0863 -0.1179
13989W        W30123  14.727  14.742  14.910  0.1591  0.0711  0.1449
13990W        W30124   5.769   8.449  12.919  0.2424  0.1637  0.2926
13991W        W30125   4.098  11.794  13.693  0.0726  0.3055  0.2440
13992W        W30126  11.660   6.324   0.416  0.1803  0.1701 -0.0737
13993W        W30127  18.134   8.358  14.746 -0.2398 -0.2472 -0.0660
13994W        W30128  16.067   0.272   1.087  0.0004  0.1767  0.0861
13995W        W30129   3.800   7.965  10.557  0.0255  0.1702  0.0166
13996W        W30130   2.533  16.651   4.182 -0.1564  0.0067 -0.1967
13997W        W30131  11.709  18.666  13.486  0.0321 -0.1119  0.2075
13998W        W30132   5.875  11.034  11.744 -0.1107  0.3605  0.0152
13999W        W30133   7.422  13.252  14.975  0.0538  0.3326 -0.0791
14000W        W30134  14.860   1.588   3.233 -0.2895  0.2958  0.1145
14001W        W30135  15.071   4.114   5.837 -0.0366 -0.0218  0.0241
14002W        W30136  18.851   2.765  11.372 -0.1110 -0.2335 -0.2286
14003W        W30137   7.054   0.970  11.851 -0.0697 -0.0161 -0.1482
14004W        W30138  18.019  15.641   5.184  0.2449 -0.1564 -0.0689
14005W        W30139  12.591   4.960   4.675  0.4065 -0.5094 -0.2758
14006W        W30140  14.991  15.327   3.359 -0.0094 -0.0112 -0.1316
14007W        W30141  16.574   5.889   3.058 -0.1776  0.1086  0.1431
14008W        W30142   2.199   7.331   4.131  0.1946 -0.1502 -0.2138
14009W        W30143   8.712   2.936  10.083 -0.0251 -0.0138 -0.2179
14010W        W30144   6.546   2.112   2.661 -0.1520  0.0119  0.0746
14011W        W30145  18.411   1.150   0.649 -0.0269  0.0598 -0.2737
14012W        W30146   8.982   4.125  14.851 -0.0245  0.0885 -0.2435
14013W        W30147  12.038   5.551   4.065  0.3245 -0.4030 -0.1165
14014W        W30148   5.918   9.317  14.396 -0.0246 -0.2411  0.0373
14015W        W30149   8.808  14.365  12.687 -0.0376  0.4268  0.0771
14016W        W30150   5.521  18.293  11.916 -0.0557 -0.1189  0.1340
14017W        W30151   1.997  12.475   2.044 -0.0445  0.3389  0.1056
14018W        W30152   1.310  13.234   0.603 -0.1937  0.0181  0.0773
14019W        W30153   7.444   7.900  14.536 -0.2136 -0.2270  0.2886
14020W        W30154  11.104  11.043   3.578 -0.0729 -0.1831 -0.0455
14021W        W30155   9.349   7.520   3.843  0.1128 -0.0170 -0.0808
14022W        W30156  18.541   1.420   5.826 -0.2034  0.0874 -0.0937
14023W        W30157   5.386  11.743  12.471 -0.2009  0.0137 -0.1534
14024W        W30158  15.607  14.506  12.170  0.0013  0.1206  0.0247
14025W        W30159   0.084  13.908   1.472  0.1193  0.2038  0.0869
14026W        W30160   5.512   2.512   1.276  0.0685  0.2442  0.4418
14027W        W30161   5.086   3.757   4.524  0.1907 -0.2636  0.0490
14028W        W30162   7.126  11.015  13.251  0.2699  0.0789  0.0439
14029W        W30163  12.207   0.302   2.482  0.0206 -0.1053  0.2122
14030W        W30164   6.293  13.882  11.013 -0.1395  0.4125 -0.0668
14031W        W30165   7.908  18.201   1.109  0.1955  0.0713 -0.2764
14032W        W30166  11.420  12.398   2.255  0.0579 -0.2831  0.1654
14033W        W30167   8.666   3.385  10.414  0.3368  0.3966  0.1374
14034W        W30168   8.205  14.807   1.076  0.0635 -0.0824  0.0511
14035W        W30169   1.135  14.137  12.097 -0.0671 -0.0329 -0.0475
14036W        W30170   6.417  15.989   0.830  0.0927  0.1840 -0.5101
14037W        W30171   3.676  14.133   3.772 -0.0888 -0.0162 -0.1818
14038W        W30172  12.922   6.449   2.737 -0.0928 -0.0808  0.2398
14039W        W30173   8.671  11.871  12.482 -0.0148 -0.1422 -0.0313
14040W        W30174  16.301   7.068  14.283 -0.0940 -0.0131  0.2299
14041W        W30175  15.855  14.901   2.975 -0.0427 -0.3369  0.2370
14042W        W30176   5.623  10.090  10.720 -0.1361 -0.2819 -0.1189
14043W        W30177   3.299   9.655   4.381  0.2650 -0.2048  0.2335
14044W        W30178  12.282   9.135  13.208  0.3609  0.0808  0.0106
14045W        W30179   5.188  10.167  11.141 -0.2486 -0.0106 -0.3573
14046W        W30180   2.281   6.904   1.604  0.1575  0.2845 -0.1928
14047W        W30181  14.127  14.829   1.214  0.3099 -0.1087  0.3116
14048W        W30182  14.152  11.243   3.732 -0.0650 -0.1654 -0.1085
14049W        W30183  11.528   6.333  12.488 -0.0412 -0.3560 -0.0488
14050W        W30184   3.673  17.660  14.576 -0.0824  0.3475 -0.1579
14051W        W30185   6.584  14.232  12.471  0.0062  0.4576  0.1427
14052W        W30186  13.173  17.099   4.859 -0.0221  0.2388  0.0306
14053W        W30187  10.529   7.608   4.402  0.0553 -0.0533  0.0957
14054W        W30188   8.371  15.815  10.922 -0.0023  0.0170  0.1531
14055W        W30189   5.305  14.834   0.454 -0.1507 -0.2374  0.0667
14056W        W30190  15.759  13.110   4.116  0.2130 -0.0154 -0.2676
14057W        W30191   6.152  12.203  10.273 -0.1591  0.0621 -0.0105
14058W        W30192   7.087  12.074   4.540 -0.0440  0.1499 -0.5326
14059W        W30193  11.774   8.926  10.976 -0.2188  0.0655 -0.1001
14060W        W30194  18.202   8.423   4.180 -0.0637 -0.1191 -0.1219
14061W        W30195  18.686  14.250  12.377 -0.0085  0.1052 -0.1964
14062W        W30196  14.698  16.996   1.645  0.1717 -0.3073 -0.1966
14063W        W30197   0.634  13.395   3.704  0.0018  0.4818  0.1276
14064W        W30198   3.041  10.513  12.768  0.2198  0.1704  0.2055
14065W        W30199   9.495  17.136   3.476  0.3486  0.2491 -0.0205
14066W        W30200   2.341  11.447  11.296  0.0511  0.4194  0.2728
14067W        W30201  11.490   8.523  10.797 -0.1716  0.1502  0.1108
14068W        W30202  16.322  13.961  10.528 -0.2801 -0.1258 -0.0761
14069W        W30203  11.196  12.853   0.166 -0.1787  0.3396  0.1883
14070W        W30204   6.903  13.515  12.314  0.0115  0.3213  0.0632
14071W        W30205  11.555  13.204  11.819 -0.2129  0.4881  0.3617
14072W        W30206  17.501  13.773   2.024 -0.1851  0.1121 -0.0522
14073W        W30207  12.819  15.342   1.013 -0.0227 -0.1345 -0.2020
14074W        W30208   0.185  17.442   4.444  0.0064 -0.2487  0.1987
14075W        W30209  14.276   8.678   4.106 -0.0607  0.1417 -0.2809
14076W        W30210   7.566  12.455  11.818 -0.0456  0.1199  0.1604
14077W        W30211   3.438   4.485  11.178 -0.1513  0.2415 -0.1638
14078W        W30212   7.549   5.780  14.291  0.1624 -0.1695  0.4071
14079W        W30213  17.676   4.690   4.421 -0.0850  0.2468 -0.1524
14080W        W30214  16.329  16.995  12.550  0.0709 -0.1503 -0.1955
14081W        W30215  16.982   4.493   2.579 -0.2868  0.0750 -0.3089
14082W        W30216   7.762  12.058   2.013 -0.0375 -0.0643 -0.0971
14083W        W30217  11.565  13.114  13.066  0.2366 -0.0150 -0.0023
14084W        W30218  10.364   4.324  13.496 -0.1467 -0.0108 -0.2510
14085W        W30219   1.534   3.923  10.958 -0.1172 -0.0943 -0.1781
14086W        W30220   3.189   6.877  14.600  0.1164 -0.4560  0.0348
14087W        W30221  17.055   8.076   0.332  0.1627  0.1831 -0.4077
14088W        W30222   2.259   0.710   3.702 -0.3934  0.0517  0.1046
14089W        W30223  13.523   6.506  11.472 -0.4553 -0.0472 -0.0326
14090W        W30224   1.710   3.897  13.436 -0.0972  0.0036 -0.1964
14091W        W30225  14.260   3.318  11.818 -0.1621 -0.0968  0.0243
14092W        W30226   6.925   5.527   0.445 -0.2959  0.0801 -0.1761
14093W        W30227  18.092   0.966   5.870 -0.4295  0.2455 -0.0406
14094W        W30228   0.845  15.994   2.078 -0.2625  0.0103 -0.1512
14095W        W30229   8.961  14.991  13.723  0.0748 -0.2682  0.4044
14096W        W30230   8.571   7.145   1.067 -0.0430 -0.0288  0.1283
14097W        W30231  12.940   6.302  14.365  0.0725 -0.1853 -0.3055
14098W        W30232  14.146  16.545  13.370  0.0379  0.0429  0.1319
14099W        W30233  14.939  19.205  10.732 -0.2161 -0.1561  0.0751
14100W        W30234   6.038   0.844   1.818 -0.2949  0.0250 -0.1316
14101W        W30235   5.092   2.907  12.094 -0.3017 -0.1283 -0.0200
14102W        W30236   2.188  15.203   3.810 -0.2906 -0.0915  0.4196
14103W        W30237  10.964   7.938  11.814 -0.1610  0.4483  0.0183
14104W        W30238   0.051  16.884  11.391  0.1437 -0.2610  0.2304
14105W        W30239  14.631  11.983  14.694  0.1308  0.2708 -0.0238
14106W        W30240  15.286   1.869  14.775 -0.0352  0.2518 -0.0500
14107W        W30241  11.576  10.945   3.411  0.1389 -0.0897  0.1119
14108W        W30242  16.504   5.005  13.509 -0.1188 -0.3148  0.0183
14109W        W30243   9.945  11.130  12.351 -0.1928 -0.0467 -0.1972
14110W        W30244   1.808   3.444  13.850  0.1547  0.0549  0.1711
14111W        W30245   4.093   9.261   3.316  0.1577 -0.1746  0.0501
14112W        W30246   1.455   4.539   4.696 -0.2679 -0.1245  0.1046
14113W        W30247   1.082  19.167  13.244  0.3679  0.0478  0.1031
14114W        W30248  14.580   4.500  10.342 -0.1817 -0.0287  0.2893
14115W        W30249  11.326  13.925  11.216 -0.1306  0.2464  0.3332
14116W        W30250   5.208   2.778   1.648  0.0901 -0.3430 -0.2070
14117W        W30251   0.861  12.540  13.919  0.2897 -0.0313  0.0241
14118W        W30252  11.842  12.133   5.144  0.0894  0.1183  0.1904
14119W        W30253  18.576   3.810   4.864  0.0172 -0.1106  0.1983
14120W        W30254   6.068   2.065  12.890  0.1803  0.0201  0.2364
14121W        W30255  12.474  13.446   0.858  0.0157  0.2229 -0.0296
14122W        W30256   4.933   7.244   0.698 -0.0100  0.1767  0.2127
14123W        W30257   9.316  13.156  13.651 -0.3949 -0.0519 -0.0919
14124W        W30258   7.146  12.828  15.006  0.4242 -0.1281 -0.0165
14125W        W30259   3.326  11.133  12.033  0.1262  0.0121 -0.0655
14126W        W30260   1.820   4.996  10.134  0.0309 -0.4889 -0.1025
14127W        W30261   4.202   3.645  13.283  0.0559 -0.2130  0.1256
14128W        W30262  18.395  14.298  13.779 -0.1821 -0.0067  0.2508
14129W        W30263  11.137  13.969   5.280  0.2533 -0.0342  0.0128
14130W        W30264   8.684  12.226  12.879 -0.1802 -0.1694  0.1181
14131W        W30265  14.876   6.695  11.723 -0.1879 -0.0462 -0.0736
14132W        W30266  16.215  14.565   4.227 -0.0370 -0.0683  0.1421
14133W        W30267  18.000   1.205   2.101 -0.1590  0.1407 -0.2063
14134W        W30268  13.031   4.889  12.062 -0.0275  0.1279 -0.1499
14135W        W30269  18.914  18.550   2.497  0.1978  0.1150 -0.2809
14136W        W30270   7.239   4.741   8.873  0.4292  0.1215 -0.1600
14137W        W30271  12.100   1.747   0.997 -0.1145 -0.3486  0.2316
14138W        W30272  18.769   1.850  11.537 -0.1562  0.2954 -0.3278
14139W        W30273  12.058   8.723  12.957  0.1138 -0.0355 -0.2377
14140W        W30274   2.203  13.271   4.728 -0.0338 -0.0334 -0.0506
14141W        W30275  15.165  14.029   4.144  0.0196  0.1860  0.2489
14142W        W30276  14.946   4.493  11.445 -0.3034 -0.1963  0.2908
14143W        W30277   9.580  10.040   3.555  0.2893  0.0789 -0.0270
14144W        W30278  17.387   7.700   1.067 -0.0709  0.0021  0.0319
14145W        W30279  18.164   6.173   2.782 -0.3165  0.5177 -0.1780
14146W        W30280   1.323  17.690  11.959  0.0068 -0.0880  0.2493
14147W        W30281  15.123   5.713  11.709  0.0488 -0.0661  0.1353
14148W        W30282   5.156  13.600   0.128 -0.1179 -0.0300  0.0631
14149W        W30283  15.545   4.060   0.327 -0.2617  0.0577  0.2040
14150W        W30284  17.720   8.233  11.751 -0.0870 -0.2526 -0.1535
14151W        W30285   8.932  17.554  11.727 -0.0076 -0.2414  0.1758
14152W        W30286   9.278   3.474  14.180 -0.0469 -0.3859 -0.0260
14153W        W30287   2.971   9.696   3.950  0.0071  0.4710 -0.0050
14154W        W30288  10.585  11.107  12.938  0.3113  0.1095  0.1510
14155W        W30289  11.284   7.830  14.781  0.0127  0.3549 -0.0285
14156W        W30290   4.620   0.324  10.806  0.1939  0.0119 -0.1043
14157W        W30291   4.133   9.480   4.923  0.3323  0.0204 -0.2069
14158W        W30292   6.013   0.162   3.133 -0.1399  0.0044 -0.0074
14159W        W30293  14.626   1.544   3.674  0.1354 -0.2129 -0.0865
14160W        W30294  13.110   3.889  11.467 -0.2721 -0.4434 -0.0393
14161W        W30295  12.164  16.604  11.723  0.1343  0.3962  0.3570
14162W        W30296  15.402   8.930   0.654  0.2388 -0.1104 -0.0624
14163W        W30297   5.780  14.318   0.053 -0.2538  0.0247 -0.3741
14164W        W30298  17.150   0.644  12.700 -0.1088 -0.0574  0.2246
14165W        W30299   4.558   5.984   3.198  0.2371  0.4204 -0.1940
14166W        W30300   6.620   6.107  14.772  0.0697  0.0762 -0.0263
14167W        W30301   1.054   6.719   5.646 -0.1270 -0.1808  0.1832
14168W        W30302   8.617   5.743   9.154  0.3870 -0.2269 -0.2151
14169W        W30303   2.749  17.199  12.942 -0.0707  0.0050 -0.1410
14170W        W30304   8.269   3.047   0.230 -0.1922 -0.2988  0.0469
14171W        W30305   3.861  12.470   0.825 -0.1207 -0.1122 -0.4010
14172W        W30306   9.275  15.057   4.087  0.0163  0.2766 -0.0364
14173W        W30307  17.764  18.890  11.490 -0.0397  0.0710 -0.0525
14174W        W30308   6.983  16.245   4.320  0.0081 -0.1405 -0.1238
14175W        W30309   0.186   0.799  12.705 -0.0486  0.4394  0.1131
14176W        W30310  14.105  10.588   4.089  0.2080  0.0422  0.0685
14177W        W30311  18.237  17.588   3.283 -0.0523 -0.0512 -0.1889
14178W        W30312   6.286  11.417   4.390 -0.0363  0.3807  0.1081
14179W        W30313   6.928   3.772   0.057  0.0361  0.0468 -0.0041
14180W        W30314  17.945   7.818   2.603  0.0600  0.2574 -0.0008
14181W        W30315  17.194  16.865  10.669  0.1876 -0.2026  0.0728
14182W        W30316   2.552  13.184  10.496  0.1498  0.2196 -0.1222
14183W        W30317   1.625   6.637   3.389  0.0113  0.1555 -0.0113
14184W        W30318   9.853  10.715  12.692  0.1521 -0.1461  0.3616
14185W        W30319  11.536   0.554  11.412 -0.0423  0.0817  0.0907
14186W        W30320   5.770   3.501  14.255 -0.3429 -0.1583  0.0526
14187W        W30321  17.137   7.060   0.211  0.2338 -0.0615  0.0634
14188W        W30322   5.380   2.479  13.134 -0.2559 -0.0793  0.0744
14189W        W30323   4.986  15.319   2.193  0.2577 -0.1226 -0.0019
14190W        W30324   6.633   1.503   3.796 -0.1348  0.1278 -0.0441
14191W        W30325   1.251  15.816  11.349 -0.5157 -0.1794 -0.1825
14192W        W30326   6.299   5.104  10.420 -0.0884  0.0005 -0.0975
14193W        W30327   7.211   0.860  12.314  0.2248  0.2413  0.2229
14194W        W30328   5.597  13.449   3.525 -0.0088 -0.1921 -0.0270
14195W        W30329   6.968  15.276   0.990  0.1042  0.0652 -0.1080
14196W        W30330  17.505  13.075   0.815 -0.0414 -0.0184  0.1058
14197W        W30331  12.598  12.534   4.414 -0.4026  0.2824  0.2387
14198W        W30332   8.093  17.631  14.515 -0.1249  0.1810 -0.0924
14199W        W30333   5.018  13.157  14.983  0.1487 -0.3973 -0.2483
14200W        W30334   4.075   6.033  13.332 -0.1288 -0.1339  0.1781
14201W        W30335   8.460  15.242   1.913 -0.1319  0.1307  0.2009
14202W        W30336  14.255  16.313  12.950  0.0287  0.3292  0.2525
14203W        W30337   7.056  14.830  14.992 -0.0874  0.3333  0.2175
14204W        W30338   0.170  15.191   4.286  0.1722 -0.0074  0.0631
14205W        W30339   0.760   4.559  15.012  0.2545 -0.1263 -0.1695
14206W        W30340   7.147  15.642  13.413  0.1977 -0.0245 -0.0057
14207W        W30341   1.201  10.500   0.035 -0.0070  0.1911  0.0233
14208W        W30342   1.862  15.652   3.207 -0.2974 -0.1283 -0.0301
14209W        W30343  11.442   6.728   2.497  0.0591  0.0335 -0.1977
14210W        W30344   5.602   0.545  13.586 -0.1802 -0.0124  0.0830
14211W        W30345  17.560   4.940   2.323  0.0794  0.2866  0.1678
14212W        W30346  12.063   6.231  12.275 -0.2046 -0.1780  0.3961
14213W        W30347   5.225  11.356  12.094  0.0851  0.0381  0.2758
14214W        W30348   4.798  14.113   5.113 -0.3864 -0.0198 -0.2319
14215W        W30349   2.856  10.042   9.448 -0.1467  0.2443 -0.0321
14216W        W30350   2.720   1.611  13.891  0.1945 -0.1144  0.2137
14217W        W30351  19.004  11.940  12.668  0.1203 -0.4140  0.3384
14218W        W30352  17.329  12.327   5.182 -0.1061  0.0763 -0.0387
14219W        W30353  14.553  12.600   3.600  0.1695  0.0336 -0.1043
14220W        W30354  11.830   3.140  13.397  0.0592  0.0319 -0.1007
14221W        W30355  16.064  10.073   1.914 -0.2224 -0.1891  0.2588
14222W        W30356   8.035  16.560   3.244  0.3086 -0.1124  0.0332
14223W        W30357  19.217  10.490  13.758  0.2028  0.0746  0.1216
14224W        W30358  13.936   7.761  11.894  0.2459  0.0976  0.0131
14225W        W30359  18.134  10.685  13.947 -0.1900  0.0437  0.0041
14226W        W30360   5.284   1.838  14.438 -0.1739  0.2063  0.1382
14227W        W30361  18.526  18.921   2.378  0.3408 -0.1026  0.0906
14228W        W30362   6.707   9.493  14.732 -0.0700  0.1999  0.0823
14229W        W30363   7.437  12.327   3.410 -0.1249  0.2940 -0.0250
14230W        W30364   9.001   2.306  13.709 -0.1530 -0.2955  0.0234
14231W        W30365  16.372   3.561  12.528 -0.2496  0.1132  0.1510
14232W        W30366  15.853   7.418  11.234  0.0406  0.4743 -0.1543
14233W        W30367   9.823   7.453   3.988  0.2140  0.0392  0.3489
14234W        W30368   2.223  16.900  12.185  0.3103  0.2544 -0.1781
14235W        W30369   8.379  11.755   4.388  0.4334 -0.2501  0.2110
14236W        W30370   8.462  10.154   0.848 -0.0494 -0.0155 -0.0748
14237W        W30371   5.670   6.863   1.187  0.1502  0.1211  0.0720
14238W        W30372   0.654  14.829   0.620 -0.3091  0.0075  0.4502
14239W        W30373  16.159  18.425  14.690 -0.1875 -0.2146 -0.2176
14240W        W30374   7.555  15.379   1.538 -0.2250  0.0928 -0.0903
14241W        W30375  11.914  13.243  14.059  0.0516  0.1041 -0.0785
14242W        W30376   8.343   1.402   4.478  0.4515  0.0806  0.0600
14243W        W30377   3.287   2.657   0.154  0.0785  0.0894  0.1028
14244W        W30378   2.629   2.908   1.298  0.1267 -0.4139 -0.3001
14245W        W30379   5.108   6.308  13.865 -0.0614  0.1119  0.5223
14246W        W30380  13.272   9.043  12.833 -0.3481 -0.0543  0.0061
14247W        W30381  17.102  11.835  14.790  0.1205 -0.0606 -0.3081
14248W        W30382  15.485   4.973  12.996  0.0147 -0.2802  0.0589
14249W        W30383  15.240  11.797  12.545 -0.0973  0.2321 -0.1078
14250W        W30384  13.819   5.284  14.666 -0.3144  0.0917 -0.2041
14251W        W30385   5.974  16.237   3.448  0.3563 -0.1187 -0.1628
14252W        W30386  16.218  14.845  14.245 -0.0187  0.0755  0.2139
14253W        W30387  16.827   3.877  11.725 -0.4746  0.2836  0.2723
14254W        W30388  12.388  14.366  11.287  0.2047 -0.0614  0.3704
14255W        W30389   0.213  17.310  11.614 -0.0889  0.2337 -0.0239
14256W        W30390   3.118  19.061   0.501  0.0094  0.2012 -0.3479
14257W        W30391   6.433  11.165   1.726 -0.1242  0.0897  0.0276
14258W        W30392  11.607   6.512  11.693  0.1169 -0.2156  0.0341
14259W        W30393  16.073  15.012   1.802  0.1497 -0.0277 -0.1782
14260W        W30394   9.112   9.719  14.084  0.3402 -0.1999  0.3315
14261W        W30395   8.021   0.758   3.800  0.2231  0.4033 -0.2400
14262W        W30396  16.506  13.319   5.145  0.0913  0.4843 -0.3228
14263W        W30397  13.828  13.547  11.160 -0.3866  0.0833  0.0375
14264W        W30398  14.844   7.592   1.859  0.0176  0.1126 -0.0648
14265W        W30399   0.933  16.899  14.739 -0.0585 -0.0325 -0.0930
14266W        W30400   8.692  15.139  14.288  0.2298  0.0164  0.3509
14267W        W30401  15.899  12.940   2.854 -0.0765 -0.1739  0.2940
14268W        W30402  12.491   0.890  12.632 -0.0463 -0.2278  0.1036
14269W        W30403   4.151  18.144  11.799 -0.2853 -0.1881 -0.2004
14270W        W30404   2.040   3.375  14.295 -0.4257 -0.0128 -0.0592
14271W        W30405  12.163   4.432  10.733 -0.0279 -0.0675  0.1489
14272W        W30406   2.177  11.545   3.094  0.0975  0.1118  0.1102
14273W        W30407   1.216  11.991  10.963 -0.0079  0.2998  0.0616
14274W        W30408  15.482  18.997   1.792 -0.2764 -0.2274  0.1829
14275W        W30409   0.826  10.415   1.319 -0.2253 -0.1986 -0.1155
14276W        W30410  12.973   4.574   2.453  0.0110  0.2893 -0.0091
14277W        W30411  18.140  12.571  14.104  0.1320  0.1081 -0.1047
14278W        W30412   2.425  17.546  14.833 -0.1545  0.0369 -0.0489
14279W        W30413  11.202  16.249  11.661  0.1766  0.1463 -0.0599
14280W        W30414  15.172   9.258   3.419 -0.0596 -0.2545 -0.0800
14281W        W30415   4.448   4.189   3.331 -0.0709  0.3146 -0.0694
14282W        W30416  16.009  15.603   5.135  0.0971 -0.1184 -0.1216
14283W        W30417  16.111   8.867   3.592 -0.0712  0.1562  0.0231
14284W        W30418   8.376  13.979  11.115  0.1413  0.3354 -0.2137
14285W        W30419   1.917  17.843   0.556 -0.0107  0.0640 -0.0669
14286W        W30420   6.803  12.403  11.726 -0.3570 -0.3022  0.4835
14287W        W30421  10.948   0.605   3.469  0.3914  0.1347 -0.3161
14288W        W30422   9.233   1.908  14.139 -0.0973  0.0575 -0.0255
14289W        W30423   8.154  14.581   4.405 -0.1707 -0.0042  0.1343
14290W        W30424  17.880   1.832  11.802 -0.0640 -0.5553 -0.0300
14291W        W30425   4.666  17.965  11.520 -0.1266 -0.0606 -0.0593
14292W        W30426   5.976  16.275   2.054  0.0898 -0.1428  0.0744
14293W        W30427   6.979   0.261   2.779 -0.2038  0.0629  0.2424
14294W        W30428   8.295   4.411   5.482  0.1111  0.2887 -0.2273
14295W        W30429   6.086   2.462  11.253 -0.3668  0.1212 -0.1639
14296W        W30430  11.757  10.877   9.723 -0.0039 -0.2657 -0.2992
14297W        W30431  13.703   2.377   0.210  0.1649 -0.1523 -0.0024
14298W        W30432   3.834   6.558  11.968  0.2292  0.0197  0.0259
14299W        W30433   9.240  15.778   0.445 -0.1701 -0.1097 -0.1707
14300W        W30434   5.891   8.288   0.628  0.2394 -0.0323  0.0568
14301W        W30435   2.287  15.442   5.108  0.2247 -0.3457 -0.1534
14302W        W30436   8.486  13.567   1.820  0.0045  0.1139  0.1809
14303W        W30437  11.691  11.511   1.182 -0.0894  0.1737  0.0692
14304W        W30438   5.942   4.447  10.906 -0.0682 -0.0388 -0.0121
14305W        W30439  18.725   2.101  10.659  0.2148  0.0530 -0.2542
14306W        W30440  15.818  13.657  12.009  0.2070 -0.2646 -0.0570
14307W        W30441  15.331  10.723   0.215 -0.1864 -0.1254 -0.1406
14308W        W30442  18.759  12.109  11.317 -0.1173 -0.0333  0.3078
14309W        W30443   1.322   6.484   4.344 -0.2098  0.0110 -0.3447
14310W        W30444   1.868  13.081  13.539  0.1938 -0.4166  0.3258
14311W        W30445  17.126   0.508  10.889 -0.1798  0.4950 -0.0888
14312W        W30446  11.158   5.542   4.561 -0.0675 -0.1484  0.3589
14313W        W30447   8.421   3.856   2.219  0.0417 -0.3236  0.0515
14314W        W30448  17.904   9.961   1.494 -0.0882  0.1858 -0.2994
14315W        W30449  17.661   9.532   1.515  0.0227 -0.1132  0.2574
14316W        W30450   7.709   4.882   2.117 -0.1868  0.0663 -0.0577
14317W        W30451   2.250   8.731  14.729  0.0965  0.1525 -0.0657
14318W        W30452   3.165   5.102  10.416 -0.1970  0.0791 -0.1076
14319W        W30453   9.592   4.536   4.135  0.2005 -0.1744 -0.3544
14320W        W30454  10.440   8.348  11.374 -0.3137 -0.0815  0.2730
14321W        W30455  18.465  18.977  11.884  0.3141  0.1780  0.1103
14322W        W30456  12.743  15.425  14.292  0.1190 -0.1290 -0.1036
14323W        W30457   5.852   9.803   2.723 -0.0219  0.3531 -0.1581
14324W        W30458   0.332  11.673  11.378  0.0997 -0.0202 -0.2215
14325W        W30459   1.134  15.555   0.302 -0.1104  0.2266 -0.0104
14326W        W30460   7.567   3.721   3.243  0.0877  0.0473 -0.1363
14327W        W30461  18.214  11.876   4.979 -0.1068 -0.0876 -0.0229
14328W        W30462   7.718   5.947  12.000 -0.2455 -0.0667  0.0465
14329W        W30463  16.040   0.288  11.577  0.0151 -0.0471 -0.1114
14330W        W30464   2.725  15.865  11.107  0.1461  0.0135 -0.0721
14331W        W30465  12.941   6.685   3.946  0.2745 -0.1491 -0.0201
14332W        W30466   3.971  19.149  13.664 -0.1563 -0.0635 -0.1925
14333W        W30467   0.034   7.977   0.781  0.1577 -0.0999 -0.0703
14334W        W30468  14.243  16.655   0.762 -0.1841  0.1957  0.3135
14335W        W30469  14.245   4.439   0.349  0.3026  0.0105  0.1253
14336W        W30470   7.304   2.898   2.062 -0.1306  0.0124 -0.0861
14337W        W30471  14.030   2.770   2.664 -0.1035 -0.2847 -0.1101
14338W        W30472   2.916  12.329   4.707 -0.3231  0.1522 -0.0043
14339W        W30473   7.086  10.810  12.363 -0.2555  0.1755 -0.2161
14340W        W30474  17.038  12.647   1.680  0.0263 -0.0370 -0.2807
14341W        W30475   7.913  10.434  13.676 -0.3153  0.1499  0.0736
14342W        W30476  10.446  14.890   3.927  0.1122 -0.0798 -0.0728
14343W        W30477  12.593  16.157   1.555  0.0801  0.0271 -0.3064
14344W        W30478   6.288  14.922   1.842  0.1822 -0.2696 -0.3191
14345W        W30479   2.951  11.308   4.283  0.0188 -0.2135 -0.0146
14346W        W30480   4.729   8.276   4.740 -0.1183  0.1246 -0.1242
14347W        W30481   6.532  16.652   2.505  0.1959  0.1439 -0.2094
14348W        W30482   6.625   5.554   1.239  0.1482  0.0482 -0.2684
14349W        W30483  10.416  12.222   9.621  0.2118  0.0592  0.1387
14350W        W30484   9.699  17.791  11.463 -0.0342  0.2867 -0.0066
14351W        W30485   9.700   4.467   3.083  0.2382 -0.0883  0.2651
14352W        W30486  15.713  12.405  11.343  0.1384 -0.0158 -0.0624
14353W        W30487  10.931  11.809   4.786 -0.0380  0.0551  0.1278
14354W        W30488   9.059   0.844   0.399  0.2265  0.0136 -0.0620
14355W        W30489   8.077   5.279   2.105 -0.2490 -0.1519  0.3028
14356W        W30490  12.288   6.962  12.616 -0.3578  0.3044 -0.1161
14357W        W30491   9.016   9.838   3.411  0.0767 -0.2213 -0.1605
14358W        W30492   3.164   4.825  14.140 -0.2465 -0.1061 -0.0120
14359W        W30493   7.019   7.437  13.298 -0.1484 -0.2120  0.1366
14360W        W30494   8.947  10.914  13.473 -0.1365  0.0457 -0.2304
14361W        W30495   9.365  18.237   0.074 -0.0871 -0.1350  0.3226
14362W        W30496   3.597  17.171  12.632 -0.0120 -0.2989  0.1636
14363W        W30497  19.121   7.831  14.461 -0.0104 -0.3782  0.0098
14364W        W30498   6.340  11.120   2.697 -0.0590  0.0908 -0.1374
14365W        W30499   7.535  18.339   4.436 -0.0360  0.0675  0.2662
14366W        W30500  17.179  10.751   2.800  0.1112 -0.1652 -0.1632
14367W        W30501  14.243   4.601   4.340  0.1514  0.2330  0.4710
14368W        W30502   5.705   3.601  11.737  0.1092  0.2429 -0.0090
14369W        W30503   0.375  16.628   4.765  0.0080  0.1840 -0.0819
14370W        W30504  10.598  16.453  14.925  0.1277  0.0558  0.1270
14371W        W30505   9.013   4.152   5.254  0.1199  0.1784  0.1013
14372W        W30506   1.956  10.838   1.257  0.1372  0.0023 -0.2518
14373W        W30507  19.052   2.367   4.929  0.2589  0.0777 -0.1547
14374W        W30508  12.333  14.969   3.174 -0.3478  0.1340 -0.1556
14375W        W30509   0.701   2.968  10.499  0.2176  0.2466  0.2994
14376W        W30510   3.768   8.202   2.182 -0.1114  0.0343 -0.1304
14377W        W30511  12.627  14.675   4.386  0.1651  0.0566  0.0017
14378W        W30512  13.475   7.878   4.800  0.1410 -0.5255  0.1177
14379W        W30513   1.482  17.644  14.121  0.2179 -0.1132 -0.1413
14380W        W30514   5.510  13.514   5.469 -0.2464 -0.1829 -0.2100
14381W        W30515  18.668   2.642  13.798 -0.1821 -0.0965 -0.0152
14382W        W30516  13.660  18.614  10.248  0.3111 -0.1652 -0.4311
14383W        W30517  10.494   1.131  12.573  0.3066 -0.0969  0.0663
14384W        W30518  13.710  14.573  11.387 -0.0686 -0.0385  0.2478
14385W        W30519   0.570  14.090  13.891  0.0794  0.1555  0.1817
14386W        W30520   1.934   2.945   5.015  0.1632 -0.2018  0.0668
14387W        W30521   7.691  17.688  12.471  0.1012 -0.0166  0.1978
14388W        W30522  14.734   8.845   0.852 -0.0629  0.0080  0.1276
14389W        W30523   6.611  11.822   4.276  0.2275 -0.1073 -0.1487
14390W        W30524   8.345   9.131  12.595  0.2423  0.1394  0.0402
14391W        W30525  10.543  17.125   3.481  0.2139 -0.1819 -0.0418
14392W        W30526   1.157  11.599  14.811 -0.0473  0.0342  0.4118
14393W        W30527   6.945   6.785   3.104  0.2322  0.0638 -0.1411
14394W        W30528  14.431   6.056  12.343 -0.1211  0.0572 -0.1790
14395W        W30529   2.700   8.547  14.584  0.0559 -0.0085  0.0565
14396W        W30530   1.950  10.975   0.432  0.1438  0.1845  0.1523
14397W        W30531   0.563  10.891  10.184 -0.1358  0.2100  0.1746
14398W        W30532   3.491  18.991  10.992 -0.0554 -0.2238 -0.0792
14399W        W30533  10.148  13.401   2.646 -0.0613 -0.2047 -0.1706
14400W        W30534   7.296   7.871   3.197  0.4750  0.1346 -0.1300
14401W        W30535   0.329   9.468   2.707 -0.0930  0.1677  0.0100
14402W        W30536  10.092   9.702  11.132 -0.0488 -0.1499  0.0532
14403W        W30537  14.484   6.386  14.712 -0.0803  0.4099 -0.0991
14404W        W30538   4.869   6.124  10.341 -0.0575 -0.0861  0.0005
14405W        W30539   7.157   6.158  11.475  0.0040  0.0433  0.3992
14406W        W30540  10.602  16.958   9.607  0.2015 -0.0134 -0.2831
14407W        W30541   1.697  16.575   1.735  0.4589  0.1539  0.1496
14408W        W30542  13.677   1.476  12.899 -0.0213 -0.0207 -0.1021
14409W        W30543  13.576   2.307  10.709 -0.2607 -0.1562  0.1889
14410W        W30544   1.681   8.773   4.416 -0.1799 -0.2397  0.0252
14411W        W30545   5.227   8.974  13.939 -0.2094 -0.6121  0.3480
14412W        W30546  13.643   2.990  13.430 -0.1366  0.0808  0.2099
14413W        W30547  17.180   3.625  13.276  0.2665 -0.3194 -0.3402
14414W        W30548   5.740  17.628   3.476  0.2323  0.0100 -0.1397
14415W        W30549   1.115   1.895   2.052 -0.0014 -0.2998  0.1350
14416W        W30550  16.290   4.557   1.366  0.0579 -0.0559 -0.2066
14417W        W30551  15.673  17.171  14.264  0.2546 -0.0828 -0.3054
14418W        W30552  17.737   5.409   1.623 -0.0065 -0.3619  0.2999
14419W        W30553  11.135   1.364  10.926 -0.0623  0.4104  0.2069
14420W        W30554  13.914  19.165  13.566 -0.1976 -0.0261 -0.0496
14421W        W30555  14.153   0.905   2.261 -0.1477  0.3599 -0.0963
14422W        W30556  17.956   2.802   2.594  0.0595 -0.0025  0.1450
14423W        W30557   5.034   0.594   1.824 -0.0981  0.0416  0.0352
14424W        W30558   4.556  15.348  10.554 -0.0160  0.1323  0.0999
14425W        W30559   2.551   7.892   3.550  0.1104  0.1433  0.0107
14426W        W30560   7.635  13.149  12.341 -0.1811  0.1895 -0.0443
14427W        W30561  15.831  16.898   1.929 -0.1338  0.2201 -0.1623
14428W        W30562  15.236   4.096   2.614 -0.0370  0.0136  0.0039
14429W        W30563  15.830   7.442   1.379  0.0896  0.0869 -0.1496
14430W        W30564  17.123   5.728  14.014  0.1413 -0.1849  0.0383
14431W        W30565  17.728  14.934  12.704 -0.1704  0.0934  0.0003
14432W        W30566  11.751   8.899   2.405  0.0910 -0.0260 -0.0677
14433W        W30567  17.031   0.832   4.101  0.0199 -0.0611 -0.1154
14434W        W30568  16.331   2.494  12.202 -0.0052  0.1285  0.2259
14435W        W30569   1.755  17.649   1.588  0.4980  0.1497  0.1577
14436W        W30570  13.281  18.872   0.628  0.1922  0.2242 -0.4015
14437W        W30571  12.570  12.405  12.022  0.2103 -0.0514 -0.2265
14438W        W30572   0.478  10.120   2.514  0.2023  0.1164 -0.1077
14439W        W30573   2.442   9.833   5.410  0.1598  0.0083  0.0265
14440W        W30574  15.881  18.102  12.138  0.1461 -0.2882 -0.1003
14441W        W30575   8.982   1.759  11.712 -0.3280  0.1806 -0.2741
14442W        W30576   1.868  15.854   4.766  0.0322  0.1257  0.3261
14443W        W30577   2.502   8.957   0.057  0.2952 -0.0012  0.0721
14444W        W30578   6.178   5.393   4.231  0.1313 -0.0268  0.2211
14445W        W30579  11.705  14.127   4.004 -0.0226  0.2048 -0.4730
14446W        W30580   7.586   6.024   0.528  0.0334 -0.2599  0.2702
14447W        W30581   8.514   1.996   3.996 -0.2838 -0.0259 -0.1972
14448W        W30582   3.677   6.947  11.333 -0.2611 -0.0315 -0.0678
14449W        W30583   0.879   9.023  10.484  0.0440  0.4453  0.1619
14450W        W30584   2.611   8.195  13.356  0.1607 -0.1453 -0.1081
14451W        W30585   9.010  16.383   4.197  0.1640  0.2419  0.1934
14452W        W30586   2.566   2.989  12.602  0.0639  0.2562  0.3512
14453W        W30587  11.106   9.678   0.431  0.1000  0.4577 -0.2206
14454W        W30588   2.483  14.483   3.886  0.0831 -0.2378  0.0381
14455W        W30589  14.697  15.787  14.819  0.1465  0.3398 -0.0272
14456W        W30590  11.892  17.833  11.548  0.3133 -0.0067  0.0023
14457W        W30591  13.207  18.114   1.995 -0.1520 -0.2631  0.2822
14458W        W30592   1.900  15.437   5.510  0.1253 -0.3288  0.0134
14459W        W30593  16.036  11.541  11.313  0.0821  0.0038  0.2420
14460W        W30594   5.028   0.717   0.280 -0.0834 -0.1575  0.1616
14461W        W30595  13.852  13.801   3.451  0.0100  0.0876  0.2499
14462W        W30596  13.454   4.984  12.300  0.0078  0.0869 -0.3332
14463W        W30597   1.965  17.300  14.957  0.2135  0.0517 -0.1266
14464W        W30598  13.048   1.398  11.594  0.0952 -0.1830 -0.0258
14465W        W30599   2.221   8.479   0.159  0.0549  0.1599 -0.0179
14466W        W30600  17.782   2.314  14.716 -0.1328 -0.0403 -0.2267
14467W        W30601  14.806  11.521  10.827  0.1126  0.1857 -0.3023
14468W        W30602  12.750   3.601   1.747  0.1228 -0.0324  0.0850
14469W        W30603  15.630  18.316   0.235  0.0316  0.1046 -0.1081
14470W        W30604   2.553   3.992  14.831  0.0492  0.0909  0.0919
14471W        W30605   7.782  12.985  14.720  0.0262  0.0440 -0.0610
14472W        W30606   9.366   5.587  10.879 -0.5623 -0.1039 -0.1927
14473W        W30607   3.708   2.043   5.211  0.1231  0.0762  0.4428
14474W        W30608  12.702  12.099   4.678  0.1237  0.1077  0.1027
14475W        W30609  17.581   7.274   0.411 -0.0758  0.0165  0.0076
14476W        W30610   9.374  17.209   1.277  0.0117 -0.1203 -0.1576
14477W        W30611  16.592   2.667   1.991 -0.1061 -0.2282 -0.1245
14478W        W30612   4.119   4.599   0.683 -0.0071  0.2735  0.0662
14479W        W30613   4.760   1.855   4.456 -0.1210 -0.3038 -0.2182
14480W        W30614   6.146  12.625  14.865  0.1290 -0.0799 -0.1339
14481W        W30615   6.157   5.203   0.943 -0.0698 -0.4883  0.2295
14482W        W30616  15.640  10.889  10.055  0.3892  0.0516 -0.1068
14483W        W30617  14.242   6.856  14.362 -0.3007 -0.0071 -0.3284
14484W        W30618   7.569  11.419   2.828 -0.1011  0.0004  0.2051
14485W        W30619  10.748  15.121  13.141  0.1063 -0.0383 -0.1704
14486W        W30620   1.201   7.693   1.141  0.0027  0.2026  0.0873
14487W        W30621   1.669   9.123   3.104  0.2838  0.0956  0.0739
14488W        W30622   6.169  18.756   9.977  0.0857 -0.1213 -0.3406
14489W        W30623  13.178   5.680  13.092 -0.1225 -0.1712 -0.2222
14490W        W30624  18.420   1.455  11.577 -0.0166 -0.2746  0.1715
14491W        W30625   9.114  17.693  11.262  0.3824 -0.1474  0.0102
14492W        W30626   4.459   3.827  13.713 -0.3720 -0.1601 -0.3084
14493W        W30627   8.085  11.661   0.275 -0.1303  0.1849  0.1320
14494W        W30628   5.347   1.499  11.570  0.0826  0.2363 -0.1340
14495W        W30629   6.735   0.179  11.256  0.3844  0.1411 -0.1515
14496W        W30630   5.044   8.907   1.073  0.0260 -0.0670 -0.0682
14497W        W30631   0.863   2.538   1.804 -0.1170 -0.2670 -0.2551
14498W        W30632   8.003   9.743  12.717 -0.2950  0.0591  0.0162
14499W        W30633  10.695  15.101  12.329  0.0192 -0.1926 -0.1453
14500W        W30634  15.810   6.477   1.195  0.0691  0.0372  0.1651
14501W        W30635   5.072   3.416   1.870 -0.0363  0.2874 -0.0483
14502W        W30636  17.953  10.598  12.269  0.0821 -0.0501 -0.1268
14503W        W30637  18.559   9.649   0.885 -0.1889  0.1509 -0.0829
14504W        W30638   6.932   9.667  11.226 -0.4443  0.1145  0.1566
14505W        W30639  16.414   1.586   4.593  0.2144  0.0769  0.3773
14506W        W30640   7.981  11.352  12.791 -0.1273  0.0474  0.0909
14507W        W30641  17.416   1.252   1.872  0.3471  0.1929  0.3430
14508W        W30642  12.260   8.560   3.591 -0.2631  0.1550  0.0376
14509W        W30643  11.013   1.032  12.540 -0.2052  0.1083 -0.2466
14510W        W30644  11.877  14.412   1.468  0.3984 -0.2250  0.0283
14511W        W30645   5.618  19.113   1.612 -0.0069 -0.3259 -0.0967
14512W        W30646   9.755  13.902  11.986 -0.1784  0.0782  0.2353
14513W        W30647   4.384  11.284   1.290  0.0169 -0.2262 -0.1544
14514W        W30648   1.629  10.581  10.671 -0.1431 -0.0407  0.0883
14515W        W30649  11.840  17.958   1.346 -0.3243  0.1625 -0.1226
14516W        W30650  15.195   4.984  14.676 -0.1890  0.2388  0.0427
14517W        W30651  16.294  10.905   2.834 -0.3775  0.2855  0.2277
14518W        W30652   9.149  14.319  13.028 -0.3099 -0.1267 -0.2588
14519W        W30653   0.095  13.016   1.928  0.0567 -0.0388 -0.1269
14520W        W30654  13.955  10.604   5.062 -0.1538 -0.0288 -0.3580
14521W        W30655   9.458  15.062   3.160  0.2288 -0.2194  0.1453
14522W        W30656   8.942   5.928   1.282 -0.1402 -0.1539 -0.0138
14523W        W30657  12.622   8.277   5.009  0.1360  0.0503  0.0333
14524W        W30658   8.323   1.239   1.025  0.1024 -0.0557  0.1674
14525W        W30659  18.838  18.234   1.591 -0.0125  0.0885 -0.1809
14526W        W30660  15.969  16.309   1.837  0.0832 -0.3318  0.2477
14527W        W30661  12.306  14.218   1.804  0.0363 -0.3046 -0.2277
14528W        W30662   1.777   7.127   2.946 -0.0110  0.1074 -0.0225
14529W        W30663   0.381   8.477  10.856  0.1528 -0.1841 -0.0247
14530W        W30664  12.503  14.187  11.753  0.0012 -0.2613 -0.3771
14531W        W30665  12.842   0.424   4.142  0.0235  0.2832 -0.2832
14532W        W30666   3.374   3.143   0.379  0.0653 -0.1733  0.2966
14533W        W30667  12.739  10.106  10.306  0.0964  0.0539 -0.2214
14534W        W30668   7.113   5.571  10.733  0.0885  0.0791  0.5999
14535W        W30669   0.267  18.750  13.863  0.1430  0.1934  0.1402
14536W        W30670  18.641   4.383   1.634  0.1640  0.2255  0.3713
14537W        W30671   7.417   6.623  10.682  0.1561 -0.1455  0.3152
14538W        W30672   0.419  18.535  13.120  0.2343 -0.1489 -0.2478
14539W        W30673  12.771  14.546   1.475 -0.1496 -0.0102  0.0812
14540W        W30674   5.284  17.554  11.983  0.1500  0.1379 -0.1922
14541W        W30675  14.591  18.835  14.492 -0.2163  0.1876  0.1679
14542W        W30676  13.401   7.295   3.108 -0.2593 -0.0030  0.1025
14543W        W30677  12.543   9.878  12.821  0.0824 -0.4314  0.1498
14544W        W30678  16.249  14.395  10.260  0.3456  0.0969  0.0023
14545W        W30679  17.469  17.397   1.343  0.3229  0.3339  0.1701
14546W        W30680   1.296   7.594   2.333 -0.0189 -0.1689 -0.0281
14547W        W30681  12.476   2.298   4.031 -0.0495  0.0405 -0.0684
14548W        W30682  13.850   9.506   2.012 -0.4655  0.0796  0.3294
14549W        W30683   9.092   7.288   0.941  0.2704 -0.0651  0.0116
14550W        W30684   2.353   4.061   4.819 -0.3248  0.1008 -0.2088
14551W        W30685  10.892  17.148   3.828  0.3270  0.3077  0.0355
14552W        W30686   7.512  14.263   2.131  0.1800  0.0008  0.0151
14553W        W30687   6.753   3.101   2.814 -0.1476 -0.0160  0.2513
14554W        W30688   9.055   7.700   3.447  0.4611  0.4430  0.0874
14555W        W30689  16.485   7.886   2.672  0.0228 -0.3447  0.1306
14556W        W30690   1.762  16.293  13.670 -0.3289 -0.0963 -0.1810
14557W        W30691   7.002   8.556  10.384  0.0951  0.0030  0.0437
14558W        W30692  10.235  10.822   2.275  0.2221 -0.0451 -0.0082
14559W        W30693   2.634   1.555   2.085 -0.1121 -0.1468  0.0022
14560W        W30694   5.091   4.476   3.374  0.0136 -0.2707  0.4746
14561W        W30695   6.933  18.409  13.269 -0.0343  0.3753  0.1746
14562W        W30696   4.716   5.239  14.568  0.0097 -0.2978 -0.0529
14563W        W30697   6.309  15.324  10.925 -0.0163  0.0351 -0.0612
14564W        W30698  13.852  15.415  11.723 -0.3023 -0.2437 -0.1695
14565W        W30699   9.771   6.339   0.494 -0.0549 -0.0829 -0.0029
14566W        W30700  13.687  14.899  12.617 -0.4225 -0.1564 -0.0674
14567W        W30701   7.525  13.473   1.615  0.0729  0.0835  0.3399
14568W        W30702  18.726  17.878   1.117 -0.0341  0.0132 -0.1619
14569W        W30703   0.543  11.984   0.653  0.1039  0.0106 -0.1224
14570W        W30704   5.836  17.611  10.307 -0.0174 -0.4714 -0.2167
14571W        W30705   5.983   8.397   5.104  0.3420  0.2678 -0.3786
14572W        W30706  13.348   9.404   1.986 -0.0133  0.0259 -0.0114
14573W        W30707   2.877  14.284  14.212  0.3997  0.4010 -0.1672
14574W        W30708   4.756   9.496   0.504  0.1423  0.0007  0.3987
14575W        W30709   5.289   7.152  13.235 -0.0702 -0.1980 -0.1225
14576W        W30710   4.148   2.005  13.779  0.2656  0.1782 -0.5925
14577W        W30711   3.279  18.720   1.387 -0.0123  0.2211  0.2396
14578W        W30712  17.040   6.248   5.365  0.1644 -0.2790 -0.1512
14579W        W30713   5.199  14.988   5.237  0.1537  0.2377  0.0790
14580W        W30714  16.002   6.568   3.446  0.0328  0.3150  0.2412
14581W        W30715  13.280   8.732   4.850 -0.2380  0.2962 -0.0463
14582W        W30716   7.706   6.158   2.330 -0.3672  0.3958  0.3513
14583W        W30717  14.553   1.376  13.564  0.1070  0.0642  0.0493
14584W        W30718   8.158   1.897  13.931  0.2853 -0.1271  0.1086
14585W        W30719   0.866   3.874  13.618  0.0401  0.0524  0.1154
14586W        W30720   1.424   9.540  14.593  0.1628 -0.0260 -0.2441
14587W        W30721   5.070   1.029   4.920 -0.0246  0.0518 -0.0109
14588W        W30722  10.869  18.501   4.834 -0.0167  0.0759 -0.0819
14589W        W30723  17.250  14.355  11.647  0.2847 -0.0314 -0.1396
14590W        W30724   2.209  19.078   5.385 -0.2163  0.1286 -0.1475
14591W        W30725  15.245   0.961   1.866  0.1702  0.3142  0.0578
14592W        W30726  18.878   9.212   0.989 -0.1418  0.4543 -0.1209
14593W        W30727  10.931  15.318   1.232 -0.0251  0.0204  0.0799
14594W        W30728  18.028   6.936   0.097 -0.1404  0.2398  0.1032
14595W        W30729  10.615  18.675   4.417 -0.3334  0.1522 -0.1617
14596W        W30730  13.411   9.428   5.125 -0.2585 -0.0560 -0.1612
14597W        W30731  11.415  11.582  13.172  0.2534  0.0427 -0.0330
14598W        W30732   4.229  12.803   2.471  0.1583 -0.0587  0.0434
14599W        W30733   8.421  12.096  14.017  0.1237 -0.3292 -0.2457
14600W        W30734   0.095   4.163   2.520  0.1083 -0.0672  0.1389
14601W        W30735  15.417  18.163   4.944  0.0734  0.0255  0.0161
14602W        W30736   4.194   8.965   4.930 -0.2931  0.3112  0.0568
14603W        W30737   8.759   7.620   1.146 -0.1053  0.1451  0.3610
14604W        W30738   4.455   9.880   1.456  0.0094  0.1094 -0.0579
14605W        W30739   9.525   9.624   3.078 -0.5063 -0.2065  0.1161
14606W        W30740   8.839  19.080  14.069  0.0899  0.4675  0.1780
14607W        W30741   7.035  16.245  14.635 -0.0805  0.1868 -0.2217
14608W        W30742  17.825   1.025   5.152  0.2173 -0.2233  0.0404
14609W        W30743  15.690   3.885   5.011  0.0361 -0.2207 -0.1716
14610W        W30744  12.734  14.979   5.668  0.1191  0.1418 -0.0592
14611W        W30745   6.939   2.346  12.882  0.1709 -0.2200  0.1787
14612W        W30746   8.052   3.655  11.903  0.2990  0.1064 -0.0014
14613W        W30747  15.076   4.718   2.986 -0.2348  0.1786  0.1597
14614W        W30748   6.650   0.057   0.057 -0.2062 -0.2475  0.0373
14615W        W30749  12.566  16.804   0.660 -0.0471  0.0832  0.1889
14616W        W30750   5.566   5.172   3.844  0.0441  0.1639  0.0913
14617W        W30751   1.007   0.072  14.619  0.1010 -0.0925  0.0331
14618W        W30752   3.273   5.986  13.676  0.0668  0.2108  0.0329
14619W        W30753   5.625  18.420  12.416  0.0863 -0.0384  0.1816
14620W        W30754   7.204  18.359   4.007 -0.1943  0.1281  0.2369
14621W        W30755   2.030   0.944   1.979  0.2154  0.2496  0.1834
14622W        W30756  10.309  16.370   3.536 -0.0622 -0.1805  0.1529
14623W        W30757  12.332   9.399  14.408  0.2868 -0.2237 -0.0923
14624W        W30758  14.405   5.483   2.780 -0.1400  0.2330 -0.4474
14625W        W30759   3.512  15.656   2.412 -0.3036  0.0789  0.1148
14626W        W30760  14.561  10.020   4.442  0.3457 -0.0665 -0.1313
14627W        W30761   2.871   7.176   2.082  0.1851  0.2371 -0.1306
14628W        W30762  17.814   4.020   5.893 -0.1119 -0.1002  0.1097
14629W        W30763   1.819  13.730   1.947 -0.0230 -0.2774 -0.0957
14630W        W30764   4.600   6.802  14.932  0.1751 -0.1261  0.2140
14631W        W30765   8.718  14.224  10.819 -0.0838  0.1394  0.0775
14632W        W30766   5.824  11.334  12.547 -0.1570  0.0636 -0.0283
14633W        W30767  11.877  11.213   0.686  0.1414 -0.2076  0.1671
14634W        W30768   4.928  10.094   2.275 -0.3864 -0.1091  0.2134
14635W        W30769  17.138  18.253   2.204  0.0607  0.2918  0.1841
14636W        W30770  14.794   0.323  12.528  0.2061 -0.4047  0.1940
14637W        W30771   4.531   2.824   1.402  0.0380 -0.2114  0.3325
14638W        W30772  13.692   0.541   1.497 -0.1115  0.0421 -0.0623
14639W        W30773  10.021  11.132  11.296  0.0112  0.0199 -0.1914
14640W        W30774   2.554  10.264   3.555 -0.3151  0.0714 -0.2879
14641W        W30775   8.715   7.381   1.713 -0.0159  0.1055  0.1931
14642W        W30776  16.870  17.482   3.234  0.1218 -0.1176 -0.1177
14643W        W30777  13.409  14.397   5.081  0.0384 -0.3118  0.0373
14644W        W30778   1.001   0.238   1.459  0.0968 -0.3207 -0.3997
14645W        W30779  13.238  14.305  11.279  0.1007  0.1707  0.2008
14646W        W30780   7.721   7.061  10.367 -0.1544  0.0401  0.3247
14647W        W30781   3.087   3.364  11.984  0.0368  0.1047 -0.0413
14648W        W30782  11.219   2.824  14.151  0.1479 -0.1577  0.0016
14649W        W30783  14.344   5.669   5.280 -0.0080 -0.1035 -0.4016
14650W        W30784   0.734   8.156   4.488 -0.0456  0.3575  0.2529
14651W        W30785   3.548  10.870  11.671  0.0190  0.0439 -0.0831
14652W        W30786   6.167   7.923   1.905 -0.1785 -0.4623 -0.2028
14653W        W30787  14.388  14.721  11.056  0.0011 -0.0014  0.3023
14654W        W30788   8.856  13.934  12.959  0.0265  0.0773  0.3861
14655W        W30789  18.607   1.757   1.747 -0.0691  0.0276 -0.1244
14656W        W30790   5.912   6.357   0.376 -0.0509  0.2168 -0.2978
14657W        W30791   9.875   9.799  10.591  0.2147  0.2310  0.2578
14658W        W30792   7.048  11.672  13.914  0.0440 -0.1799  0.1261
14659W        W30793  12.931  16.940   0.342  0.0425  0.0315  0.3066
14660W        W30794   0.772  15.026   1.853 -0.3341 -0.0660 -0.0391
14661W        W30795  11.040  11.112  10.690  0.2331 -0.4518  0.1519
14662W        W30796   2.892   1.871   2.475  0.1477 -0.1249 -0.1582
14663W        W30797   0.678  14.601   9.858  0.1072 -0.1090 -0.3357
14664W        W30798   7.679   9.812   3.261  0.0134 -0.0019  0.0405
14665W        W30799   2.367  13.855  12.306 -0.1736  0.2713 -0.1551
14666W        W30800  11.112   0.583   5.131 -0.2887 -0.1038 -0.1643
14667W        W30801   2.750  13.838   1.667 -0.3444 -0.1677  0.1463
14668W        W30802   5.142  16.491  13.881  0.0033  0.1938 -0.1313
14669W        W30803   6.253   6.086   4.754 -0.0482  0.0279  0.2649
14670W        W30804  15.566  18.140   0.983  0.1650 -0.0432  0.0053
14671W        W30805  12.841   1.853   3.132 -0.1973 -0.2384 -0.1885
14672W        W30806  10.131  14.612  11.133  0.1290 -0.0271 -0.1447
14673W        W30807   6.637  14.660  11.481 -0.1248 -0.0559  0.2150
14674W        W30808   8.473  10.496  12.728 -0.0057 -0.1658  0.0966
14675W        W30809  14.368  16.140   0.792 -0.3902  0.1416 -0.2011
14676W        W30810  12.526  10.781   0.314 -0.0551  0.3150  0.1015
14677W        W30811  18.415  17.040   4.444  0.0409 -0.0277 -0.2660
14678W        W30812   6.489   4.785   3.582 -0.2295  0.1667  0.3878
14679W        W30813  19.176  12.814  11.941 -0.0851 -0.4021 -0.0515
14680W        W30814   1.742  19.030   5.812 -0.1135  0.2397  0.1156
14681W        W30815   1.051  10.124   3.135  0.0451 -0.2720 -0.0390
14682W        W30816  11.609  11.040  13.118  0.1926  0.0888 -0.3331
14683W        W30817  11.689  17.547   3.582 -0.1860 -0.0534 -0.1216
14684W        W30818  13.758  12.756   4.267 -0.1263 -0.2214 -0.5551
14685W        W30819  18.328  10.741  11.560 -0.0319  0.4741 -0.3633
14686W        W30820   2.853   5.029   0.103 -0.1653 -0.0358 -0.3978
14687W        W30821  14.921  13.533   0.153  0.1899 -0.0546 -0.0333
14688W        W30822  10.385   1.398   0.272 -0.0798 -0.2347  0.1084
14689W        W30823  17.533  11.385  11.845  0.1226  0.1040  0.0277
14690W        W30824  18.532  17.968  13.840 -0.1838  0.0041 -0.0153
14691W        W30825   6.328  18.157  14.662  0.1907 -0.5831 -0.1100
14692W        W30826   4.929   6.094  14.357 -0.1910 -0.1865 -0.3332
14693W        W30827   9.018   1.252  14.547 -0.2448 -0.0698 -0.0182
14694W        W30828   9.246  18.507   4.195  0.0703  0.3750  0.1427
14695W        W30829   4.092  12.070  11.260 -0.0504 -0.0501  0.0492
14696W        W30830  10.492  13.134  14.027 -0.0565 -0.0200 -0.0570
14697W        W30831  13.101  12.308  12.892 -0.3855  0.2125  0.2255
14698W        W30832   1.580  18.255  10.335 -0.1290  0.1334  0.0653
14699W        W30833   9.105   9.714   1.861  0.2830 -0.2308 -0.0053
14700W        W30834   7.602  10.635   3.380 -0.2225  0.2436  0.2210
14701W        W30835  11.670  11.916  12.869  0.3859 -0.1188  0.1549
14702W        W30836   0.344   2.062  11.329  0.1094  0.1137 -0.0342
14703W        W30837  18.414  12.710   2.517  0.0381 -0.2035  0.2491
14704W        W30838   3.672   3.765  10.164  0.1405 -0.1119  0.2008
14705W        W30839  11.053   9.583   1.894  0.0787  0.0760  0.0015
14706W        W30840   1.380  17.008   9.760  0.1856 -0.2049  0.0806
14707W        W30841  16.577   6.133  14.567 -0.2986  0.0522  0.0680
14708W        W30842  16.336   6.152   4.419 -0.0537 -0.3877  0.0789
14709W        W30843   3.598   5.546  13.521  0.0461 -0.0711  0.0108
14710W        W30844  12.959   0.758  14.323 -0.1090 -0.0552  0.2246
14711W        W30845   7.533  17.874   3.180  0.0246  0.0147  0.0396
14712W        W30846  18.487  13.827   1.381  0.3365 -0.1437  0.2397
14713W        W30847  18.445   8.821  10.127 -0.1121  0.1390 -0.2923
14714W        W30848  10.351  17.748   4.854  0.0631  0.0608  0.0676
14715W        W30849  15.785   1.276  12.342  0.0148  0.2437  0.1275
14716W        W30850  11.888  17.186   3.872  0.0580 -0.2154  0.1772
14717W        W30851  10.804  16.275  11.973  0.3334 -0.0616  0.3325
14718W        W30852   5.249   1.076   0.538  0.1389  0.2553  0.0615
14719W        W30853   0.382  12.085   1.658  0.1104  0.0303  0.6005
14720W        W30854  10.500  13.798   3.817 -0.1878 -0.0359 -0.0613
14721W        W30855   2.381  14.343   3.386  0.1792 -0.2251 -0.0492
14722W        W30856   6.627   7.683   9.561  0.1340 -0.0565 -0.2105
14723W        W30857   7.972   7.511   3.856 -0.1044  0.2614 -0.0876
14724W        W30858  18.779   5.586  10.738  0.0485  0.1285  0.2054
14725W        W30859   2.418  12.906  14.961 -0.2151  0.2494 -0.2570
14726W        W30860  17.857   2.819  10.927 -0.3066 -0.1961  0.3231
14727W        W30861   8.253   5.905   3.453  0.0148  0.0605 -0.0075
14728W        W30862  13.043   1.656  10.506 -0.0459 -0.1421  0.1442
14729W        W30863   2.777  11.115  12.131 -0.0528 -0.0478 -0.1274
14730W        W30864   2.066  11.722   5.049 -0.1101 -0.0274 -0.2219
14731W        W30865   8.958  13.472  11.527  0.0116 -0.2689  0.0839
14732W        W30866   3.357   3.600  12.450  0.0735  0.0915 -0.0354
14733W        W30867   5.207   1.395  12.506 -0.0988  0.1492 -0.1525
14734W        W30868   1.411   3.300  14.150  0.2152  0.2158  0.0379
14735W        W30869   4.854   6.365   0.254 -0.1876  0.1862  0.1413
14736W        W30870  11.321   0.531  10.530 -0.0039 -0.0208  0.1979
14737W        W30871  13.296  14.492   0.676 -0.0763 -0.0388  0.3612
14738W        W30872  17.629  12.838  14.380  0.1382  0.0343  0.0842
14739W        W30873  17.194  17.571  13.809  0.1779  0.0872 -0.0602
14740W        W30874  12.551   9.592   4.216 -0.1046 -0.2409  0.1560
14741W        W30875   0.232  16.750   5.285  0.1703  0.1405  0.1171
14742W        W30876   4.560   8.024   0.361  0.1899 -0.2076 -0.2329
14743W        W30877   8.836  16.643   1.373  0.0733  0.0838  0.1487
14744W        W30878  13.280  17.696   1.707  0.0519  0.0708 -0.0670
14745W        W30879  11.732  12.182  11.565  0.2364  0.4721 -0.2842
14746W        W30880  15.730   7.564   3.755 -0.0044 -0.1443  0.2687
14747W        W30881   8.887   7.432  13.342  0.1360  0.2014 -0.2734
14748W        W30882   1.706   9.881   5.246 -0.0666  0.0213  0.1613
14749W        W30883   9.719   9.071   1.342  0.1770  0.0931  0.1889
14750W        W30884  17.375   0.326   0.461 -0.0781 -0.0671 -0.0235
14751W        W30885  12.995   5.629  10.414  0.2663  0.0577  0.0861
14752W        W30886   9.787   2.805  14.647  0.0313  0.3097 -0.2312
14753W        W30887   3.215   3.329  11.235 -0.3214 -0.0649  0.2250
14754W        W30888  17.273  17.894  11.816 -0.0478  0.1847 -0.1603
14755W        W30889   8.314   7.671  13.769  0.3221  0.0192  0.3871
14756W        W30890  17.233   5.752  13.035 -0.1292  0.3420 -0.0859
14757W        W30891   8.429   7.949   0.422 -0.3135  0.2024  0.0200
14758W        W30892   5.104   1.133  13.837  0.0616 -0.0046  0.2569
14759W        W30893  14.393   5.112  12.074 -0.0147 -0.0556 -0.0122
14760W        W30894  10.982   8.786  14.953 -0.1214  0.3660  0.0016
14761W        W30895   8.492  17.477   1.219  0.0308  0.1733  0.1838
14762W        W30896   5.367   8.401   0.895 -0.1056  0.3458 -0.1604
14763W        W30897  16.023  17.895   2.758  0.2225  0.1723  0.0628
14764W        W30898   0.465  12.368   5.034  0.0092  0.1812  0.0446
14765W        W30899  13.143  17.554  10.519 -0.2490 -0.0213  0.3651
14766W        W30900  11.098   4.774   2.813  0.0400 -0.0498  0.0817
14767W        W30901  12.825   8.162   2.388  0.1374  0.4191 -0.1815
14768W        W30902  15.940  12.522   5.082  0.2168  0.1294 -0.1314
14769W        W30903  14.179   8.578  11.920 -0.0131 -0.1420  0.1397
14770W        W30904  11.199  14.825   0.480 -0.0137 -0.5192 -0.1019
14771W        W30905  10.489   7.372   1.378 -0.0693  0.0555  0.0071
14772W        W30906   6.092   4.562   2.044 -0.2903 -0.0389 -0.0026
14773W        W30907  11.245   0.589  12.470 -0.1635  0.2936  0.2390
14774W        W30908   7.664  16.101   2.826 -0.4929 -0.1151  0.3320
14775W        W30909   6.700  12.831  12.120  0.2359 -0.0702 -0.0608
14776W        W30910   1.375  11.608   0.242  0.0683 -0.0869  0.0274
14777W        W30911  18.346  15.749   0.613 -0.2650 -0.1302  0.0716
14778W        W30912   6.085   9.642   3.673 -0.0886  0.0420  0.5252
14779W        W30913   1.161   3.684   1.653 -0.3766  0.0004  0.0592
14780W        W30914   2.384  11.253   5.057 -0.0309  0.0435 -0.1877
14781W        W30915   7.765   8.624   3.956  0.1667 -0.2186 -0.3570
14782W        W30916  17.964   6.567   3.275  0.0283  0.1735 -0.1922
14783W        W30917  11.002   4.145   0.235  0.4725  0.0869  0.2814
14784W        W30918   8.794  13.167  13.743  0.0058 -0.2308  0.0018
14785W        W30919  10.392   9.392   4.500 -0.1109  0.0976 -0.0704
14786W        W30920   7.716   9.467  13.608 -0.0937  0.1056  0.1659
14787W        W30921  12.436  14.006   3.255 -0.0487  0.3911 -0.0975
14788W        W30922  15.347   0.108   2.515  0.1572 -0.1441 -0.1695
14789W        W30923  17.420  16.093  11.987  0.0165  0.1404  0.0320
14790W        W30924   9.953   8.219  13.272  0.0217  0.0244  0.4666
14791W        W30925  18.135  15.154  14.181 -0.1077  0.0495 -0.0602
14792W        W30926   8.481  15.122  11.151  0.0049 -0.0528 -0.0895
14793W        W30927  12.238   1.732  14.188 -0.0089  0.1322 -0.1789
14794W        W30928  13.991   6.938  10.871 -0.0997  0.1433  0.1600
14795W        W30929  12.537   0.299  14.191 -0.0278  0.2015 -0.0150
14796W        W30930   4.553  18.399  14.836  0.0080 -0.1819 -0.0465
14797W        W30931  13.998   4.496  12.057 -0.4472 -0.0787  0.4978
14798W        W30932   0.987  13.684  12.086  0.1755  0.0034  0.4796
14799W        W30933   4.988  12.167  13.274 -0.1515 -0.2154 -0.3685
14800W        W30934  12.165   6.420   4.362 -0.0442 -0.2393  0.0993
14801W        W30935  13.507  10.838   0.879  0.0944 -0.1834 -0.3078
14802W        W30936   8.926   9.070  13.861  0.2959 -0.0388 -0.0751
14803W        W30937   5.468  14.975  11.965 -0.0039  0.1516 -0.0827
14804W        W30938   1.090  15.044   3.748 -0.0012 -0.3970  0.1497
14805W        W30939   8.589   2.017  13.455  0.1429 -0.1755 -0.2557
14806W        W30940   5.702  10.894  14.201  0.0109 -0.0011 -0.0970
14807W        W30941   4.293   0.437   5.128  0.0053 -0.0397 -0.0293
14808W        W30942   7.080   2.496  13.633  0.1909 -0.1680  0.2504
14809W        W30943   6.792  14.624  13.054  0.0754 -0.1105  0.0834
14810W        W30944   2.326   5.666   1.124 -0.1218 -0.0736 -0.2312
14811W        W30945   3.453  16.935  11.546  0.1916  0.1177 -0.1211
14812W        W30946  10.790  11.778   1.367 -0.2678 -0.1794  0.2771
14813W        W30947  14.841   5.258  14.419  0.1878 -0.0991 -0.0790
14814W        W30948  18.580  12.166   2.489  0.1638  0.1874  0.2473
14815W        W30949   0.202   4.555   3.420  0.3654 -0.2192 -0.2577
14816W        W30950  13.959  17.153  11.414  0.1620  0.0404 -0.1187
14817W        W30951  15.583   9.958   1.701  0.1803 -0.0849 -0.3300
14818W        W30952   5.051  16.254  12.967  0.0576 -0.1660 -0.5704
14819W        W30953   9.052  14.568   1.320 -0.0825 -0.0977 -0.0793
14820W        W30954   7.923  15.065   1.829 -0.1869 -0.0960  0.2332
14821W        W30955  16.965   2.491   0.546 -0.0716  0.1388 -0.3000
14822W        W30956   8.636   1.567  14.324  0.3480  0.1483 -0.0326
14823W        W30957  18.331  14.572   3.334 -0.0663  0.0587 -0.0161
14824W        W30958  14.942   1.787  12.007  0.0998 -0.0374  0.0012
14825W        W30959  11.758   3.721   0.670 -0.0630 -0.0891  0.0617
14826W        W30960   9.281   2.377   0.413  0.0168 -0.0687 -0.0065
14827W        W30961   8.727   6.147  11.501  0.1543  0.0207  0.0831
14828W        W30962  15.292  11.132   3.790  0.2212  0.0778 -0.0316
14829W        W30963   1.229  10.624   4.896 -0.2182 -0.3076  0.0419
14830W        W30964   2.987  17.849   4.006 -0.2242 -0.1018 -0.2148
14831W        W30965  13.236  10.722  11.639  0.3701 -0.1100  0.1614
14832W        W30966  15.872  10.680   3.627  0.2954  0.1067 -0.2811
14833W        W30967  11.691  11.550  11.937 -0.1739 -0.0824  0.2836
14834W        W30968  16.557   6.789   1.605  0.1707 -0.0034  0.3136
14835W        W30969   9.258   9.387   0.909 -0.2481 -0.2024  0.0793
14836W        W30970  15.058   1.120   2.630 -0.1623 -0.1261  0.1455
14837W        W30971  17.808   3.033  12.881 -0.0890  0.0744 -0.1111
14838W        W30972   2.075  15.286   6.078 -0.0021  0.4788 -0.3516
14839W        W30973   6.014   3.803   4.420  0.1629 -0.0317  0.2330
14840W        W30974  10.800   1.265   4.680 -0.2709  0.1752  0.1492
14841W        W30975  15.214   4.024  12.782  0.0889  0.1248 -0.0805
14842W        W30976  10.459  18.967  10.909 -0.1831  0.0833 -0.0071
14843W        W30977  12.611   6.216   5.101  0.3942 -0.3545 -0.1570
14844W        W30978   4.932  16.485  11.436  0.2424  0.1125  0.0450
14845W        W30979  17.494   8.552  14.040  0.1577 -0.0153 -0.1462
14846W        W30980   4.808   9.310  14.093 -0.0322 -0.3450  0.0225
14847W        W30981   8.595  13.366  14.181 -0.0786 -0.1414  0.0104
14848W        W30982  13.524   9.221  12.151 -0.4071 -0.0499 -0.0636
14849W        W30983   1.492   9.731  13.393  0.0323 -0.2434 -0.1540
14850W        W30984   6.994   7.599  10.599  0.0687  0.1595  0.3034
14851W        W30985  15.756   4.295   2.669 -0.0884 -0.1304 -0.0900
14852W        W30986  14.850  13.316  12.124  0.0224  0.0393 -0.4689
14853W        W30987  15.584   2.959   9.555 -0.1228  0.1768  0.0392
14854W        W30988  12.497  12.060   1.736 -0.0684 -0.1378  0.2129
14855W        W30989  15.980  14.157   0.960 -0.0845 -0.0253 -0.0501
14856W        W30990   7.028  18.982  14.923  0.2317  0.1336 -0.0097
14857W        W30991  11.136  13.078   3.981  0.1493  0.0360  0.0117
14858W        W30992  13.507  10.456   3.405 -0.1487  0.0319  0.0169
14859W        W30993   0.870  14.191   4.145 -0.1585  0.3258 -0.1351
14860W        W30994  16.125   8.469   4.451 -0.2893  0.5093  0.0013
14861W        W30995   8.463   2.331  14.711  0.0244  0.2290  0.0175
14862W        W30996   3.617   4.833   2.552  0.0843  0.2557  0.0883
14863W        W30997  17.505   4.122  11.897  0.1533 -0.0294  0.0662
14864W        W30998  13.820   6.472  10.668 -0.1615  0.0328 -0.0263
14865W        W30999   2.376   4.639   3.023 -0.2964 -0.2461  0.2906
14866W        W31000  16.446   1.706   2.883 -0.0526  0.4390 -0.2176
14867W        W31001  11.726   3.610   3.982 -0.1585  0.0020  0.2381
14868W        W31002  11.190   6.243  12.816  0.3969  0.0005 -0.1321
14869W        W31003   5.166  15.066   4.282  0.1070 -0.1646  0.1803
14870W        W31004  17.809  16.084   2.598  0.0790 -0.3950  0.1090
14871W        W31005  12.595  13.002  13.830 -0.2969  0.0810  0.0621
14872W        W31006   3.805   0.178  11.884  0.1681 -0.1858 -0.0450
14873W        W31007  15.308  13.399   0.846  0.1051  0.0712  0.1423
14874W        W31008   8.906  10.522  15.027  0.2851 -0.0353 -0.2582
14875W        W31009   4.549   0.684   2.100  0.0301  0.1773  0.0485
14876W        W31010  16.690  10.872  11.309 -0.1864 -0.2830 -0.1029
14877W        W31011  14.383   1.891   2.860 -0.2191  0.0215  0.1451
14878W        W31012  15.891   2.928  12.368  0.0603 -0.2310  0.3068
14879W        W31013  15.064  17.702  12.643  0.2751 -0.3781 -0.1608
14880W        W31014  16.527  14.210  13.048 -0.1301 -0.1246  0.1655
14881W        W31015  12.542   2.262   3.374 -0.4011  0.1065 -0.0031
14882W        W31016   2.229   2.864   3.367 -0.1014 -0.0941 -0.0762
14883W        W31017   0.783   1.711  11.835  0.1931 -0.1317 -0.0436
14884W        W31018   8.862   3.709  11.029  0.0741  0.0086  0.0463
14885W        W31019   0.582   3.480   3.925 -0.1421 -0.4580 -0.3259
14886W        W31020   0.541  15.394  11.255  0.3026  0.0395 -0.4873
14887W        W31021  15.139   9.263  10.673 -0.1337 -0.0555  0.1849
14888W        W31022  12.988   0.022  13.278 -0.1329 -0.2350  0.1565
14889W        W31023  12.507   7.855  13.951 -0.2204 -0.1508  0.2461
14890W        W31024  14.673  12.437   2.825  0.0072 -0.0529 -0.0756
14891W        W31025  15.996   6.138  11.701 -0.1796  0.0518 -0.1105
14892W        W31026  11.496  16.559   5.013 -0.1381 -0.1883  0.0308
14893W        W31027   3.765   6.595   3.672 -0.1111 -0.0940  0.0061
14894W        W31028  13.692   8.231  10.557  0.0291  0.3297  0.1918
14895W        W31029   1.233   3.484   0.864 -0.1308  0.1714  0.1288
14896W        W31030  14.992   4.799   0.225 -0.1182  0.0717  0.0980
14897W        W31031  16.342   3.193   4.307  0.2507  0.0260 -0.1460
14898W        W31032  14.001   4.790   0.037 -0.0652  0.2647  0.2006
14899W        W31033   0.034   8.335  12.760  0.2658 -0.3257 -0.0110
14900W        W31034  12.176  18.462  12.025 -0.3634  0.3112  0.2080
14901W        W31035   7.673   2.236  14.581  0.0402  0.2404  0.1365
14902W        W31036  15.958   0.409  12.787 -0.0668  0.1329  0.1717
14903W        W31037   2.694  16.327   3.714 -0.0933 -0.2349  0.2200
14904W        W31038  12.448   1.868   3.749 -0.0557  0.0016 -0.0609
14905W        W31039  11.519   2.069  10.959  0.2567 -0.1058 -0.2425
14906W        W31040   8.358   3.331  13.353  0.0792 -0.2609  0.1947
14907W        W31041   0.492  18.269   2.100 -0.0831 -0.0662 -0.0218
14908W        W31042   5.813  15.733  12.872  0.1819  0.2664  0.0967
14909W        W31043  12.109   1.442   1.474 -0.1891 -0.0738  0.0905
14910W        W31044  17.521   4.987  11.323 -0.1959 -0.1503  0.5833
14911W        W31045   4.080   9.016  11.397 -0.1235 -0.0444  0.4167
14912W        W31046  14.110  10.371  13.150 -0.1255 -0.2925  0.2007
14913W        W31047  12.816   3.426  13.832  0.0687  0.0593 -0.0768
14914W        W31048   1.682  16.807   0.204 -0.4245 -0.1027 -0.0066
14915W        W31049   3.630  12.698  10.585 -0.0241  0.3589  0.0104
14916W        W31050   0.891  14.227   3.634 -0.1441  0.0788 -0.1199
14917W        W31051   2.226   9.551   1.797 -0.0994 -0.0623  0.1206
14918W        W31052  14.981  17.759   2.718 -0.1020 -0.0496  0.1361
14919W        W31053   2.221  17.007   0.846 -0.2864 -0.3152 -0.2835
14920W        W31054  11.731   5.326  10.993 -0.1481 -0.1526  0.0841
14921W        W31055   4.248   6.913  10.588 -0.1033  0.1643 -0.0066
14922W        W31056   5.024   7.160  11.885 -0.2851  0.0822 -0.1310
14923W        W31057   7.889   0.070  11.347  0.1498  0.2042  0.1016
14924W        W31058  13.626   7.555   1.218 -0.0825  0.0467 -0.1889
14925W        W31059  12.297  18.765   9.793 -0.2539 -0.0107 -0.1018
14926W        W31060  15.603  17.626  12.686 -0.2217  0.1945  0.1283
14927W        W31061  11.913  11.641  12.390 -0.2186 -0.1604  0.0266
14928W        W31062  16.142   2.956   9.152 -0.0684  0.1358  0.2118
14929W        W31063  17.274   5.255  10.909 -0.2912 -0.1295 -0.3653
14930W        W31064   6.438   3.847   4.195  0.0508  0.0163 -0.1310
14931W        W31065  15.861  10.241   2.430 -0.2965  0.1818  0.2864
14932W        W31066   7.910   8.323  14.279  0.2432 -0.0253 -0.0936
14933W        W31067  17.186  16.689  14.190  0.2218 -0.1423  0.0258
14934W        W31068   0.753   6.840  13.932  0.1649  0.0719  0.2445
14935W        W31069  18.913   6.646   2.788 -0.3856 -0.1997  0.1235
14936W        W31070   8.673  15.184   3.867 -0.0529 -0.0265  0.1112
14937W        W31071  14.245  18.201  12.680 -0.0579  0.0341 -0.2579
14938W        W31072  14.490  10.031   0.732  0.3098 -0.2124 -0.1190
14939W        W31073  13.805   2.172   0.634 -0.4004  0.0796  0.1221
14940W        W31074  15.592   8.564   0.891  0.3010  0.3890 -0.4003
14941W        W31075  12.388  14.514  12.091  0.1452  0.1070  0.1865
14942W        W31076  10.535  12.663  11.171 -0.0879  0.1038  0.0091
14943W        W31077   2.933  16.294   4.305  0.4547 -0.1893 -0.1257
14944W        W31078   5.949  13.352   2.623 -0.0127  0.0392 -0.2742
14945W        W31079  15.687   1.389  10.770 -0.2339 -0.1540  0.1463
14946W        W31080   3.771   3.522  14.161 -0.0999  0.1869 -0.3077
14947W        W31081  10.329  17.285   2.587  0.6698  0.3595 -0.2379
14948W        W31082  17.571   9.906   2.518  0.2617  0.2197  0.1864
14949W        W31083   9.596  13.769   2.231 -0.1433 -0.0148  0.1379
14950W        W31084   0.140   1.605  10.124  0.2529  0.2826 -0.1838
14951W        W31085  15.455   3.288  12.008 -0.0334 -0.0320  0.0368
14952W        W31086   6.810  11.262   0.451  0.2590  0.1909 -0.1783
14953W        W31087   3.623   8.581   1.648 -0.4985 -0.0750 -0.3169
14954W        W31088   9.850  17.990  11.937  0.4542  0.0882  0.1118
14955W        W31089   0.238   4.060  13.033 -0.0130 -0.1891 -0.1239
14956W        W31090   8.180  17.706   4.787  0.0760 -0.1994  0.1281
14957W        W31091   0.953   6.858  12.460  0.1541  0.2585 -0.0806
14958W        W31092   9.385  11.271   2.448  0.0877  0.0951  0.1733
14959W        W31093  13.732   0.223  11.900 -0.3622  0.0984 -0.0622
14960W        W31094  13.130  16.530   4.848  0.2481  0.2157 -0.1678
14961W        W31095   4.300   9.289  13.076  0.0360 -0.1908  0.2111
14962W        W31096  11.784   2.088   4.543 -0.1637  0.4496 -0.0997
14963W        W31097  10.809  11.275   1.147 -0.0645 -0.0480  0.1633
14964W        W31098  16.194  14.514  13.223  0.3386  0.3437 -0.0710
14965W        W31099  16.786  17.060   3.497  0.1025 -0.1024  0.1839
14966W        W31100  10.492  16.021  13.323 -0.1772  0.1086  0.2076
14967W        W31101  12.680   9.592  13.386 -0.1018  0.0753 -0.0090
14968W        W31102   6.399  18.739  10.851 -0.1913  0.0694 -0.2152
14969W        W31103   1.049  17.711   4.199 -0.1438  0.0723  0.0674
14970W        W31104  12.630   9.764   3.644 -0.0721 -0.1613 -0.1430
14971W        W31105   8.333   4.687  14.489  0.0573  0.1685 -0.2492
14972W        W31106   9.216  10.092  14.373 -0.1650  0.1425  0.1331
14973W        W31107   5.728   5.630   4.150  0.0131 -0.2116  0.4776
14974W        W31108  17.953  17.495   2.337 -0.2641 -0.1487 -0.0877
14975W        W31109   6.693   2.455   0.362 -0.0395  0.0641  0.1046
14976W        W31110   6.394  18.964  13.695 -0.2033  0.2547  0.0218
14977W        W31111   2.765  12.984   3.979  0.0529  0.0865 -0.4307
14978W        W31112   8.470   5.859  10.268 -0.1922 -0.0672  0.2968
14979W        W31113  15.211   6.590   5.091  0.0174  0.0669 -0.3820
14980W        W31114  12.990   6.318  13.848 -0.0305 -0.1396  0.0038
14981W        W31115   8.506   3.505   0.228 -0.1114  0.1455 -0.2315
14982W        W31116   0.550   6.443  13.701  0.1645  0.1537  0.3591
14983W        W31117   6.001   6.695   2.824 -0.0620  0.1311  0.1819
14984W        W31118   4.908   8.405  14.729 -0.2078 -0.0535  0.1398
14985W        W31119  10.760  16.947  12.650 -0.1256 -0.3329  0.1329
14986W        W31120   1.558   3.003   3.430 -0.0252  0.1835  0.0332
14987W        W31121   3.129  16.556  10.376 -0.1408  0.0885 -0.0117
14988W        W31122   7.159   7.334   9.467 -0.1493 -0.2077 -0.1442
14989W        W31123  14.994  17.227   4.306 -0.0174  0.4311 -0.0315
14990W        W31124  11.568   7.454   3.236 -0.1795 -0.2843 -0.0573
14991W        W31125  13.910   9.115   2.644 -0.2188 -0.4130  0.1520
14992W        W31126  18.228   0.775   4.932  0.0468 -0.2334 -0.1182
14993W        W31127   4.568   5.936  12.651 -0.0615  0.2612 -0.1167
14994W        W31128  18.974  11.759   1.902 -0.1826 -0.0713  0.3352
14995W        W31129   4.346   8.536  12.431 -0.1335  0.2167  0.3117
14996W        W31130   3.700   3.623  13.185  0.2001  0.0247 -0.3403
14997W        W31131   2.529  12.607  14.221  0.1426  0.1210  0.1508
14998W        W31132   0.653  13.761   2.472  0.2365 -0.1033  0.0832
14999W        W31133   4.081   1.968  11.895 -0.1577  0.1719 -0.0030
15000W        W31134   4.925   2.443   1.902 -0.2775  0.2199 -0.1782
15001W        W31135   3.740  15.311  13.090  0.4598  0.1952  0.1709
15002W        W31136   1.938   5.298  10.968  0.3320 -0.1685 -0.3895
15003W        W31137  18.327  14.631  10.728  0.0140 -0.0301 -0.1592
15004W        W31138   3.562  12.015   0.092 -0.0522  0.2724  0.0402
15005W        W31139   2.993  16.674   2.858  0.2555 -0.0816 -0.0991
15006W        W31140  11.433  11.128  13.570  0.0778 -0.1197  0.0761
15007W        W31141  10.665  15.616   1.731  0.1166  0.1986 -0.0105
15008W        W31142   5.692  19.021   4.547 -0.0984 -0.0922  0.1968
15009W        W31143   9.657   7.423   0.723  0.3251 -0.2665 -0.1381
15010W        W31144   0.077   7.181  15.025  0.1173 -0.1164  0.1561
15011W        W31145  11.391  15.869   4.388 -0.0337 -0.0242  0.1130
15012W        W31146   2.407   9.518   1.288 -0.1456  0.0091 -0.1189
15013W        W31147  18.489   9.107   0.699 -0.0783 -0.1118 -0.0140
15014W        W31148  16.606   5.739  14.139 -0.4496 -0.1262  0.3310
15015W        W31149  15.474  10.881   4.707  0.0336 -0.2538  0.1140
15016W        W31150  17.517  17.815   0.512 -0.3396  0.1756 -0.0111
15017W        W31151   0.811   7.502  10.894 -0.0252  0.0497 -0.2257
15018W        W31152  11.081  15.633   5.731  0.2295  0.1121 -0.2155
15019W        W31153   4.067   0.013   4.194  0.2369  0.0912  0.3090
15020W        W31154   3.119   9.798   1.398  0.0535  0.1118  0.1201
15021W        W31155   5.025   0.004  11.995 -0.0947  0.3722  0.0282
15022W        W31156   6.260  10.184  11.248  0.1356  0.1389  0.1869
15023W        W31157   5.422  14.345   3.130 -0.4207  0.0112  0.0993
15024W        W31158   4.118   8.316   2.824  0.3063 -0.3512  0.4673
15025W        W31159   7.081   4.843  11.769 -0.1374  0.0584 -0.1838
15026W        W31160   5.365  15.460  10.348 -0.2673 -0.1409 -0.3545
15027W        W31161  11.748  14.872  11.469 -0.3520 -0.0654  0.0349
15028W        W31162  19.235   5.930   4.374 -0.1613  0.0449  0.0352
15029W        W31163   0.316  14.700  13.305  0.0605  0.1027  0.0757
15030W        W31164   0.839  18.839   0.861 -0.2762  0.2092  0.0394
15031W        W31165  16.015  15.002  12.816 -0.2393  0.3998 -0.0388
15032W        W31166  17.641  12.125   5.590 -0.1390 -0.2054  0.1228
15033W        W31167   8.131  12.040  14.453 -0.2995 -0.2163  0.1180
15034W        W31168   3.417   7.634  10.673  0.2804  0.0464 -0.0397
15035W        W31169  12.704   3.095  14.255  0.1273  0.3040 -0.1507
15036W        W31170   5.481  11.576   4.434 -0.2059  0.0651 -0.1687
15037W        W31171  13.696  11.884  13.418  0.3165  0.0100 -0.2661
15038W        W31172  13.627  12.468  12.131  0.0699  0.1009 -0.0966
15039W        W31173  12.711   5.461  13.024  0.1440  0.0002  0.0555
15040W        W31174   3.691   9.625   1.527  0.0625  0.2933 -0.0748
15041W        W31175   2.014   2.477   0.571  0.1039  0.0082 -0.1305
15042W        W31176   8.421   6.391   3.378 -0.0885  0.1833 -0.3715
15043W        W31177  14.622  17.477   0.725  0.3054  0.1660 -0.3659
15044W        W31178   6.471  10.236  14.341 -0.0925 -0.0997 -0.2365
15045W        W31179   8.225  16.033   2.709  0.2875 -0.3717  0.0368
15046W        W31180   0.743   2.056  14.037 -0.0008  0.3499 -0.0442
15047W        W31181   2.885  18.087  14.206  0.0760 -0.0370 -0.0286
15048W        W31182  11.254  16.292  12.176 -0.0113  0.0589  0.0006
15049W        W31183   5.502  16.883   1.145 -0.0614 -0.0452  0.2831
15050W        W31184   9.452   4.918   3.803 -0.0759 -0.1438 -0.1231
15051W        W31185   3.348  12.847   0.598 -0.2044  0.2924 -0.1220
15052W        W31186   0.516  11.343  12.738  0.3323 -0.2133 -0.0339
15053W        W31187  17.314   5.262  14.024  0.1185 -0.2147  0.0433
15054W        W31188  14.234  12.586   1.484 -0.2232  0.0721 -0.2277
15055W        W31189  11.840  13.690   1.993 -0.4297  0.3275 -0.2824
15056W        W31190  10.827   6.081   9.769 -0.3743  0.3613  0.1106
15057W        W31191   3.320   1.248  14.475  0.3249  0.3018  0.3743
15058W        W31192   5.042   9.673   2.491  0.0050 -0.3845  0.7065
15059W        W31193   5.440   3.390  12.900  0.0381  0.1220 -0.2923
15060W        W31194   9.163   4.327  14.428 -0.0321 -0.0143  0.0603
15061W        W31195   3.223  16.642   3.558  0.2238  0.2751  0.0241
15062W        W31196  11.881  14.400  11.365  0.0607  0.0303 -0.1389
15063W        W31197   4.013   7.694  13.497 -0.1599  0.2446  0.2610
15064W        W31198  12.509  12.889   3.560 -0.0297 -0.3011  0.2521
15065W        W31199  11.515  17.879   0.894  0.0150 -0.5662 -0.1056
15066W        W31200  14.361  18.494   4.749  0.1695  0.3439  0.0434
15067W        W31201  12.858  11.368  11.175 -0.3651 -0.0236 -0.0709
15068W        W31202  18.109   4.198   3.165  0.3122 -0.0752 -0.0447
15069W        W31203   0.447   1.706   0.343 -0.3261 -0.3452 -0.1570
15070W        W31204  13.483  12.414  14.976 -0.1513  0.1957  0.1836
15071W        W31205  17.307   2.645   4.201  0.1844  0.0684  0.1487
15072W        W31206  17.340  14.882   1.946  0.1120 -0.1046 -0.3821
15073W        W31207   7.765  12.378   0.006 -0.0894  0.0540 -0.0473
15074W        W31208  12.449   8.365  10.902  0.3651  0.2200 -0.0224
15075W        W31209   3.268  13.063  12.534  0.0027 -0.2552  0.1075
15076W        W31210   1.258  14.204  14.309 -0.2806  0.3490 -0.0920
15077W        W31211   2.169  16.940   4.401 -0.0526 -0.0913 -0.2132
15078W        W31212  11.704  11.244  14.932  0.0137  0.2038 -0.2001
15079W        W31213  17.477   4.834  13.298  0.0307  0.0071 -0.0651
15080W        W31214   3.313   0.951   2.269  0.1358  0.2476  0.2289
15081W        W31215   2.469   0.615  10.978 -0.1355 -0.0256 -0.0453
15082W        W31216  13.218   7.408   2.626 -0.2620  0.2657  0.0662
15083W        W31217  10.903   6.814  10.222  0.0297  0.1896  0.1086
15084W        W31218  10.676   4.710  13.013 -0.0256 -0.1063  0.2784
15085W        W31219  19.005   8.593   1.410  0.0109  0.0116  0.1076
15086W        W31220   0.871   3.286   0.412 -0.1437  0.0469  0.0259
15087W        W31221  17.656  17.725   3.479  0.0207 -0.1529 -0.1897
15088W        W31222   8.192   1.245   3.592  0.1655  0.0537  0.2065
15089W        W31223   4.681  10.798   0.381 -0.0198 -0.0065 -0.0440
15090W        W31224  13.661   2.665   2.057  0.0010  0.2369 -0.0419
15091W        W31225   2.716  13.042   0.492  0.2058  0.1537 -0.0330
15092W        W31226  17.603   0.610  12.349  0.2538 -0.0821 -0.1739
15093W        W31227   1.471   9.447   1.119  0.1464  0.2263 -0.2610
15094W        W31228   6.478  12.934   9.725 -0.3950 -0.3966  0.0433
15095W        W31229  19.136   1.816  12.382  0.2718 -0.2335 -0.2846
15096W        W31230  17.568   1.900   0.710 -0.1485 -0.0155 -0.2186
15097W        W31231  18.748   5.255   3.107 -0.2121  0.0598  0.1761
15098W        W31232  10.247   4.785   3.206  0.1513 -0.3612  0.0018
15099W        W31233   8.786  18.816  11.421  0.0220  0.1383 -0.1958
15100W        W31234  13.378   8.916   4.338 -0.3042 -0.0324 -0.1583
15101W        W31235  11.962  18.958  13.910  0.1850 -0.1238 -0.1527
15102W        W31236   7.652   8.108   2.072 -0.1106 -0.1520 -0.0449
15103W        W31237   2.711   5.352  12.866 -0.1481 -0.2011 -0.2123
15104W        W31238  18.886   4.546   5.302 -0.2601  0.3643  0.0792
15105W        W31239   2.865  12.398   1.245 -0.3826 -0.0118 -0.0819
15106W        W31240   3.367   7.076   1.865  0.0538  0.0681 -0.4726
15107W        W31241  14.762   6.365  12.938  0.5929  0.1491  0.1835
15108W        W31242   3.293  17.932  14.538 -0.1417  0.2272  0.0115
15109W        W31243   0.597   0.584   2.932 -0.1607 -0.2056  0.1173
15110W        W31244   0.043   7.940  12.436 -0.1124  0.1875  0.1906
15111W        W31245  18.324   5.292   0.864  0.1691 -0.0305  0.0779
15112W        W31246  10.097   9.522   4.046 -0.0185  0.1945  0.0055
15113W        W31247  17.360   8.402  12.144 -0.3381  0.0997 -0.0673
15114W        W31248   3.026  15.309  12.811 -0.1107  0.1326 -0.1150
15115W        W31249  12.268   8.592   0.731 -0.1122  0.1369  0.0836
15116W        W31250   0.504   7.386  13.381  0.0425 -0.0658 -0.1401
15117W        W31251   6.028   4.098  13.091  0.1757 -0.2107  0.1982
15118W        W31252  13.810  11.388  13.406  0.0907  0.1781  0.0776
15119W        W31253  16.722   9.852   4.268  0.1020  0.2139 -0.3836
15120W        W31254   9.040   4.546  13.989  0.5596  0.0863 -0.2129
15121W        W31255  11.938   6.434   1.182  0.1034  0.2279  0.0736
15122W        W31256   4.537  18.626  10.803  0.0675  0.0206  0.3763
15123W        W31257  16.359  11.293  14.316 -0.4096  0.1647  0.3649
15124W        W31258   4.755   8.792  11.119  0.1017 -0.3458 -0.1971
15125W        W31259  10.138  15.314  14.789  0.5282  0.3068  0.1458
15126W        W31260  18.352  13.847  11.734  0.0330 -0.0477 -0.2343
15127W        W31261   0.711  10.866  14.999 -0.2111 -0.1034 -0.2438
15128W        W31262  16.603  14.359  13.551 -0.3753 -0.0305  0.0421
15129W        W31263  14.812  16.588   1.940  0.0282 -0.4594 -0.1116
15130W        W31264  11.243  18.145   2.889 -0.0326 -0.3128 -0.0324
15131W        W31265   8.323  13.987   2.998 -0.0259  0.3500  0.1609
15132W        W31266  12.800  15.275  13.103 -0.3469  0.1314 -0.2246
15133W        W31267   1.382  12.615  14.965 -0.0085 -0.0407 -0.1078
15134W        W31268  13.925   0.141   4.641  0.3379 -0.0960  0.2346
15135W        W31269  14.171  16.467   3.051  0.0625  0.1541 -0.2966
15136W        W31270   8.391  11.659   0.647  0.1227  0.3549  0.6300
15137W        W31271   3.616  12.047  11.975  0.2851  0.1081  0.1771
15138W        W31272  10.857  11.108  12.080 -0.1521  0.0703 -0.1284
15139W        W31273   5.984   5.696  12.782 -0.1454 -0.1482  0.0043
15140W        W31274  17.827  15.622   0.670 -0.2166  0.0042 -0.1314
15141W        W31275  11.136  16.931   9.598  0.3334  0.0938 -0.0883
15142W        W31276   5.171   5.239   2.352  0.0472  0.3142 -0.1234
15143W        W31277   2.179  10.816  13.256 -0.0383  0.2356 -0.0581
15144W        W31278  13.919  16.011   2.942  0.1996 -0.0650  0.2790
15145W        W31279  10.186  18.229   2.229  0.2384 -0.0733 -0.1766
15146W        W31280  13.039  17.083  14.627 -0.1808  0.0772 -0.0677
15147W        W31281  18.505  14.902   0.862  0.1576 -0.0825  0.4835
15148W        W31282   0.584  16.667  12.680 -0.5007 -0.0290  0.2698
15149W        W31283  17.084   0.843  14.229  0.0936 -0.1752  0.0118
15150W        W31284   4.421   3.421   3.953 -0.0212  0.1386 -0.1648
15151W        W31285  17.134  16.508   3.889 -0.0422  0.0630 -0.3989
15152W        W31286  13.601   9.834  11.252  0.1058 -0.2772  0.0035
15153W        W31287  10.207   1.579  11.185 -0.0168 -0.2556  0.2734
15154W        W31288   6.175  17.719   4.689 -0.1981 -0.1862 -0.2519
15155W        W31289  18.065  16.060  13.694  0.2263 -0.0745  0.0818
15156W        W31290   6.340  17.080  12.362 -0.1810  0.1429 -0.0229
15157W        W31291  15.118  17.772   5.080 -0.2231 -0.0922 -0.3913
15158W        W31292   7.159   5.241   3.830  0.0918  0.0049  0.1502
15159W        W31293   4.722   8.525   0.731 -0.1502 -0.1284 -0.3026
15160W        W31294  13.177  10.542  12.962 -0.0956 -0.2148 -0.3081
15161W        W31295  10.798   2.153   1.272  0.0856  0.2816 -0.0049
15162W        W31296  11.247  10.032   3.440  0.0554  0.1182 -0.3143
15163W        W31297   0.648   9.525   1.131 -0.0871 -0.0182  0.0571
15164W        W31298  18.759   7.045   0.638 -0.0455 -0.0171 -0.0745
15165W        W31299  11.157   6.869   1.105 -0.1891 -0.3212  0.0506
15166W        W31300  13.147   1.801  12.382 -0.1728 -0.3726 -0.2119
15167W        W31301   7.064   2.975  12.644 -0.2915  0.1412  0.0828
15168W        W31302   8.374  12.618  12.881  0.0476  0.1059  0.1018
15169W        W31303   0.473   3.461   4.503  0.1260  0.1810 -0.1062
15170W        W31304  16.648  15.323   4.478  0.1416  0.0721  0.2068
15171W        W31305   7.804  14.705  10.359  0.1983  0.1856 -0.0760
15172W        W31306   8.162  16.749   3.698 -0.0620  0.0096 -0.0813
15173W        W31307   8.123  11.809   1.731  0.1315 -0.0419  0.0438
15174W        W31308   9.137   8.984   3.689 -0.2291  0.1965  0.0940
15175W        W31309  15.789  13.614   0.133  0.0158  0.1011 -0.2486
15176W        W31310  11.309   7.018  11.741 -0.1207  0.0125 -0.0479
15177W        W31311  16.835  10.775   4.831  0.1524 -0.2098 -0.1722
15178W        W31312   5.371  12.313   0.282 -0.1048 -0.2311  0.1458
15179W        W31313  17.212   5.715   0.372 -0.1373  0.1486 -0.0020
15180W        W31314   7.350   7.063  12.378 -0.2394 -0.1448  0.2724
15181W        W31315   3.849   9.297  10.354  0.0957  0.1169  0.0049
15182W        W31316  18.273  11.366  14.690  0.0884 -0.1568 -0.0972
15183W        W31317   6.451  13.427   5.338 -0.2865  0.2016  0.0636
15184W        W31318   2.143   4.965   3.308  0.0313  0.3967  0.1779
15185W        W31319   4.267  14.249  13.525  0.3102 -0.1557 -0.1196
15186W        W31320   6.582   1.574  11.108 -0.0828 -0.1189 -0.3033
15187W        W31321   5.050   4.396  14.163 -0.0764 -0.3569  0.2661
15188W        W31322   2.738  14.256  12.722  0.1424 -0.0673 -0.0309
15189W        W31323  10.581   3.784  14.620 -0.4880  0.3133 -0.0482
15190W        W31324  13.201   5.686   4.631 -0.1280 -0.2214  0.0600
15191W        W31325  10.864   6.761   0.179 -0.0222 -0.1521 -0.2134
15192W        W31326   9.556  16.560  14.971  0.2240 -0.0050  0.0415
15193W        W31327  12.957   0.871   0.320 -0.0387 -0.1484  0.0749
15194W        W31328  14.134  18.964   4.767 -0.0426  0.0608 -0.0422
15195W        W31329   2.634  18.360   4.873 -0.3016 -0.0463 -0.0251
15196W        W31330   5.814  13.061   0.552 -0.0887 -0.0589 -0.0634
15197W        W31331  19.189   9.691   3.651  0.1523 -0.0249 -0.0588
15198W        W31332  16.393   2.106  13.022 -0.1442  0.0494  0.2900
15199W        W31333  10.142   3.047  12.088  0.4269 -0.2365  0.0747
15200W        W31334   6.980  18.801   4.889  0.1109 -0.2009  0.4540
15201W        W31335  14.344   0.506  12.413  0.0193  0.0011 -0.1541
15202W        W31336  14.946   3.789  10.484  0.0636  0.3101  0.0705
15203W        W31337   0.928   9.579   3.355 -0.1496  0.0752  0.0077
15204W        W31338  16.093  11.973  13.882  0.1228  0.0256 -0.0352
15205W        W31339  13.968   0.029  14.816 -0.1623  0.1316  0.1175
15206W        W31340  11.753  16.927   2.873 -0.0863  0.1414  0.0775
15207W        W31341  15.817   0.783  12.366 -0.0946 -0.3428  0.4683
15208W        W31342  12.973   5.399  14.042  0.1995  0.3303 -0.0866
15209W        W31343   7.387  11.580  14.766 -0.1035  0.1138  0.1107
15210W        W31344  17.937  11.954   2.033 -0.2428  0.1631  0.3159
15211W        W31345  11.997   5.608   1.555 -0.1266  0.1564 -0.0407
15212W        W31346   5.221  10.646  14.806  0.0878  0.3755 -0.1632
15213W        W31347   8.575   1.216  12.932 -0.0751  0.1039 -0.0239
15214W        W31348  15.788  15.045   9.745 -0.4375 -0.2004 -0.1830
15215W        W31349   7.999   3.301  14.469 -0.0845  0.0699  0.0613
15216W        W31350  12.240  12.435   3.495  0.1671  0.0964 -0.1045
15217W        W31351  16.766   2.379  13.256 -0.2016  0.1600 -0.0168
15218W        W31352   5.062  14.653   0.963 -0.1762  0.0045  0.2565
15219W        W31353  15.465  11.702   1.286 -0.1377  0.3934 -0.1776
15220W        W31354  17.507  10.549  13.176  0.0135  0.0160 -0.0849
15221W        W31355   9.620   9.079  10.197 -0.0200  0.0536  0.1515
15222W        W31356   0.680   8.150  11.691  0.2920  0.4386  0.2846
15223W        W31357  13.870  16.195  14.352 -0.2846 -0.2420  0.0479
15224W        W31358  14.019   5.992  10.668  0.3303  0.1475  0.1168
15225W        W31359   4.114  18.282  10.673 -0.0596 -0.1595 -0.0970
15226W        W31360  14.835   9.837  14.904  0.2872  0.1051 -0.3325
15227W        W31361  10.872  19.026   0.349 -0.1806  0.0169 -0.4277
15228W        W31362  11.571   0.030   4.105  0.0442  0.0480 -0.0600
15229W        W31363  10.004   6.227   2.076  0.0169  0.1487  0.0720
15230W        W31364  13.335   4.433  14.191 -0.0948 -0.2178 -0.1813
15231W        W31365   5.613   3.403   1.751  0.0279 -0.0610  0.3348
15232W        W31366   1.075   0.659  11.944 -0.2919  0.1775 -0.2390
15233W        W31367   0.152  11.964   0.335 -0.1129 -0.1185 -0.0743
15234W        W31368   2.095   7.569   5.335 -0.3519 -0.1183  0.0272
15235W        W31369   8.095  11.210  13.852 -0.0348  0.0314 -0.1321
15236W        W31370   7.894  10.785   2.063 -0.1536  0.1256  0.3246
15237W        W31371  15.464   0.712   2.352 -0.5483  0.1587  0.1054
15238W        W31372  12.534  18.594   3.275  0.1717  0.4110  0.2547
15239W        W31373  16.371   8.490  14.673 -0.0534 -0.0653 -0.0207
15240W        W31374  15.425   4.145  12.344 -0.3103  0.2428 -0.4334
15241W        W31375   0.503   8.253  12.547 -0.1200  0.1851  0.2753
15242W        W31376  14.071   1.652   0.399 -0.0026  0.1015 -0.3647
15243W        W31377   7.252   9.869   1.523 -0.0880  0.0869 -0.2114
15244W        W31378  13.333  10.905   3.750 -0.1021 -0.4074  0.0367
15245W        W31379   0.708   7.767  13.074 -0.4441 -0.2686 -0.0397
15246W        W31380   6.037  10.718   1.631 -0.0327 -0.2076 -0.3029
15247W        W31381   0.186  12.959   2.919  0.0438 -0.3339  0.0407
15248W        W31382  12.663   7.503  11.956 -0.0070  0.0855 -0.3565
15249W        W31383   0.624  10.776   2.744 -0.0499  0.0450  0.2103
15250W        W31384   3.093   6.098   1.293 -0.0784  0.0297 -0.0703
15251W        W31385  19.002   6.729  13.304  0.0605  0.0213 -0.2263
15252W        W31386   1.801   3.969   3.859  0.4155 -0.3432  0.3296
15253W        W31387   4.035   9.023  13.555  0.0553 -0.0156 -0.0542
15254W        W31388   2.184  11.329   1.792 -0.0865  0.1840 -0.1862
15255W        W31389  18.947  11.014  13.292 -0.0793  0.1785  0.0298
15256W        W31390   4.913  14.560   5.085 -0.1471  0.2330  0.2450
15257W        W31391   8.486  18.817   3.345 -0.2814 -0.0451 -0.4713
15258W        W31392   1.815  16.071   3.994  0.0779  0.1527 -0.1109
15259W        W31393   9.801   2.163   4.354 -0.1912  0.1486 -0.0437
15260W        W31394   5.070   2.319   1.431  0.4024  0.1118 -0.4891
15261W        W31395  18.455   5.578   5.067 -0.2847  0.1123  0.3265
15262W        W31396   3.639   9.940   9.740 -0.2656 -0.2110  0.4057
15263W        W31397   3.225  11.312   0.739 -0.3288  0.0504  0.2631
15264W        W31398   5.888  13.251   1.073 -0.0702  0.0852  0.0974
15265W        W31399  19.097  14.478   1.399 -0.2961  0.0061  0.1006
15266W        W31400  16.256  16.834   3.052  0.0988 -0.0095  0.3040
15267W        W31401   0.118   7.485   1.917 -0.2231  0.3140 -0.4202
15268W        W31402   2.054  15.597   1.796 -0.0100 -0.0492  0.1033
15269W        W31403   5.792   5.716  11.710 -0.3180  0.0514 -0.0212
15270W        W31404  16.626  11.317   4.083  0.1357  0.4307 -0.0782
15271W        W31405   4.134   3.085  11.968  0.0261 -0.3815 -0.0579
15272W        W31406   6.867   3.705   1.043  0.2012  0.1051  0.4760
15273W        W31407   8.164   2.226  11.888 -0.2219 -0.1357  0.1686
15274W        W31408   6.363   0.295  12.400  0.0718 -0.2235  0.0073
15275W        W31409  17.135   4.646  12.414  0.1584  0.0671 -0.3259
15276W        W31410  10.237  16.317  12.455  0.0744 -0.0876  0.3421
15277W        W31411   9.553   0.206  13.470  0.0548  0.0214  0.2027
15278W        W31412   9.014   3.775  12.966  0.1422 -0.0545 -0.4210
15279W        W31413  10.068  16.840   9.792  0.0731 -0.1907 -0.2533
15280W        W31414  18.145   3.833   1.747 -0.3074  0.4337 -0.2170
15281W        W31415  16.698   7.140   3.295 -0.0108  0.0637  0.2778
15282W        W31416  10.759  18.733  13.136 -0.2222  0.1388  0.1501
15283W        W31417  10.990  11.508  14.465 -0.1320 -0.0470  0.2126
15284W        W31418  13.331  16.731  12.483 -0.1003  0.1381 -0.0130
15285W        W31419   0.643  11.327   4.406 -0.3809  0.2324 -0.1361
15286W        W31420   3.821   0.349   1.779  0.2855 -0.0524  0.0797
15287W        W31421   9.269   9.084  11.932  0.1250 -0.2613 -0.1032
15288W        W31422   0.455   2.413   3.730 -0.1854  0.2818 -0.0704
15289W        W31423   6.982   0.174  14.271 -0.1791 -0.0886  0.0696
15290W        W31424   2.952   8.888   3.190 -0.0426  0.0143 -0.2332
15291W        W31425  13.318   4.317   1.597  0.0018  0.3031  0.2456
15292W        W31426   8.821  16.337   3.543 -0.3002 -0.5482  0.1677
15293W        W31427   7.884   2.156   2.017 -0.1605  0.0315 -0.2649
15294W        W31428   4.390   0.128  14.894 -0.1493 -0.1740 -0.0874
15295W        W31429   5.660  13.289   5.051 -0.2570 -0.2962  0.3153
15296W        W31430  18.671   9.186  12.012 -0.1231 -0.0144  0.1159
15297W        W31431   5.721   7.040  13.412 -0.0973  0.0674 -0.0579
15298W        W31432  16.661   1.127  13.936 -0.0245  0.1629  0.3924
15299W        W31433   3.285  11.783  11.332 -0.0909  0.0776  0.1653
15300W        W31434  13.075  14.104  11.724  0.1875  0.3602 -0.0599
15301W        W31435   3.158   4.170  13.538 -0.3320  0.1197 -0.0710
15302W        W31436   7.703  16.939   3.066 -0.0138  0.1611  0.0484
15303W        W31437  15.667  18.235  14.606 -0.2558 -0.2512  0.2537
15304W        W31438  13.507   6.504   4.810 -0.1028 -0.0301  0.2007
15305W        W31439   1.350   3.068   0.538  0.5926  0.5751 -0.2572
15306W        W31440   5.373   6.747   9.562  0.2482  0.0316  0.2080
15307W        W31441  12.243   0.917   5.419  0.1267 -0.3831 -0.1833
15308W        W31442   0.986   0.187  11.759  0.0535  0.1997 -0.1478
15309W        W31443   3.287   2.231  13.658  0.0206 -0.3449 -0.1954
15310W        W31444   3.161   1.271  11.028 -0.0787  0.1698  0.1407
15311W        W31445  18.650   8.051   5.063  0.2282 -0.0484 -0.0557
15312W        W31446   7.593  10.712   5.170 -0.1638 -0.2928  0.0206
15313W        W31447   5.015   8.394   3.418 -0.1266 -0.0312 -0.0319
15314W        W31448   0.795   7.987  14.556  0.0720  0.0945  0.2016
15315W        W31449   4.232   2.478   1.179  0.1330 -0.0505 -0.0618
15316W        W31450   9.954   3.298   1.541 -0.2578 -0.3661  0.4529
15317W        W31451  17.637   7.321   1.912  0.0957  0.2080  0.3496
15318W        W31452  11.715   8.019   5.099 -0.1453  0.2449 -0.0972
15319W        W31453   0.996   2.407  15.033  0.0167 -0.0821 -0.2612
15320W        W31454   0.721   3.817  14.426 -0.0829 -0.0216 -0.2959
15321W        W31455  19.223  13.155   2.471 -0.0842 -0.6537  0.1090
15322W        W31456  10.144   0.375   1.356  0.3060 -0.0867 -0.3592
15323W        W31457  11.533  14.974   4.239 -0.1422 -0.0845 -0.0348
15324W        W31458   0.889  11.007  10.608  0.1606 -0.0483 -0.0265
15325W        W31459   7.630   3.083  12.444  0.0978 -0.1033 -0.1877
15326W        W31460  15.536  16.952   0.148  0.1453  0.4228 -0.2063
15327W        W31461  16.837  14.723   2.313  0.1338  0.2312  0.1023
15328W        W31462   6.133  12.312  12.847  0.0263 -0.1518 -0.1620
15329W        W31463  13.967  13.420   4.403 -0.0743  0.0781  0.1801
15330W        W31464   5.613  11.062   1.777  0.0014  0.3022  0.1998
15331W        W31465   3.907  18.130   4.813 -0.0817  0.1507 -0.0331
15332W        W31466   7.505   3.110   2.591  0.0895 -0.1414  0.2212
15333W        W31467  16.395   1.858   3.375 -0.0522  0.0572  0.0729
15334W        W31468   1.598   3.707   1.177  0.1539  0.2021 -0.1677
15335W        W31469   3.282  16.314   1.810 -0.0376  0.0356  0.0496
15336W        W31470   8.073  13.380  14.212  0.2297  0.1663 -0.2075
15337W        W31471   4.525   0.402   0.947  0.0095 -0.1632  0.0911
15338W        W31472  12.950   1.867   1.033  0.3494 -0.0708 -0.3030
15339W        W31473  14.938  16.225  11.336  0.0094 -0.0561 -0.0112
15340W        W31474   8.329  10.414   2.901  0.2530 -0.0726 -0.0917
15341W        W31475  18.804   1.740   3.152  0.0029 -0.2278  0.1680
15342W        W31476  13.604   8.584  12.956 -0.4300  0.0267  0.1573
15343W        W31477  17.565  16.925   5.200  0.1048 -0.0987  0.0768
15344W        W31478  14.312  18.273  13.715 -0.0000 -0.0689 -0.0067
15345W        W31479  17.379   5.025   3.984 -0.1605  0.2440  0.2481
15346W        W31480   6.594  15.088   3.927  0.3218 -0.0711 -0.1793
15347W        W31481   0.363  17.151   0.327  0.0397 -0.1458 -0.0480
15348W        W31482   9.764   3.884   4.841  0.1763  0.0329  0.2651
15349W        W31483   8.671   7.763   9.683 -0.0258 -0.1627  0.2102
15350W        W31484  14.342  11.414   4.294 -0.0775  0.1464 -0.0173
15351W        W31485   3.281  12.417   0.960 -0.1289 -0.1930  0.1397
15352W        W31486   7.900   2.765  13.183 -0.0940  0.1498 -0.1228
15353W        W31487   4.830  17.381  13.961  0.0249  0.1029  0.4144
15354W        W31488  13.178  16.676   3.251 -0.0872 -0.2224  0.5732
15355W        W31489  15.013   9.106  13.280  0.1679 -0.2110 -0.0200
15356W        W31490  12.483   5.962  11.794 -0.1479 -0.0141  0.2163
15357W        W31491   9.026   3.299  14.687 -0.1867  0.3043 -0.0683
15358W        W31492   1.903  10.180  10.504  0.2175  0.3043  0.0369
15359W        W31493  12.693  12.980   0.680 -0.1722 -0.1558 -0.5766
15360W        W31494  11.481   2.366  11.993 -0.1516 -0.1714 -0.0387
15361W        W31495   4.533  17.665  14.386  0.0886  0.1096  0.4100
15362W        W31496  11.510   2.826   3.689  0.4610 -0.1302  0.0346
15363W        W31497  16.166  15.550   2.527 -0.0267  0.1037 -0.1355
15364W        W31498   0.078   7.108   0.448 -0.0881  0.2600 -0.2212
15365W        W31499   3.309  15.576   1.909  0.1881 -0.0668  0.2064
15366W        W31500   4.306  15.651   0.073 -0.4039  0.0274  0.1094
15367W        W31501   9.656   6.507  10.468 -0.1600 -0.0966 -0.1024
15368W        W31502  15.522  18.422   3.262  0.1383  0.2228 -0.0793
15369W        W31503   6.289   0.331  10.642  0.0832  0.3655 -0.1322
15370W        W31504  14.410   3.902  13.346 -0.5919 -0.0803 -0.0501
15371W        W31505   2.014   6.523   0.721 -0.1713  0.2225  0.0866
15372W        W31506  11.358  10.557   3.646  0.1179 -0.0980  0.1688
15373W        W31507   1.872   8.645  14.337  0.0382 -0.2698 -0.0235
15374W        W31508  11.828   6.532  11.240 -0.4160  0.1896  0.1336
15375W        W31509   8.186   5.901  10.653 -0.1117 -0.3102  0.0334
15376W        W31510  16.084   2.254  10.445  0.1076  0.5942  0.1563
15377W        W31511  14.520  18.552  13.192 -0.1410  0.1622  0.1082
15378W        W31512   0.555  14.204   2.225  0.0248  0.0351  0.0122
15379W        W31513  11.170   1.605   1.722 -0.4000  0.0172  0.0959
15380W        W31514  14.481  19.221   3.411  0.2355 -0.2773 -0.1087
15381W        W31515  18.067   2.100   4.963  0.2426 -0.3104 -0.0684
15382W        W31516   5.150  16.346   4.004 -0.1148  0.3262  0.2056
15383W        W31517   7.922  14.977   2.730 -0.0193 -0.0139 -0.0842
15384W        W31518  18.928   7.604  13.100  0.4074 -0.1066  0.2264
15385W        W31519  14.434   5.418   0.232 -0.1175 -0.0474  0.3563
15386W        W31520   5.735  15.724   2.909  0.2010 -0.0420  0.0450
15387W        W31521   6.167  10.788  13.257 -0.1122  0.3570 -0.2827
15388W        W31522  10.439  15.424   2.192  0.0530  0.0043 -0.1772
15389W        W31523   5.360  17.727  10.266 -0.0338 -0.0998 -0.0447
15390W        W31524   5.268   4.513   4.478 -0.0840 -0.0984 -0.0747
15391W        W31525   6.747  11.937   2.733  0.0887 -0.0116  0.1053
15392W        W31526   3.921   3.991   4.513  0.3245 -0.2798  0.0453
15393W        W31527   1.952  15.289  11.520  0.0756 -0.0414  0.3346
15394W        W31528   1.302  11.141   1.969  0.1223 -0.0419  0.0589
15395W        W31529   6.905  13.212  14.016 -0.1899  0.0014  0.0106
15396W        W31530  14.358  14.344  10.508 -0.2457  0.2304  0.3024
15397W        W31531  16.488   3.594   2.269 -0.1532 -0.1969  0.2599
15398W        W31532  16.165  14.213  12.782  0.0216  0.3930  0.2661
15399W        W31533   2.965   9.977   0.868 -0.0052  0.2165 -0.1907
15400W        W31534  18.375   1.901  11.862  0.2024  0.3155  0.1785
15401W        W31535   6.221  13.079   2.207  0.0059 -0.0565  0.1179
15402W        W31536   2.699  19.007   2.145 -0.1591  0.1649 -0.1655
15403W        W31537  14.807  14.251   0.597 -0.1309  0.0797 -0.3724
15404W        W31538   0.801  15.711   1.060  0.2287  0.3521  0.0533
15405W        W31539  18.958   3.536   2.324 -0.0154  0.2463  0.0733
15406W        W31540   1.442  18.378  12.131 -0.2054  0.0027  0.0557
15407W        W31541  11.483  18.391   0.703  0.0001 -0.2624 -0.1812
15408W        W31542  15.224  11.453   0.894  0.0344  0.0444 -0.1343
15409W        W31543   6.666  13.525  11.039 -0.1512  0.3465 -0.1619
15410W        W31544   9.168   3.435   4.048 -0.2177 -0.0210 -0.1667
15411W        W31545  13.705  18.589   0.419 -0.0228 -0.0420 -0.1309
15412W        W31546   2.836   3.108  12.988  0.2007  0.0967  0.0378
15413W        W31547   4.505  17.111   5.034 -0.2257 -0.1013 -0.0020
15414W        W31548  17.836  12.444  14.475 -0.0908  0.3212  0.0426
15415W        W31549  15.576   8.085  13.730  0.0688  0.1542  0.2614
15416W        W31550  15.796  15.784   3.200 -0.0737 -0.0932  0.0058
15417W        W31551  14.724  18.598  13.654 -0.2238 -0.0998 -0.0157
15418W        W31552   2.289   7.928  13.791 -0.2520  0.2424  0.1037
15419W        W31553   0.081  13.362   3.280  0.0404  0.1736 -0.5190
15420W        W31554   3.242   7.606  13.320 -0.1613  0.0801 -0.0580
15421W        W31555   1.847   5.409  14.764  0.1493 -0.0851 -0.0711
15422W        W31556   0.785  18.671   1.299  0.0332  0.2669  0.0335
15423W        W31557   0.016   8.834   1.880 -0.2420  0.2793 -0.0378
15424W        W31558  13.644   0.848  14.830 -0.0822 -0.2532 -0.3973
15425W        W31559   9.574  19.067  10.953 -0.0264 -0.0012  0.2803
15426W        W31560   7.544  13.754   3.073 -0.0749  0.2677 -0.0460
15427W        W31561   5.745  10.207  13.583  0.2992  0.1094 -0.0175
15428W        W31562   4.298  17.421   4.552 -0.0173  0.0225  0.1051
15429W        W31563  16.659  18.538   1.072  0.2340  0.0919 -0.0349
15430W        W31564  10.819   5.526   1.162  0.2325 -0.0877  0.0024
15431W        W31565  15.616   7.500  14.333 -0.0025  0.1406 -0.0610
15432W        W31566   3.438   0.426   2.178 -0.5546 -0.0839 -0.0721
15433W        W31567  10.751   0.767   4.622  0.1294  0.0518 -0.1615
15434W        W31568  14.819  11.992  12.725  0.3285 -0.1164 -0.3155
15435W        W31569   6.403   8.492   2.552  0.3251 -0.3371 -0.1517
15436W        W31570   8.984  18.146   1.743 -0.0513 -0.2941 -0.1963
15437W        W31571  12.513  11.111  13.458 -0.2357  0.0483  0.1020
15438W        W31572   5.712  16.358  10.952  0.1531  0.0601  0.4593
15439W        W31573  15.154   5.172   5.861  0.1197  0.1601 -0.2322
15440W        W31574   8.980   8.322  12.378  0.1739  0.1321 -0.1140
15441W        W31575   2.497   2.299   5.664 -0.1871  0.0297 -0.1067
15442W        W31576   3.038   1.769  13.049  0.0774  0.2436  0.0881
15443W        W31577   9.722   6.724  13.322 -0.0189  0.0326  0.1798
15444W        W31578  10.958   5.005  11.382  0.0416  0.2392 -0.0417
15445W        W31579   0.619   6.055   4.708 -0.0114  0.0552 -0.0573
15446W        W31580   5.338   0.771  10.804  0.1321 -0.0892 -0.1453
15447W        W31581   5.062   8.572  13.118 -0.0325  0.2506  0.1166
15448W        W31582   3.800   7.250  12.759  0.3684  0.0625 -0.0208
15449W        W31583   0.089  16.982   4.572  0.0535  0.1705 -0.2554
15450W        W31584   8.376  14.950  11.652  0.2113 -0.1937 -0.2642
15451W        W31585  13.150   2.058  10.928 -0.1235  0.3965 -0.3302
15452W        W31586   7.911   0.532   4.349  0.0499  0.0133  0.0598
15453W        W31587  14.974   9.363   4.198 -0.0337 -0.1205  0.1678
15454W        W31588   4.977  17.632  11.158  0.3582  0.2800  0.2050
15455W        W31589   4.209   5.467   0.402 -0.1004 -0.1633  0.3669
15456W        W31590   7.095  15.623   1.811  0.1265  0.2271  0.0572
15457W        W31591  10.336  12.090   1.347  0.0309 -0.2526 -0.1821
15458W        W31592  16.902   5.150  13.820 -0.1493 -0.0913  0.1678
15459W        W31593   7.667   9.887   2.771  0.0610  0.2422  0.0386
15460W        W31594   7.911   0.280   2.439 -0.1277  0.0588  0.1469
15461W        W31595   2.834  12.714  12.649  0.0782 -0.0145 -0.1587
15462W        W31596  15.270   8.970  11.140  0.2125  0.2709  0.1139
15463W        W31597  14.669  12.643  12.105  0.0433 -0.0892  0.0840
15464W        W31598  12.844   0.409   1.363  0.0825  0.1047  0.3731
15465W        W31599   3.276   8.831   5.054 -0.1286 -0.3591 -0.0915
15466W        W31600   8.313  16.531  11.356  0.0386 -0.0910 -0.0477
15467W        W31601  10.440  13.275   2.243 -0.0355  0.0806 -0.1354
15468W        W31602   0.628  12.099   2.939  0.1230 -0.0526 -0.0927
15469W        W31603  17.567  13.778  13.855 -0.0402  0.4762  0.0218
15470W        W31604   9.334  12.205   9.823  0.0924  0.1487 -0.1956
15471W        W31605   2.391   1.729   3.917 -0.0146  0.2433  0.0690
15472W        W31606  15.030   3.511   3.513 -0.0085  0.1547 -0.2919
15473W        W31607   2.332  15.864   3.119  0.2228  0.1224 -0.3844
15474W        W31608  18.875  14.500   1.904 -0.1175  0.4838 -0.3137
15475W        W31609   5.983  17.600  13.660  0.1669 -0.1220  0.0397
15476W        W31610   2.647  18.534  10.147 -0.0506  0.1658  0.0823
15477W        W31611  11.731   8.019  10.766 -0.1843  0.2417 -0.1402
15478W        W31612   2.729  18.830   0.809  0.2103  0.1922 -0.3451
15479W        W31613   9.648  17.557  12.887  0.2125 -0.0678  0.0808
15480W        W31614   5.597  16.399   4.965 -0.2901  0.0588 -0.1381
15481W        W31615   1.876   0.152   0.541 -0.1938  0.1888  0.0286
15482W        W31616   1.969   8.206  12.281  0.2880  0.3129  0.0667
15483W        W31617   7.227   8.809  14.657 -0.0904  0.0099  0.2694
15484W        W31618  19.162  18.253  14.773 -0.0533 -0.1712  0.1250
15485W        W31619   5.193  12.094   0.721  0.2302  0.1207 -0.1035
15486W        W31620  13.763  11.998   2.729 -0.1139 -0.2770 -0.0719
15487W        W31621   5.522  14.474  11.186  0.1064  0.1764  0.0995
15488W        W31622   2.578  16.360  13.309 -0.0387 -0.2823  0.0149
15489W        W31623   2.460   1.870  13.153  0.1611  0.1875 -0.3222
15490W        W31624   7.909   9.308  12.351 -0.2285  0.0500 -0.3053
15491W        W31625   9.691   8.843  10.597  0.1941  0.0725 -0.3914
15492W        W31626  14.948   1.192   3.758  0.2619  0.1857  0.0466
15493W        W31627  16.157  18.075   3.218 -0.4540 -0.2139  0.0915
15494W        W31628   8.177   4.473   0.457  0.2096  0.1672  0.2427
15495W        W31629  10.447  15.270   0.329 -0.2231 -0.2299  0.2347
15496W        W31630   3.651   1.023   4.605 -0.0074 -0.1688 -0.1513
15497W        W31631  17.931  11.936   3.328 -0.1587 -0.0924 -0.1905
15498W        W31632  15.947  10.288  14.640  0.4120  0.3464 -0.0258
15499W        W31633  15.743   1.044  14.626  0.0989 -0.0007  0.2724
15500W        W31634   4.285   7.384   1.401 -0.1292  0.2039 -0.2990
15501W        W31635  16.189  14.043  13.456  0.0039  0.1843 -0.0218
15502W        W31636  15.052   4.261   1.046  0.3839 -0.0936 -0.2256
15503W        W31637   6.066  11.250   5.301  0.2598  0.3100 -0.0526
15504W        W31638   9.507   6.476   5.147 -0.2431  0.0255  0.2210
15505W        W31639   1.949  13.119  11.049  0.1259 -0.0681  0.2975
15506W        W31640  10.897   9.164   1.106 -0.0691 -0.2388  0.1263
15507W        W31641  10.748  13.747  14.189  0.0261 -0.1222  0.1411
15508W        W31642   4.730   1.812   4.990 -0.2795  0.1471  0.0619
15509W        W31643   8.910  14.956  11.393  0.0768 -0.0027  0.0462
15510W        W31644  10.894   7.399   1.038 -0.2974  0.3928  0.2570
15511W        W31645   7.612  15.774  13.806  0.0792 -0.3485  0.4615
15512W        W31646  17.533  13.504  11.937 -0.1456  0.1542 -0.2972
15513W        W31647   0.539  10.478   1.809 -0.0885 -0.1674 -0.1617
15514W        W31648  16.143   2.107  11.077  0.2260  0.0827  0.0573
15515W        W31649   6.280  10.247  12.379  0.1254  0.2554 -0.1300
15516W        W31650  17.945  17.429   1.415 -0.3074 -0.0426 -0.0477
15517W        W31651  12.129   3.172   4.202 -0.0571 -0.1062  0.0323
15518W        W31652  14.333  16.836   6.066 -0.1112 -0.0804  0.1427
15519W        W31653  17.223  12.673   4.804  0.0752 -0.1555  0.1697
15520W        W31654  13.264   3.492   1.868  0.0469  0.3336 -0.1079
15521W        W31655   8.771  11.946  11.078  0.0420 -0.0867 -0.0743
15522W        W31656  16.252  12.516  14.351  0.1659  0.2867  0.2026
15523W        W31657  18.164   2.070   0.965  0.1376 -0.5009  0.0739
15524W        W31658  13.967  19.173  13.075  0.1618 -0.1906 -0.5642
15525W        W31659   9.253  10.117   3.062  0.2426  0.3605 -0.0533
15526W        W31660   3.301  10.958  12.481  0.2051  0.2283  0.0217
15527W        W31661  10.752   8.799  12.990  0.0526 -0.1770  0.3870
15528W        W31662   6.052  13.994   0.369 -0.0878 -0.3498 -0.2857
15529W        W31663  11.388   2.019  11.625 -0.2638  0.1118  0.1263
15530W        W31664   1.746   0.678  14.822 -0.0387  0.0043  0.1855
15531W        W31665  13.116  15.827  11.076 -0.0161 -0.2805 -0.2002
15532W        W31666  11.251   7.063  13.252  0.0142  0.0632 -0.1252
15533W        W31667  14.440   3.229  12.647 -0.1018  0.0077 -0.1495
15534W        W31668   8.559   1.306   3.236  0.1771  0.0398  0.0242
15535W        W31669  17.132  14.108   0.582 -0.0534 -0.1044  0.0889
15536W        W31670   0.527  18.730   2.954  0.1184 -0.0303  0.1325
15537W        W31671   5.783  14.851   1.589 -0.0833  0.0414  0.1242
15538W        W31672   1.797   8.524   3.235 -0.0438 -0.0662  0.2296
15539W        W31673  18.288   8.629   5.404  0.0618 -0.2270  0.0516
15540W        W31674   7.406   0.921   0.839  0.0373 -0.3612 -0.0985
15541W        W31675   7.997   8.015   4.031 -0.0239 -0.2759 -0.2710
15542W        W31676   3.456  12.014   4.551 -0.1290 -0.1068  0.0875
15543W        W31677  15.299  12.824  14.657 -0.0870 -0.0063  0.0231
15544W        W31678   4.512  13.956   0.280 -0.0622 -0.1194 -0.2238
15545W        W31679  15.112  13.079   3.576  0.2033  0.0130  0.1900
15546W        W31680  12.992   8.453   2.957 -0.0295  0.0658 -0.1965
15547W        W31681   7.673   0.041  11.935  0.1836  0.0534  0.0967
15548W        W31682  16.020  11.027   0.551 -0.1646 -0.0582 -0.2282
15549W        W31683   4.507   3.989  12.865  0.2663  0.0088  0.1598
15550W        W31684   2.590   1.388   5.345  0.1055  0.0005  0.0858
15551W        W31685   3.312  17.647  13.013 -0.1910  0.0195  0.0331
15552W        W31686  11.710  11.082  10.382  0.0823  0.1128  0.1988
15553W        W31687  15.756   5.415   4.628  0.0003  0.2861  0.0622
15554W        W31688  14.326  17.979  10.624  0.0241 -0.0584  0.6238
15555W        W31689   7.242  18.408  12.726  0.0618 -0.1314  0.2406
15556W        W31690   9.709  17.345   2.716 -0.1638 -0.0105  0.1401
15557W        W31691  11.769  18.812  12.968 -0.1787  0.2201  0.0037
15558W        W31692  14.349   9.405   4.905  0.0089  0.1697 -0.1153
15559W        W31693  18.490  10.372  14.053  0.1691 -0.4793 -0.2288
15560W        W31694  16.458   2.756   2.914 -0.1555  0.1201  0.0071
15561W        W31695  14.011   6.292   4.876  0.1879  0.0281 -0.0883
15562W        W31696  14.463  19.043   2.295  0.2250  0.1987 -0.1111
15563W        W31697   2.143  13.830   0.933 -0.0170 -0.1661  0.0118
15564W        W31698  16.977   5.655  11.008 -0.0780 -0.0616 -0.0779
15565W        W31699  18.446  17.980  10.730  0.2125 -0.2841 -0.3418
15566W        W31700   8.345  18.322   2.446 -0.1571  0.0052  0.0741
15567W        W31701   8.044   0.798   2.629 -0.3463  0.1407 -0.1327
15568W        W31702   8.264   7.042   4.611 -0.3228  0.0067  0.0622
15569W        W31703   5.703   6.295   3.647  0.2883  0.0166 -0.3735
15570W        W31704  12.927   4.426  12.308 -0.1982 -0.1650 -0.3361
15571W        W31705   7.662   0.456  11.637 -0.0476  0.0559  0.3350
15572W        W31706  11.795  10.223   1.292  0.2496 -0.0372 -0.2777
15573W        W31707   1.217   5.611   3.436 -0.0178  0.1674 -0.2236
15574W        W31708  10.520  18.784  15.004 -0.0454 -0.0036 -0.2573
15575W        W31709   0.000  17.782  12.427 -0.0445 -0.2626 -0.1479
15576W        W31710  10.693  19.019  13.513 -0.0321  0.0940 -0.1992
15577W        W31711  13.970   9.427   3.320 -0.3399  0.2984 -0.2118
15578W        W31712  13.088   8.196   0.991  0.3189  0.1940 -0.0478
15579W        W31713   1.217   7.964  13.699 -0.0917  0.2876 -0.1750
15580W        W31714   3.928  16.988  12.321  0.5250  0.1150 -0.2597
15581W        W31715  14.753   2.745   2.267 -0.1972  0.1551 -0.0708
15582W        W31716   8.216   6.891  10.470 -0.3201 -0.1805  0.1822
15583W        W31717   4.425  12.180  14.434 -0.0509  0.0773  0.0511
15584W        W31718   3.070   7.338  10.787  0.0086 -0.4007  0.2165
15585W        W31719   6.981  12.560   3.083 -0.1964  0.0486 -0.1406
15586W        W31720  14.538   6.501   4.886  0.0331  0.0196 -0.0918
15587W        W31721   4.706  18.247  11.053  0.0238 -0.0476 -0.1147
15588W        W31722   1.326  16.955   3.757  0.1124 -0.1159 -0.1298
15589W        W31723  19.184  18.447   2.048 -0.0144  0.3343  0.0713
15590W        W31724   9.316  10.707   3.151  0.0687  0.3055 -0.1054
15591W        W31725  16.527   9.223   4.966  0.0833 -0.0719  0.0472
15592W        W31726   5.488   5.451  11.975 -0.0996 -0.2407 -0.0259
15593W        W31727  17.331  11.756   2.735  0.1173 -0.2133  0.0671
15594W        W31728  11.040  15.875  10.720 -0.1280 -0.0128  0.0384
15595W        W31729  15.344  15.765   4.525  0.1069 -0.1073 -0.1567
15596W        W31730   1.333   5.342   4.053 -0.4742 -0.0066 -0.1635
15597W        W31731  12.754   6.526   9.182 -0.1519 -0.1076 -0.2025
15598W        W31732  18.896   7.033  12.337 -0.1881 -0.0276  0.4736
15599W        W31733   9.672   4.604   0.134  0.0892  0.0852  0.0333
15600W        W31734   1.612   0.649  13.026 -0.0723  0.1216  0.1730
15601W        W31735  12.780  18.039   4.606 -0.2532  0.0409  0.2588
15602W        W31736  13.746  10.541  11.845 -0.1002 -0.1298  0.0977
15603W        W31737  10.220   1.408   0.934  0.1306 -0.3161 -0.1266
15604W        W31738  15.853   9.341  14.389 -0.0578 -0.2549  0.3466
15605W        W31739   3.403  14.046  14.416 -0.0922 -0.2059 -0.1361
15606W        W31740  11.450   3.013  13.756 -0.2820 -0.2830 -0.2669
15607W        W31741   2.443   2.744   0.184 -0.2935 -0.1863 -0.0759
15608W        W31742  15.104   6.100   3.326 -0.1974 -0.0423  0.0146
15609W        W31743   4.263  13.594   3.090  0.0042  0.2931  0.0089
15610W        W31744   7.087   1.300  10.314  0.3843 -0.0270  0.0660
15611W        W31745  16.437  12.234  10.826  0.0544  0.0534  0.0591
15612W        W31746   8.284  12.000  13.346 -0.1757 -0.1301  0.1628
15613W        W31747  13.977  12.576   2.285  0.0225 -0.1117 -0.4868
15614W        W31748   9.450  12.552   0.903  0.1099  0.0764 -0.1458
15615W        W31749  10.009  19.220  13.562  0.1074 -0.0300 -0.1734
15616W        W31750  13.207  10.087  12.065 -0.2589  0.1872  0.3217
15617W        W31751   7.886  10.889   0.067 -0.2583  0.2392 -0.4304
15618W        W31752   3.142   6.135   9.911 -0.0697 -0.2068 -0.0812
15619W        W31753  11.796   0.015   4.899  0.2382 -0.0434  0.1005
15620W        W31754  18.721   8.022   1.508 -0.0104 -0.2212 -0.0248
15621W        W31755  11.060   5.012   9.515 -0.0583  0.0323  0.0231
15622W        W31756  12.629   8.366  14.250  0.2001  0.2770  0.1740
15623W        W31757   3.890   7.708   4.205 -0.3329  0.2333  0.1845
15624W        W31758   0.762  16.316  11.864 -0.0072  0.3675  0.1800
15625W        W31759  17.227   7.022   1.791  0.2813 -0.0977  0.0227
15626W        W31760  17.690  14.517  10.826  0.0879  0.0866  0.0776
15627W        W31761  18.488  13.106   3.646 -0.2349 -0.1118  0.1763
15628W        W31762  12.240  13.855  12.828  0.1111  0.2860 -0.3353
15629W        W31763  15.505   2.192  11.837  0.2338 -0.1579  0.2135
15630W        W31764  18.444   0.318   3.360 -0.1761  0.2940  0.2078
15631W        W31765   3.363  14.056   0.285 -0.0788  0.0333  0.0202
15632W        W31766   3.310  15.679  15.002 -0.2608 -0.1998  0.4069
15633W        W31767  17.939  10.191  14.182  0.1419 -0.0217 -0.1907
15634W        W31768  16.944   0.479   2.331  0.0263 -0.1190 -0.0015
15635W        W31769   0.681   1.233  13.903 -0.0877  0.0478 -0.1155
15636W        W31770   7.893  13.973  12.559 -0.2608 -0.0941  0.3630
15637W        W31771  15.931  10.043   4.807  0.0667 -0.1807 -0.3198
15638W        W31772  19.020   0.483  12.921  0.0281 -0.0641  0.0613
15639W        W31773   9.728   6.599   2.191 -0.1020 -0.0024 -0.0775
15640W        W31774   6.806  19.037   3.441  0.0053  0.1350 -0.0299
15641W        W31775  16.946  11.073   2.467  0.2746 -0.0269  0.1293
15642W        W31776   2.880   3.575  14.212 -0.1494 -0.1022 -0.0888
15643W        W31777   1.032   0.496   3.835  0.1460  0.0623 -0.2368
15644W        W31778  10.825   4.528  13.614  0.5632 -0.1836  0.1518
15645W        W31779  17.551   3.242   9.517  0.1732  0.1782 -0.0460
15646W        W31780   5.209  16.942   0.682  0.1828  0.0284 -0.1252
15647W        W31781   1.516  11.247   0.540  0.1863 -0.3953 -0.0878
15648W        W31782   2.008   1.307   3.644 -0.0734  0.0724  0.2039
15649W        W31783   9.770  12.547   4.764 -0.0383 -0.2123  0.1034
15650W        W31784   1.231  11.593  11.292 -0.1786  0.0775  0.0934
15651W        W31785   1.420   1.916  10.458 -0.1376 -0.1327  0.3084
15652W        W31786   6.766  15.612   2.224  0.3553 -0.1997  0.0376
15653W        W31787  18.792  10.453   0.445  0.2164  0.2420  0.0119
15654W        W31788  15.587   9.782   4.226 -0.2103 -0.3837 -0.2224
15655W        W31789   7.203  11.751  12.928  0.0193 -0.0147 -0.3804
15656W        W31790   9.247   3.227   1.111 -0.1354 -0.3581  0.2119
15657W        W31791  11.577   0.059   3.596 -0.1938  0.1245 -0.1075
15658W        W31792   9.084  10.492   0.518  0.0276  0.0625 -0.0375
15659W        W31793   5.513   7.605  10.924  0.0637  0.1029  0.0444
15660W        W31794   0.417   7.724  13.735 -0.1294 -0.0086 -0.1426
15661W        W31795   3.631  14.401  11.503  0.0383  0.1485 -0.1026
15662W        W31796  12.841  10.015   1.539  0.1002 -0.0599 -0.1437
15663W        W31797  14.528   4.149  14.272  0.1874  0.2941  0.2788
15664W        W31798   9.516   7.329   9.364  0.0074  0.0552  0.1811
15665W        W31799   2.955  12.190  12.829 -0.2569 -0.0182  0.0483
15666W        W31800   5.466   3.901  12.638  0.0411 -0.0863 -0.2118
15667W        W31801   2.183   3.833  12.148 -0.0025 -0.2214 -0.0997
15668W        W31802   4.258   8.602  13.683  0.0890 -0.0188  0.1206
15669W        W31803  13.054   5.090   3.876 -0.2610 -0.4040  0.0051
15670W        W31804   1.663  13.246   4.777 -0.0692 -0.0026 -0.1178
15671W        W31805  11.679  14.011   4.533 -0.0530  0.4657  0.1593
15672W        W31806  17.577   4.519   0.146 -0.1581  0.0020 -0.0032
15673W        W31807   7.185  10.620   3.740  0.0638 -0.0768 -0.1510
15674W        W31808  14.472  10.374  14.227  0.4172 -0.2355  0.1834
15675W        W31809   4.773   9.374   2.203 -0.1461  0.0833  0.1472
15676W        W31810   6.347  18.966   3.266  0.2967  0.0723  0.0226
15677W        W31811  10.289   4.993   1.713  0.0293 -0.1405  0.1481
15678W        W31812  12.921   2.735   3.295 -0.0158  0.0660  0.1917
15679W        W31813  19.174   3.955  11.865 -0.0258  0.0205 -0.2498
15680W        W31814  17.781  16.434  11.045 -0.1787 -0.1659  0.0718
15681W        W31815   8.522  17.001   4.659 -0.1306 -0.2497  0.0981
15682W        W31816   2.818  11.567  10.267  0.0411 -0.1739 -0.0006
15683W        W31817   6.008  17.128  13.659  0.1162  0.1055  0.0807
15684W        W31818  12.839  11.965   9.556  0.1878  0.1047 -0.1168
15685W        W31819   8.095   6.857  13.986 -0.0030  0.1000 -0.2068
15686W        W31820   3.718   1.915   3.446 -0.1142  0.0248 -0.1952
15687W        W31821  16.297   1.864  13.486 -0.0274  0.0832  0.3296
15688W        W31822   0.691   3.758   1.478  0.2907  0.3532 -0.1495
15689W        W31823   9.066  18.284  12.122  0.0536  0.1155 -0.1768
15690W        W31824   8.256  14.814  12.108 -0.1555 -0.1918 -0.1987
15691W        W31825   8.168   9.113   1.562  0.1087 -0.5955  0.1043
15692W        W31826   3.933   3.876  11.312  0.0204  0.0160 -0.1519
15693W        W31827   4.162  18.934  14.844 -0.2781  0.1918 -0.2597
15694W        W31828   7.853  11.505   4.361  0.0792  0.0202 -0.1094
15695W        W31829  11.533   0.786  15.004 -0.1902 -0.1214 -0.3950
15696W        W31830  11.169  18.476  11.672 -0.0934 -0.3228 -0.5740
15697W        W31831  17.711  14.678  11.366  0.1386 -0.2643 -0.0278
15698W        W31832  19.133   5.627  13.130  0.1305 -0.2319  0.1148
15699W        W31833   9.009   7.725   2.926 -0.1419 -0.1937 -0.2239
15700W        W31834   2.871   8.505   2.948 -0.0107 -0.0618 -0.0047
15701W        W31835  11.131  15.176   3.694  0.1213  0.0047  0.1147
15702W        W31836   1.624   8.905  11.332  0.0682 -0.3006 -0.1303
15703W        W31837   3.360  16.279   5.148  0.1335 -0.0974  0.1247
15704W        W31838  12.506   8.994  10.419  0.1518  0.1925 -0.0234
15705W        W31839   2.291   9.429  14.876 -0.2061  0.0196  0.0240
15706W        W31840  19.045   4.408   2.214  0.0518  0.1568  0.1285
15707W        W31841  14.477  11.236  14.334  0.0481  0.0452  0.2465
15708W        W31842   2.188   0.899   1.528 -0.1841 -0.0197  0.2004
15709W        W31843  11.185  16.412  13.578 -0.1181  0.0965  0.0005
15710W        W31844   7.178  17.583  11.089  0.3642 -0.1737 -0.0336
15711W        W31845   0.524  18.770  12.322  0.0425  0.0033  0.0205
15712W        W31846  14.903  16.811  13.521  0.1526  0.4192  0.0774
15713W        W31847   3.632  17.584  10.172 -0.1160 -0.0969 -0.0057
15714W        W31848   1.565   4.320   3.434  0.1244  0.1500 -0.2129
15715W        W31849   1.936  13.988   2.761  0.2416 -0.2038  0.0444
15716W        W31850  16.303  15.217   3.593 -0.3354  0.2082  0.3512
15717W        W31851   6.082   6.828  14.738 -0.2014  0.0540 -0.0336
15718W        W31852  13.687  15.184  12.210 -0.0779  0.2470 -0.0235
15719W        W31853  10.231  17.269  12.329 -0.2301 -0.0211 -0.0076
15720W        W31854  10.825   4.723   3.200 -0.0862  0.0229 -0.0984
15721W        W31855  15.523  12.788   3.095 -0.3238 -0.0454 -0.0469
15722W        W31856   5.643  10.700   0.062 -0.2577 -0.1387 -0.3502
15723W        W31857   6.636  18.322  10.696  0.2133  0.2846  0.1228
15724W        W31858  14.846  18.149   4.884  0.0785 -0.1035  0.1230
15725W        W31859  11.686  14.567   3.528  0.0561 -0.0005  0.0288
15726W        W31860  10.464   4.670  10.620 -0.0237  0.2943 -0.0139
15727W        W31861  12.825   8.627   2.544  0.2352  0.1385  0.1938
15728W        W31862  15.609   0.098  12.523 -0.0327  0.3210  0.2222
15729W        W31863   3.375  15.236   4.492 -0.0853  0.3741 -0.0313
15730W        W31864  19.144  11.208   9.373 -0.2663  0.1693  0.1814
15731W        W31865   8.449   1.061   3.956 -0.0194  0.0545 -0.3430
15732W        W31866   9.907   8.197  11.382  0.0486 -0.1944 -0.0057
15733W        W31867   9.775   8.234   0.316  0.3830  0.1923  0.2768
15734W        W31868   7.176  11.654   2.598 -0.0719  0.0978 -0.2728
15735W        W31869   2.964   3.433   0.252 -0.0532 -0.0124  0.1867
15736W        W31870  15.703   1.310   4.289  0.0036  0.0605 -0.0039
15737W        W31871  16.911  13.587   4.476 -0.0649 -0.1061 -0.1546
15738W        W31872  12.305  15.158   4.464 -0.2011  0.2803  0.1414
15739W        W31873   2.847   5.421   1.681 -0.0395  0.1099 -0.0123
15740W        W31874  13.826   1.783   1.996  0.1078  0.1474 -0.0283
15741W        W31875  12.682   3.673   2.669 -0.0909  0.1704  0.0130
15742W        W31876   3.721  12.081   2.387  0.0591 -0.0936  0.2107
15743W        W31877  17.416   5.460   0.812  0.1193 -0.0545 -0.1987
15744W        W31878   3.325  11.789  12.524 -0.0370  0.1605  0.0653
15745W        W31879   3.746   6.195  10.816 -0.1340  0.1238  0.0195
15746W        W31880  13.371   2.877  14.383  0.0110  0.1554 -0.1359
15747W        W31881   6.688  17.060  10.696  0.3271  0.1281 -0.1642
15748W        W31882  14.310   3.444  11.162  0.0401 -0.3658  0.0192
15749W        W31883   2.735  15.099   0.613 -0.1116 -0.0412  0.0056
15750W        W31884   9.027  12.569   5.744  0.1808  0.0728 -0.0533
15751W        W31885  14.995  18.341   1.832  0.2089 -0.0265 -0.2186
15752W        W31886  10.748   8.330  14.292  0.1383  0.0877 -0.3982
15753W        W31887  16.021  14.931   0.539  0.0204  0.0186 -0.0655
15754W        W31888  12.373  18.103   4.965 -0.0334  0.1839 -0.3943
15755W        W31889  18.883  16.502   3.406 -0.3226 -0.2265  0.2845
15756W        W31890  17.772   2.468  10.605 -0.1582  0.0874 -0.0723
15757W        W31891   4.772   5.139   1.211  0.1338 -0.0875 -0.0325
15758W        W31892   2.626  16.381   0.502  0.0151  0.3040 -0.1419
15759W        W31893  16.772  18.377  11.002 -0.1852 -0.1617 -0.2682
15760W        W31894  19.055   4.012   3.491  0.1654  0.0483 -0.2473
15761W        W31895   0.481  13.249   4.192 -0.1063  0.2955  0.0195
15762W        W31896  16.723   2.195   2.958 -0.0471  0.1067  0.1865
15763W        W31897  16.416  15.775   1.707  0.1037 -0.2095 -0.0351
15764W        W31898   7.524   1.783   5.491 -0.0775  0.0039  0.0469
15765W        W31899   0.298   3.810   1.756 -0.0282  0.0930  0.0896
15766W        W31900  10.380   5.142  12.814 -0.1131  0.0079  0.1310
15767W        W31901   0.332   8.479  11.671  0.3278 -0.2178 -0.2195
15768W        W31902  10.475   9.337   2.717 -0.0501 -0.0556  0.0703
15769W        W31903   0.340  10.999   0.953  0.2552  0.2338 -0.2854
15770W        W31904  11.429   4.538   9.497  0.0599  0.2778  0.2617
15771W        W31905  13.047   8.380  10.183 -0.2642  0.2034 -0.1642
15772W        W31906  11.606   8.685  14.249 -0.4807 -0.0920  0.2236
15773W        W31907  15.811   1.218   0.135  0.1310  0.0772 -0.3879
15774W        W31908   1.164  16.120   5.095  0.0035 -0.0190  0.3674
15775W        W31909   5.814   8.685   0.055  0.0794 -0.0009 -0.0258
15776W        W31910   1.240   4.339   3.853  0.1107  0.2452 -0.1354
15777W        W31911   7.222   5.814   9.889  0.0578  0.0284  0.0342
15778W        W31912   0.433   3.092   0.205 -0.0918 -0.0923  0.1475
15779W        W31913   0.736  19.135   3.873 -0.2927 -0.2121  0.0206
15780W        W31914   9.517  15.686   1.915  0.1888  0.1474 -0.1458
15781W        W31915  16.941   5.779   3.427 -0.0192 -0.0052 -0.1790
15782W        W31916  11.808   5.574  12.629  0.1647  0.0506 -0.1236
15783W        W31917   0.295   8.108  11.156 -0.1332  0.0154 -0.3287
15784W        W31918  14.332   3.590  12.999 -0.0508  0.0667 -0.0888
15785W        W31919  12.496  16.460  14.410  0.0035 -0.3803  0.1804
15786W        W31920  18.450   6.455   2.437  0.0912 -0.1794 -0.0946
15787W        W31921  15.457  10.551  11.963  0.4491  0.0119 -0.0571
15788W        W31922   1.524   3.354   2.332  0.1175 -0.1602 -0.1569
15789W        W31923   8.271  17.611   3.849 -0.0733 -0.0112  0.1108
15790W        W31924   9.766   1.322  13.978  0.0189 -0.1691 -0.0347
15791W        W31925  11.712  16.536   1.430 -0.1594 -0.3359 -0.3217
15792W        W31926  11.914   2.932   3.218  0.1719 -0.1676 -0.0735
15793W        W31927   2.460  15.230   1.723  0.4003  0.0179 -0.0043
15794W        W31928   7.102  12.367   3.812 -0.1334  0.0128 -0.1884
15795W        W31929   7.393  13.639  13.798 -0.1202  0.0769 -0.2152
15796W        W31930   7.954   0.420   0.618 -0.0722  0.0879  0.0882
15797W        W31931   7.684  10.227   0.868 -0.0894 -0.3973  0.2647
15798W        W31932   7.206  10.592   0.841  0.2135  0.3763 -0.0119
15799W        W31933  12.478   7.752   2.121 -0.1712 -0.0819  0.0879
15800W        W31934   5.446  12.245  13.485  0.4079 -0.2400 -0.0169
15801W        W31935  17.320  12.234   0.278 -0.0330  0.1248 -0.2352
15802W        W31936  11.922   1.541  13.214  0.0446  0.0578 -0.0794
15803W        W31937  16.977   3.509   2.529 -0.2208 -0.1469  0.3844
15804W        W31938   5.271  17.588  14.142  0.0059 -0.1000 -0.0769
15805W        W31939   3.772   4.594   1.192  0.0778 -0.0021  0.3700
15806W        W31940  12.882   6.211  14.893  0.3490  0.1879  0.3730
15807W        W31941  10.006   3.484   0.869 -0.2000 -0.0735 -0.0012
15808W        W31942   7.406   3.724  13.068 -0.3527 -0.0761  0.2112
15809W        W31943  18.090   3.390  13.072  0.2219 -0.0454  0.3757
15810W        W31944  15.445   3.448  13.525 -0.0815 -0.0686 -0.0787
15811W        W31945  17.889   2.557  13.653  0.3350 -0.1707  0.2595
15812W        W31946  16.671  10.864   3.738 -0.1045  0.0244  0.1940
15813W        W31947  17.485   9.284  12.893 -0.1664  0.0604  0.0552
15814W        W31948  11.804   3.875  11.641  0.1418 -0.0193  0.0679
15815W        W31949   1.220   6.270  14.435 -0.0836  0.0818  0.2552
15816W        W31950   3.346  18.373   1.031 -0.1867  0.0434 -0.3659
15817W        W31951   8.151  15.921   3.962 -0.0232  0.0615 -0.0523
15818W        W31952   5.000   0.632  10.284 -0.0072 -0.1686  0.2519
15819W        W31953   7.714   2.649   4.548 -0.0727  0.0414 -0.1269
15820W        W31954   7.200  16.639  13.812  0.0198  0.1222  0.1383
15821W        W31955  15.621   0.488  14.230  0.4457 -0.1712 -0.0243
15822W        W31956  13.988   9.574  12.142 -0.0460 -0.0395  0.5879
15823W        W31957  11.247   9.371  11.725  0.3103 -0.3760  0.3237
15824W        W31958  10.806  17.413  13.548 -0.1885  0.0172 -0.1636
15825W        W31959   5.644   9.397  13.111 -0.0725  0.4017 -0.2213
15826W        W31960  18.499  16.356   0.766  0.1152  0.0677  0.1309
15827W        W31961   1.358   7.006   3.769  0.1679 -0.0459 -0.2043
15828W        W31962  11.386   9.960  13.708  0.0181  0.1533  0.2943
15829W        W31963  14.462   5.111  13.697  0.3504  0.3225  0.3901
15830W        W31964   8.761  13.671  13.781 -0.1113  0.1235  0.1158
15831W        W31965  13.583   8.133   0.786  0.0452  0.0172 -0.3118
15832W        W31966  12.180  10.849  11.299  0.3335 -0.0969 -0.0844
15833W        W31967   5.435  18.990   2.040  0.1732  0.2618  0.0544
15834W        W31968  18.957   1.406   0.842  0.0590 -0.0029  0.4216
15835W        W31969   6.447   8.877   2.211  0.0424  0.0995 -0.1687
15836W        W31970   8.104  15.250   2.241 -0.1415 -0.3328  0.1611
15837W        W31971   5.090  11.795   2.676  0.3229  0.3811 -0.0157
15838W        W31972   4.498  12.790  14.105  0.2550  0.2359  0.0435
15839W        W31973  16.839   1.212   0.237 -0.2447  0.0536  0.1714
15840W        W31974   0.582  16.751  14.352 -0.0259 -0.1298 -0.0278
15841W        W31975   4.107  10.200  10.778  0.2648  0.0016 -0.0369
15842W        W31976   1.271  13.570   1.283  0.1667  0.0519  0.1402
15843W        W31977  16.715   2.079   0.809  0.5098 -0.1420  0.0290
15844W        W31978  10.543  19.023  12.325 -0.2500  0.0620 -0.0531
15845W        W31979  17.518   0.725  13.754 -0.2414 -0.2383 -0.1993
15846W        W31980  14.468  11.063  12.109  0.1091  0.1408  0.1989
15847W        W31981  15.425   4.719  14.295 -0.1050 -0.0232 -0.4587
15848W        W31982   9.248   5.710   3.215 -0.1877 -0.3899 -0.0173
15849W        W31983   9.285  13.213  10.164 -0.0446  0.3844  0.0246
15850W        W31984  15.297   5.937   1.444 -0.1032 -0.1875  0.2927
15851W        W31985   8.198  15.370  14.310 -0.0587  0.0432  0.0023
15852W        W31986  18.655   2.025   4.974  0.0277  0.1720  0.3700
15853W        W31987   0.002   8.457  11.275  0.0058  0.0854  0.1318
15854W        W31988  11.125  16.885   2.327 -0.1926 -0.0955 -0.2305
15855W        W31989   4.159  17.315   0.578  0.0849  0.2658  0.2221
15856W        W31990   8.521   1.042  14.396 -0.0042  0.1705 -0.2845
15857W        W31991  14.132   8.499   4.750  0.0716  0.1663  0.3704
15858W        W31992   7.989   2.582   3.583  0.0537 -0.2054  0.2725
15859W        W31993   0.388   7.103   1.708  0.1437  0.2491  0.1333
15860W        W31994   6.582  10.494  12.700  0.0489 -0.0271 -0.2651
15861W        W31995  10.439  12.211  10.834 -0.2768 -0.2023  0.3652
15862W        W31996   9.811  13.584  13.833 -0.5209  0.3858  0.2538
15863W        W31997   6.331  15.056  14.570  0.0693  0.1976  0.0120
15864W        W31998  11.924   7.688   0.516 -0.1241 -0.0397 -0.0290
15865W        W31999  10.546  18.658   0.999 -0.1366 -0.1621 -0.0239
15866W        W32000   4.183   5.982   0.269 -0.0505 -0.0412 -0.2893
15867W        W32001  12.580   5.705  10.659 -0.1383 -0.1114 -0.1966
15868W        W32002   6.888  11.429  12.645  0.3800 -0.1031 -0.0701
15869W        W32003  17.835   4.411  13.275  0.0977 -0.1218  0.1318
15870W        W32004  18.276  17.469   4.155  0.0187 -0.1099  0.1367
15871W        W32005   1.200   9.088   4.947  0.1124  0.3023  0.4931
15872W        W32006   3.615   0.877   0.353  0.0054  0.2159 -0.1301
15873W        W32007   3.921  10.307  14.135 -0.0911  0.1162  0.2335
15874W        W32008  11.355   6.136  11.945 -0.3781 -0.0103  0.3801
15875W        W32009   3.821   4.454   0.189  0.1022  0.0964 -0.1641
15876W        W32010  11.765   3.020   5.230 -0.0032  0.0496  0.2396
15877W        W32011   4.961   9.346  13.610 -0.0646 -0.0509  0.0261
15878W        W32012  14.792  15.561  11.975  0.1134 -0.0329  0.2661
15879W        W32013   9.050   7.084  12.479  0.1154  0.2041  0.3451
15880W        W32014  11.554   4.893   4.103 -0.1766  0.1257 -0.2260
15881W        W32015  11.477   4.280   1.519  0.2262  0.2524 -0.2823
15882W        W32016   2.409  12.934  13.860  0.0664 -0.1002 -0.1843
15883W        W32017   5.628  14.635  10.742 -0.0231  0.4354  0.2179
15884W        W32018  11.733   3.355  10.889 -0.1159  0.4884  0.0901
15885W        W32019  11.386   5.372   0.464 -0.0513  0.1204 -0.0583
15886W        W32020  16.074  13.147  12.236  0.1747  0.1404 -0.0297
15887W        W32021  12.948   1.592   1.616  0.0102 -0.4192 -0.0204
15888W        W32022   3.182   8.217   4.997 -0.0073  0.3428 -0.1902
15889W        W32023   8.584  10.233  11.548 -0.1029 -0.0490  0.0074
15890W        W32024  14.357   0.410   0.420  0.1942  0.2258  0.4422
15891W        W32025   0.348   9.687  12.579  0.0968 -0.1374  0.4372
15892W        W32026  14.654  18.569   1.534  0.2047  0.0807  0.2365
15893W        W32027  18.154  17.023  13.266  0.1419 -0.3179  0.1699
15894W        W32028   2.661  19.170   3.668 -0.1504 -0.1603  0.3562
15895W        W32029  13.052   3.296   0.969 -0.0794 -0.2685 -0.4233
15896W        W32030   5.516   6.663   2.032  0.2996 -0.2042  0.1606
15897W        W32031  12.776   7.527   2.432  0.1951  0.1255 -0.0764
15898W        W32032   0.681  14.470  12.854  0.0293  0.0473  0.1945
15899W        W32033   2.863  18.167   4.446 -0.4764 -0.2318  0.1755
15900W        W32034   3.554   4.142   1.028 -0.0631  0.0535  0.1953
15901W        W32035  18.507  16.649   3.686 -0.2972  0.1856  0.3272
15902W        W32036   9.570   1.178   4.125  0.1692 -0.0825 -0.3484
15903W        W32037   8.175   9.946   3.811  0.0836 -0.1198 -0.3781
15904W        W32038  10.013  17.345  11.441 -0.3164  0.0098 -0.4653
15905W        W32039   9.979   8.132  13.760 -0.0395 -0.0261  0.0625
15906W        W32040   2.141   9.740  10.745 -0.0260  0.1684 -0.0996
15907W        W32041   1.782   3.708   4.353  0.2070  0.0862  0.1259
15908W        W32042   4.417   5.967  11.808  0.0851 -0.0086 -0.2224
15909W        W32043   4.084   9.389   3.795  0.0076  0.1258 -0.0304
15910W        W32044   3.965   1.415  14.362 -0.0488 -0.2219  0.1797
15911W        W32045  18.557  10.530   0.903 -0.0371  0.1564 -0.2984
15912W        W32046   7.091   7.392   0.139  0.3179 -0.1858 -0.4600
15913W        W32047  10.301   4.552  11.222  0.2050 -0.0190  0.3153
15914W        W32048   7.411  13.750   9.792 -0.1764  0.1482 -0.3854
15915W        W32049  18.187  16.726   0.526  0.3439  0.0707 -0.1411
15916W        W32050   4.605  16.831   3.631 -0.1205  0.1452  0.1624
15917W        W32051   9.237   3.642   4.510  0.3127  0.2413 -0.1087
15918W        W32052  11.920  13.523  10.604 -0.0083 -0.2591 -0.0038
15919W        W32053  13.777   8.131  15.020  0.0853  0.2521 -0.0765
15920W        W32054  14.620  12.342   5.292  0.2875  0.3423  0.1230
15921W        W32055  13.022  11.771   3.137 -0.4066 -0.1350 -0.2261
15922W        W32056   9.800  13.788   0.622 -0.0367  0.1012  0.1242
15923W        W32057  16.632  19.123   1.694  0.2697  0.0532 -0.1325
15924W        W32058  17.611   9.652   0.338 -0.0853  0.0370 -0.4165
15925W        W32059   4.096  14.387   0.903  0.1810  0.0899  0.1678
15926W        W32060   1.587  18.466   5.208  0.1923 -0.0653  0.2409
15927W        W32061   8.455   0.831   3.524 -0.0561  0.1649  0.1650
15928W        W32062   3.833   4.079  14.104 -0.2371 -0.3479  0.1460
15929W        W32063   7.186  11.684   1.343 -0.1527  0.1538  0.4204
15930W        W32064  12.905  13.044   0.237 -0.1609  0.2667  0.1084
15931W        W32065   5.659   1.002  13.868  0.0256 -0.3645 -0.0820
15932W        W32066  12.443  18.996  13.647  0.1698  0.1780 -0.0373
15933W        W32067  10.596  17.659  13.070  0.1982  0.0476  0.1441
15934W        W32068  14.339   7.817  13.103 -0.0153 -0.1538 -0.4501
15935W        W32069  15.063  13.420   3.197  0.3487  0.1172 -0.1902
15936W        W32070   9.112   0.254   4.312 -0.0831 -0.1276  0.0107
15937W        W32071  14.161  12.669  12.681 -0.0895 -0.1415  0.0748
15938W        W32072   1.842   7.651   0.207 -0.1297 -0.0247  0.1445
15939W        W32073  14.967  12.554  10.765  0.0037  0.1116  0.0651
15940W        W32074  11.094   3.661   2.426 -0.2543  0.0411  0.3773
15941W        W32075   5.382  18.347   2.092  0.1215  0.3355  0.0423
15942W        W32076  13.536  11.019   3.325  0.3179  0.0755  0.1228
15943W        W32077  15.675   2.744   9.090 -0.1908 -0.0196 -0.0020
15944W        W32078  17.801  10.267   1.070 -0.1907 -0.0460  0.1599
15945W        W32079  10.545   8.692  10.458 -0.2246  0.0704  0.2462
15946W        W32080  13.431   6.822  12.929  0.2508 -0.1028 -0.1555
15947W        W32081   3.467  10.551  14.490  0.0096 -0.1131  0.0312
15948W        W32082  13.674  10.805  10.812  0.1143  0.4272  0.0454
15949W        W32083  17.788   6.094   3.107  0.3230 -0.1380 -0.2101
15950W        W32084  17.138   1.271   5.514 -0.4167 -0.3703  0.1835
15951W        W32085  14.958  17.938  14.096  0.1171 -0.3952 -0.3385
15952W        W32086   2.288  18.010   0.924 -0.4079  0.1034  0.0450
15953W        W32087  18.038   5.706   3.006  0.1798 -0.0803  0.0033
15954W        W32088   1.652   7.660  12.600 -0.1580  0.0159 -0.1777
15955W        W32089   9.322  10.493   9.955  0.4478  0.1443  0.0454
15956W        W32090  10.731   7.556   2.255 -0.1691  0.1606  0.0568
15957W        W32091   2.755   4.808  14.594 -0.2487  0.0344  0.0220
15958W        W32092   0.603   0.113   5.170  0.0322  0.2635  0.3140
15959W        W32093   6.007   0.087  12.757 -0.2397  0.0833 -0.1773
15960W        W32094  16.633   7.495   4.322 -0.2758 -0.1526  0.0195
15961W        W32095   8.472   4.333  12.987  0.2427 -0.1512 -0.2422
15962W        W32096   3.816  17.538  13.995 -0.1983 -0.0106  0.0818
15963W        W32097  10.848   9.255   0.473  0.1188 -0.2095  0.1268
15964W        W32098   0.134   4.340  14.081 -0.1146  0.3345 -0.0109
15965W        W32099   8.520  15.362  14.716  0.0678 -0.1472  0.1522
15966W        W32100   8.845   0.089  14.772  0.1037 -0.0831 -0.1195
15967W        W32101  18.479   1.431  14.306  0.1229 -0.1661  0.0512
15968W        W32102   8.279  13.562   9.497 -0.1780  0.3124 -0.2960
15969W        W32103  15.041   2.149  14.229 -0.1335 -0.0465  0.2613
15970W        W32104  15.469   6.974   2.606  0.0244 -0.2390 -0.4252
15971W        W32105   4.837  11.002  13.021 -0.2991  0.2336 -0.2582
15972W        W32106   5.686   0.053  14.803  0.0225  0.1107  0.2397
15973W        W32107  16.010  16.906  12.911  0.3289  0.0935  0.0858
15974W        W32108  14.844   9.177  11.978 -0.3361 -0.0774 -0.0547
15975W        W32109   9.017   6.291   4.142  0.0202  0.0358 -0.0198
15976W        W32110  14.856   5.075   1.578  0.0294 -0.0115 -0.1340
15977W        W32111  17.607   0.669   0.192 -0.1383  0.3606 -0.0586
15978W        W32112   5.809   6.421   0.943 -0.0630  0.0333 -0.1234
15979W        W32113  15.575  18.600  11.249  0.2978 -0.0089 -0.0456
15980W        W32114   5.720  19.217   5.047  0.2008 -0.0061 -0.0293
15981W        W32115  18.012  17.156  11.803 -0.0489 -0.2663  0.0895
15982W        W32116   6.333  10.534   4.756 -0.0353 -0.0738  0.2044
15983W        W32117  15.122   9.300   0.757 -0.3790 -0.0726  0.5191
15984W        W32118   6.949  17.071   4.635  0.2329 -0.0010 -0.0911
15985W        W32119   4.452  15.596   4.832 -0.4854  0.0987 -0.0587
15986W        W32120   6.690  11.720   2.194 -0.0408  0.0636  0.0204
15987W        W32121   1.693  13.778   1.023  0.2457 -0.3188 -0.2987
15988W        W32122  14.351  11.557   2.812  0.1085 -0.0412 -0.0066
15989W        W32123   7.963  12.188   1.478  0.1991 -0.1360  0.0699
15990W        W32124   7.202   3.214  13.127 -0.0531  0.1252 -0.0893
15991W        W32125   8.351  12.944   3.618 -0.0587  0.3255 -0.2680
15992W        W32126  19.145   9.948  10.293 -0.0436 -0.2016 -0.0545
15993W        W32127   2.829   6.836   1.717  0.1710  0.0918  0.0795
15994W        W32128  12.981  12.787  11.222 -0.1932  0.2490  0.3991
15995W        W32129   0.064   7.912   3.491 -0.0150  0.1637 -0.1834
15996W        W32130   5.656  14.378   1.236  0.0569 -0.1481  0.0224
15997W        W32131  16.329  13.913   3.034 -0.3294 -0.0745  0.1064
15998W        W32132   3.095  18.989   4.106 -0.1111 -0.1005 -0.1261
15999W        W32133   5.953  13.933   1.415  0.2014 -0.1197  0.0762
16000W        W32134   6.861   3.959  13.961  0.5613  0.1767  0.2665
16001W        W32135   7.453  12.796   3.195 -0.0027  0.0524 -0.1011
16002W        W32136  13.583   2.939  12.915  0.0087  0.0267  0.1599
16003W        W32137  11.553   1.987   1.630 -0.4443 -0.0958  0.3011
16004W        W32138  18.550  15.276  11.574  0.2256 -0.0550 -0.2356
16005W        W32139   8.473   6.259  10.915 -0.0002 -0.0302 -0.0850
16006W        W32140   1.406   8.062   0.235 -0.0778 -0.0781 -0.1689
16007W        W32141  12.710   6.976  11.290  0.2741  0.1368 -0.0503
16008W        W32142  14.557  17.174   2.789  0.2353 -0.4318  0.3924
16009W        W32143  12.166   0.163  12.375 -0.3044  0.0025 -0.2313
16010W        W32144   6.269   8.449   0.288  0.3809  0.0716 -0.0024
16011W        W32145   0.193   0.541   2.592  0.1443  0.1242  0.0129
16012W        W32146  18.256  10.740   1.946  0.1971 -0.0021  0.0172
16013W        W32147   2.373   2.938  11.806  0.3351  0.3028  0.0356
16014W        W32148   6.168  19.150   4.694  0.3331  0.2188 -0.1845
16015W        W32149   1.981  12.397  12.505 -0.1873 -0.2328 -0.0789
16016W        W32150   5.224   6.125  12.116 -0.0842 -0.1102  0.2951
16017W        W32151  11.589  11.292   2.992  0.1668 -0.2986  0.0035
16018W        W32152   5.513  15.394  10.867  0.0423  0.2822 -0.0404
16019W        W32153  18.197   5.244   2.950 -0.4864  0.3175 -0.1380
16020W        W32154  14.413   9.695   1.988  0.1004  0.2558 -0.2386
16021W        W32155  18.768  14.297  12.876 -0.1863  0.4814  0.1055
16022W        W32156  12.679  10.256   3.013 -0.1227  0.0760  0.0802
16023W        W32157   3.766   0.600  10.731  0.0985  0.3954  0.2475
16024W        W32158   2.231  14.193   0.341 -0.2166  0.0390  0.0863
16025W        W32159   8.316   3.050   1.066 -0.1335 -0.2100 -0.0182
16026W        W32160   5.899  13.544   0.651 -0.1689 -0.0615 -0.0750
16027W        W32161  18.799  15.481  14.675  0.2397 -0.0578 -0.0813
16028W        W32162   4.969  11.053  14.977 -0.0915 -0.0634 -0.1940
16029W        W32163   4.078   2.978   1.230 -0.1633 -0.1021  0.1250
16030W        W32164  18.365  16.521   1.847 -0.1087  0.0775  0.0438
16031W        W32165   1.919   9.636   0.456  0.0075  0.0856  0.2280
16032W        W32166   6.720  15.976  13.321 -0.2611 -0.1346 -0.2516
16033W        W32167   2.063   6.087   3.426  0.0131  0.2659  0.1150
16034W        W32168   0.070  16.984  12.094  0.2583 -0.2162  0.1898
16035W        W32169  15.775   5.204   2.895 -0.0348 -0.1067  0.2389
16036W        W32170   1.426   9.180  12.605 -0.1035  0.1651  0.0370
16037W        W32171  17.099  17.926  10.821 -0.0141  0.1120 -0.1690
16038W        W32172   6.787   7.807   4.922  0.3897 -0.0745  0.3069
16039W        W32173  10.881  12.407  12.040  0.3353  0.0838  0.3783
16040W        W32174   7.339   1.905   5.017  0.2513  0.0812 -0.0363
16041W        W32175  17.908   8.923  13.053  0.1463 -0.0951 -0.0143
16042W        W32176  15.339   9.772   2.648 -0.1158  0.0758 -0.1214
16043W        W32177   6.739  16.405   0.622 -0.1024 -0.0106 -0.0258
16044W        W32178  18.990   2.518  11.984  0.1355  0.2180  0.0045
16045W        W32179   4.995  19.236  11.137 -0.0020  0.2430 -0.2223
16046W        W32180  13.125  15.341   4.991 -0.1344  0.0220  0.0941
16047W        W32181  18.891  18.914   0.592 -0.1345  0.1366 -0.2596
16048W        W32182  15.840  16.886   4.319  0.1441  0.0936 -0.2033
16049W        W32183   5.166   6.877  11.496  0.2550 -0.1251  0.0167
16050W        W32184   6.879  14.515   4.512  0.1694  0.0493 -0.1134
16051W        W32185   1.661   8.590  13.681  0.0283  0.0274  0.0269
16052W        W32186   5.164  14.662  11.546 -0.4482 -0.1080  0.0050
16053W        W32187  18.595  12.666   3.439  0.0278 -0.0602 -0.4703
16054W        W32188   4.748   1.524  10.746  0.1853 -0.2372  0.2466
16055W        W32189   8.072   4.741  11.587  0.2175  0.0361 -0.0076
16056W        W32190  16.194   7.009   2.190 -0.0008 -0.1105 -0.1226
16057W        W32191   9.397  15.386  11.942  0.0057 -0.1218 -0.4169
16058W        W32192  13.986   5.093  13.289 -0.4504 -0.0342  0.0092
16059W        W32193   4.644   4.733   3.150  0.3893 -0.2382 -0.1385
16060W        W32194   1.826  13.355   0.719 -0.0213  0.2423  0.2255
16061W        W32195   3.594  16.745  12.044 -0.3379  0.3044  0.4067
16062W        W32196   8.161  16.787   5.191 -0.2053  0.2828 -0.3516
16063W        W32197  16.501   5.008  12.474 -0.0666 -0.0035 -0.2526
16064W        W32198   5.502  11.898   3.495  0.0205 -0.1906 -0.3684
16065W        W32199   0.196   4.807  10.206  0.1440  0.4022 -0.0044
16066W        W32200   3.340   0.714  14.553 -0.0745  0.0306  0.2140
16067W        W32201  18.818   0.374   3.681  0.2211 -0.0231 -0.0312
16068W        W32202   2.011   6.377  12.311  0.0304  0.1178  0.0344
16069W        W32203   5.403   0.922  14.285 -0.1501 -0.0591 -0.0574
16070W        W32204   7.810   4.539   9.954  0.1045 -0.0721 -0.2320
16071W        W32205  11.787   7.887   3.160 -0.0451  0.0947  0.0052
16072W        W32206  17.835   0.795  10.129 -0.0203  0.0381 -0.0017
16073W        W32207  15.865   2.558  14.885 -0.2537  0.2434  0.3491
16074W        W32208  12.331  13.253   2.800 -0.1266 -0.0006  0.1130
16075W        W32209  15.031   7.323  13.408 -0.0590 -0.2175  0.0813
16076W        W32210  16.658   0.748   1.496 -0.0842  0.4132 -0.2505
16077W        W32211   6.778  16.778   1.979 -0.2276  0.1824  0.2755
16078W        W32212   3.286  11.465   4.605 -0.0487 -0.0038 -0.0238
16079W        W32213  11.640  12.573   5.072 -0.1212 -0.1140 -0.0114
16080W        W32214  17.384  15.379   2.482  0.0058 -0.1914  0.0576
16081W        W32215   5.964  12.595  11.649 -0.3724  0.0728  0.1245
16082W        W32216   8.307   7.476   1.444  0.4288  0.0251 -0.1153
16083W        W32217   8.773  11.894   1.080 -0.0254  0.2224 -0.0315
16084W        W32218  14.185   0.298  10.813 -0.2621  0.1467 -0.1141
16085W        W32219  14.493   4.782   1.348 -0.0047  0.2071 -0.0885
16086W        W32220  15.310  14.119  13.844 -0.0101  0.1769 -0.2872
16087W        W32221  16.964   8.063   2.613  0.5106 -0.2071  0.1170
16088W        W32222   3.254   4.935   2.967  0.0258  0.3032 -0.2431
16089W        W32223   6.433  13.740  12.338  0.0890  0.1180 -0.1826
16090W        W32224   1.322   0.148   0.495 -0.0492 -0.2712 -0.0170
16091W        W32225   3.674   5.842   3.067  0.1129 -0.1205 -0.1546
16092W        W32226  15.789   3.522  13.053  0.0957  0.0217 -0.1069
16093W        W32227   6.962  17.218   0.729  0.3212  0.0184 -0.7000
16094W        W32228   6.739   6.694   2.371 -0.3244  0.1494  0.1214
16095W        W32229  17.325   6.275  14.633  0.2171 -0.3714 -0.3881
16096W        W32230  17.558   0.373   3.675  0.1351 -0.1142 -0.0533
16097W        W32231  18.946   1.039   3.075  0.4534  0.0320  0.1442
16098W        W32232  16.658  12.996  11.714  0.3096  0.4718 -0.0615
16099W        W32233   4.982   7.940   5.126 -0.0983  0.2523  0.1588
16100W        W32234   6.398   3.251   3.275  0.0420 -0.3199  0.3332
16101W        W32235  13.826   9.844   1.267 -0.0427  0.0489 -0.1785
16102W        W32236  11.850   3.563  13.066  0.2815  0.1835  0.1935
16103W        W32237  11.426   8.784   3.876 -0.1894 -0.2010  0.3867
16104W        W32238  12.363  10.996  12.007 -0.0462 -0.0880 -0.0023
16105W        W32239  14.818  12.653   0.306  0.1910  0.4814 -0.0447
16106W        W32240   4.445   8.138   0.842  0.2684  0.0240 -0.2519
16107W        W32241  15.634   8.939   5.341  0.2954 -0.0904  0.2175
16108W        W32242  18.095   1.529   0.702 -0.0967 -0.3331 -0.1965
16109W        W32243  11.518   8.804   3.345 -0.0619 -0.1663  0.0425
16110W        W32244  12.248   1.683   1.886 -0.4721  0.0331  0.0454
16111W        W32245   3.377   3.409  14.425  0.1197 -0.2050 -0.4503
16112W        W32246  12.204  10.373   1.000 -0.1474 -0.2662 -0.1371
16113W        W32247  19.149  18.778   4.276 -0.2875 -0.2914 -0.1278
16114W        W32248  10.752  16.472   3.305  0.1544  0.2870  0.2055
16115W        W32249   8.621   9.725   1.957 -0.1954  0.0827  0.0423
16116W        W32250   2.448  12.170   0.035  0.4915 -0.1289  0.3330
16117W        W32251  16.424   3.782   0.892  0.0578 -0.3426 -0.1338
16118W        W32252  14.729  10.350   5.766 -0.1920  0.1408 -0.1431
16119W        W32253  12.201   3.676  12.239 -0.2467 -0.3569 -0.1931
16120W        W32254   7.947   6.169   0.067 -0.0400  0.1386  0.1760
16121W        W32255  10.566  19.226  11.344  0.0295  0.0635 -0.2636
16122W        W32256   6.327   3.718  13.970 -0.0755 -0.3129 -0.0710
16123W        W32257   6.296  17.631   2.045 -0.0691 -0.1453 -0.1245
16124W        W32258   9.398  17.433   1.787  0.0282  0.1699 -0.0641
16125W        W32259   4.893   4.233   0.096 -0.0656 -0.0687  0.4508
16126W        W32260  11.875   7.312  14.437  0.1831 -0.2641 -0.0791
16127W        W32261  12.294  15.505   2.361 -0.0099  0.1153  0.1168
16128W        W32262  15.960   9.957   3.861  0.1579  0.0288 -0.4643
16129W        W32263   4.698   1.422   1.345  0.1298 -0.2020 -0.4744
16130W        W32264   3.482  17.960   1.295 -0.0432  0.2061  0.1483
16131W        W32265  16.502   3.513  10.958 -0.0657  0.1371 -0.2768
16132W        W32266   0.369  18.455   1.597  0.0293 -0.0483 -0.1807
16133W        W32267  10.166   1.638  12.582 -0.2651  0.0144 -0.1746
16134W        W32268   8.636  17.161   9.301  0.1178  0.3566  0.0166
16135W        W32269  19.090  15.447  11.516  0.0325  0.3274  0.0439
16136W        W32270   9.675   5.690  13.209  0.1795 -0.4757  0.0031
16137W        W32271  15.563   8.927  14.446 -0.0139  0.0801  0.4443
16138W        W32272  16.547   3.712   4.107 -0.0111 -0.0396  0.3733
16139W        W32273  17.797   1.523   2.836 -0.0761 -0.0831  0.0687
16140W        W32274  14.833   3.797  11.073 -0.1946 -0.3234  0.0890
16141W        W32275   6.246   2.043  13.353 -0.1304  0.1583 -0.0263
16142W        W32276   1.222   3.062  10.449 -0.1544  0.1321  0.0594
16143W        W32277   0.928  13.323   2.229 -0.0530  0.3014 -0.3149
16144W        W32278  16.710   1.314  14.810 -0.1409  0.4079  0.0878
16145W        W32279   4.882   5.453   0.088  0.1111  0.1595  0.1285
16146W        W32280   8.063  10.591  13.116  0.0332 -0.0869  0.0660
16147W        W32281  13.402   2.955   1.579 -0.2869 -0.0161 -0.1834
16148W        W32282  19.068   0.002  10.753  0.2768  0.0834  0.0875
16149W        W32283   1.570  18.684   4.751 -0.0828  0.0649  0.2389
16150W        W32284   7.281  18.823   3.780 -0.3308  0.0459 -0.0155
16151W        W32285   2.417  11.149   2.806  0.3366  0.3309 -0.0020
16152W        W32286   3.331   1.968  12.169  0.0774 -0.0484  0.1311
16153W        W32287   6.392  13.007  11.073  0.1295 -0.3786  0.1659
16154W        W32288   1.158  18.930   0.527  0.0875 -0.2429  0.2861
16155W        W32289   4.608  10.939   3.192 -0.1270  0.4728  0.1836
16156W        W32290   9.370  16.547   2.407  0.1757 -0.1081 -0.1282
16157W        W32291  19.240  14.147  14.754 -0.1414  0.1246 -0.0203
16158W        W32292   8.749   0.913   2.292 -0.1689  0.1482  0.0106
16159W        W32293   6.728   9.625   4.507 -0.5647 -0.0587  0.1349
16160W        W32294  12.574  12.414  10.564  0.0580 -0.0189  0.3371
16161W        W32295   4.084  17.045   2.211  0.2651 -0.2998 -0.2106
16162W        W32296   5.575   4.310  12.217 -0.2475 -0.1352  0.2339
16163W        W32297   8.268   8.943  14.393  0.1708  0.0906  0.1429
16164W        W32298  12.463  10.435   1.850 -0.4020  0.1361 -0.0371
16165W        W32299  16.129  13.293   0.657  0.2918 -0.1052  0.0380
16166W        W32300   4.563  18.509   3.908  0.3766  0.1747 -0.0091
16167W        W32301   3.598  13.675   3.031  0.2282  0.0888  0.3871
16168W        W32302  14.320   5.135  14.831 -0.0657  0.1270  0.1413
16169W        W32303   1.706   4.592  12.639  0.1491 -0.0942 -0.0565
16170W        W32304   6.365   5.239   2.092  0.1805 -0.0130 -0.0106
16171W        W32305   3.874   6.636   1.228  0.0179 -0.3721  0.0751
16172W        W32306  16.137  12.034  14.554 -0.0621  0.0012  0.0781
16173W        W32307  12.874  14.598   3.416 -0.3487  0.0681  0.2351
16174W        W32308  17.405   5.545   2.569 -0.0538 -0.1066 -0.1624
16175W        W32309  11.648   6.957   1.206  0.0368 -0.0061  0.1768
16176W        W32310   9.931  15.118  10.590  0.0410  0.0973 -0.3582
16177W        W32311   1.872  11.221  13.931  0.1244  0.0614  0.0805
16178W        W32312   5.021  16.866  10.575  0.1843  0.1840  0.3242
16179W        W32313  13.447   7.862   4.114  0.3118 -0.4809  0.1325
16180W        W32314   0.275   5.907  10.234 -0.0358 -0.1802  0.2211
16181W        W32315   7.613  14.826  13.712  0.2011  0.1308  0.1650
16182W        W32316   8.128   8.336   0.288  0.0395  0.0764 -0.1875
16183W        W32317   0.405   3.790  10.198 -0.3253 -0.1906  0.0584
16184W        W32318  17.918   8.305  13.946  0.0300 -0.2106  0.0567
16185W        W32319   8.858   9.731  13.035 -0.2739  0.0245  0.0782
16186W        W32320  12.110   5.291  14.221 -0.0227  0.0222 -0.0495
16187W        W32321   7.870  13.707   2.653 -0.2488  0.2118  0.0932
16188W        W32322   1.501   8.209  12.538  0.0301  0.0695  0.0440
16189W        W32323  17.288   8.110   4.612  0.1164 -0.2082  0.0095
16190W        W32324   4.036   9.414  12.653 -0.1410  0.0910  0.1228
16191W        W32325  12.154  18.562  13.742 -0.2360 -0.0813 -0.0133
16192W        W32326   4.014  16.247   1.921 -0.0667  0.1609 -0.1892
16193W        W32327   3.441   2.988  10.779  0.0795  0.2004  0.0634
16194W        W32328   9.977  16.057  12.774  0.0647 -0.1071 -0.4094
16195W        W32329  15.360   5.256  14.311  0.1682  0.2052  0.1933
16196W        W32330   1.862   9.997   2.376 -0.0292 -0.1023 -0.3079
16197W        W32331   8.030   8.784  12.397  0.3246  0.0799 -0.0558
16198W        W32332  16.129   3.923   2.449 -0.0023 -0.2633  0.0365
16199W        W32333  12.989  19.058   1.851  0.3104 -0.3279  0.1394
16200W        W32334   4.062   7.146  13.843 -0.0559  0.0846 -0.3006
16201W        W32335   2.753  12.527   3.030  0.0308 -0.2765  0.0676
16202W        W32336   5.847  17.207   3.186 -0.3027 -0.0116 -0.0119
16203W        W32337  16.860  16.789   2.080 -0.2731 -0.0422  0.0904
16204W        W32338   3.239   0.567   1.210  0.0725 -0.1953  0.1749
16205W        W32339  17.976   3.299  11.032  0.3056  0.1491  0.3332
16206W        W32340   8.948  12.448   0.986  0.2062 -0.0627  0.2868
16207W        W32341   7.320  16.567  13.245  0.6119 -0.1540 -0.0203
16208W        W32342   4.533  14.528   3.168  0.1493 -0.1183 -0.1240
16209W        W32343   1.166   2.264   0.466 -0.1430  0.0993 -0.0794
16210W        W32344  10.446   1.596   4.996  0.2935 -0.2023 -0.1670
16211W        W32345  10.269  10.489   1.016 -0.0695 -0.3811 -0.0653
16212W        W32346   8.530   6.459  14.818  0.1251  0.0788 -0.1606
16213W        W32347   3.461   2.047   1.352  0.0152 -0.5894 -0.1129
16214W        W32348   6.609  12.219   2.309 -0.3025 -0.1184 -0.1738
16215W        W32349   3.944   6.146  11.234 -0.0166  0.1368 -0.0125
16216W        W32350  18.078  15.875   3.667  0.5434  0.1695 -0.0852
16217W        W32351  11.119  16.192   3.528 -0.0021 -0.4015  0.1978
16218W        W32352   9.261  11.308  14.780 -0.0220 -0.1656 -0.2078
16219W        W32353   8.066   8.443   4.312 -0.0081 -0.1578  0.0075
16220W        W32354   5.379  12.099   4.312  0.1710 -0.0967 -0.0276
16221W        W32355  16.702   5.868  11.327 -0.0263 -0.1933 -0.2220
16222W        W32356  13.662   5.123  11.312 -0.2508 -0.0826 -0.0551
16223W        W32357   0.729  18.778   0.365  0.1405 -0.1034  0.1091
16224W        W32358  12.830  14.330  11.013 -0.3750  0.1305  0.3340
16225W        W32359  12.085   8.314   3.190  0.3675  0.0111  0.0009
16226W        W32360  10.461  18.103  10.364  0.1186  0.0441 -0.1996
16227W        W32361   0.549   8.120   3.434  0.0229 -0.3333 -0.1193
16228W        W32362  11.308   4.774   1.612  0.3208  0.1326  0.1543
16229W        W32363   6.780  14.351   3.147 -0.0043  0.4963 -0.0185
16230W        W32364   8.457  14.151   3.617 -0.2014  0.3250 -0.3929
16231W        W32365   9.637   5.259  14.078  0.1089  0.0230  0.1475
16232W        W32366  11.327  13.123  13.890  0.1944 -0.2025 -0.0410
16233W        W32367   0.939   2.176   2.868  0.0205 -0.1161 -0.2283
16234W        W32368  14.777  14.482  10.757  0.0915 -0.0669 -0.0868
16235W        W32369   9.513  18.288  14.230  0.2958  0.0928 -0.4082
16236W        W32370  19.167   0.084  11.245  0.2292  0.3632  0.1925
16237W        W32371   4.787  18.830  10.225  0.3811  0.4073 -0.0289
16238W        W32372  11.181  13.902   0.478  0.1689 -0.0270  0.1623
16239W        W32373   9.104   2.853   3.681  0.2456 -0.0548 -0.0082
16240W        W32374   3.544  11.434   9.835 -0.1525  0.1844  0.0374
16241W        W32375   9.366  16.357  14.546  0.1626 -0.3631 -0.2565
16242W        W32376   3.745  17.866  12.251  0.2983  0.2660 -0.0489
16243W        W32377   7.858  16.744   2.197  0.2964  0.0949 -0.0254
16244W        W32378  16.547  11.545   1.112  0.4229 -0.3435  0.0636
16245W        W32379   2.221  18.666  11.938  0.2364 -0.3199 -0.0565
16246W        W32380   4.236   1.892  13.019 -0.0474 -0.0274  0.2334
16247W        W32381   8.659   0.567  10.204  0.1555 -0.0971  0.0814
16248W        W32382   4.959   5.104   1.635  0.0119 -0.0401 -0.3015
16249W        W32383   7.150   9.805  14.854  0.0934  0.0290  0.3805
16250W        W32384  13.524  16.084  11.997  0.2937  0.0132 -0.1975
16251W        W32385  16.009   1.115   2.601  0.3222  0.1745  0.0394
16252W        W32386  18.473   9.782   0.338  0.2446  0.2783  0.0979
16253W        W32387  13.351  13.746  11.944  0.1107 -0.2184 -0.2186
16254W        W32388   7.369  10.128  11.926 -0.4396 -0.0086 -0.3754
16255W        W32389   2.039  14.473   2.599  0.3279 -0.2228  0.2029
16256W        W32390   8.221   8.450  11.505 -0.0531 -0.0504  0.1783
16257W        W32391   0.205  12.684   3.618 -0.1142 -0.2269  0.0318
16258W        W32392   2.726   2.494  10.963  0.1041 -0.1206 -0.0890
16259W        W32393   2.449   4.791   1.960  0.0602  0.2846  0.5037
16260W        W32394  17.139  13.711  10.066 -0.1926  0.1029  0.0694
16261W        W32395   5.870   2.079  10.958  0.1906 -0.2092 -0.3895
16262W        W32396  10.676   0.676   0.654 -0.1417 -0.1792 -0.0092
16263W        W32397  11.890   4.589   3.960 -0.4491  0.2415  0.1469
16264W        W32398   8.648   0.259   0.179  0.3057  0.3885 -0.0514
16265W        W32399  17.935   3.049  11.441 -0.4823 -0.1226 -0.0628
16266W        W32400  17.393  14.583   2.933  0.0040 -0.2650  0.2748
16267W        W32401   0.949  14.351   4.994  0.0149  0.2405 -0.0133
16268W        W32402   0.567  13.261   2.643  0.2231 -0.1815  0.1205
16269W        W32403   8.684   4.362  10.665 -0.1328  0.1677  0.1049
16270W        W32404   6.236   0.266  11.490 -0.0277  0.0924 -0.1045
16271W        W32405   4.276   5.045   3.490 -0.0353  0.1243  0.2965
16272W        W32406  16.813  17.436  11.167 -0.1858 -0.2801 -0.4160
16273W        W32407  10.920  12.368   4.573  0.1273 -0.0689  0.1208
16274W        W32408  14.799   6.649  10.022 -0.0259 -0.1362  0.1101
16275W        W32409   7.926   3.673  13.643  0.1682 -0.0524  0.0672
16276W        W32410  11.431  10.627   2.063 -0.1574  0.0696  0.1707
16277W        W32411  17.000  10.489   4.320  0.0809  0.5019  0.0238
16278W        W32412  13.648   4.623  10.473 -0.1404 -0.0974  0.2744
16279W        W32413  14.877   2.745   4.810 -0.2964  0.0605 -0.0924
16280W        W32414  12.057  13.974   2.330 -0.0281 -0.4022  0.1195
16281W        W32415   3.084   3.088   3.699  0.1034 -0.1760  0.2696
16282W        W32416   1.352  14.415   2.355  0.0455 -0.0566  0.1101
16283W        W32417  19.026  13.763   4.995 -0.0802 -0.0540 -0.1809
16284W        W32418   9.635   6.026  11.106 -0.0896  0.0358  0.1845
16285W        W32419   9.045   0.382   0.591  0.0023 -0.0002  0.1489
16286W        W32420   7.303   6.803   0.897  0.1422  0.1899 -0.3459
16287W        W32421   5.283   5.140  14.472  0.1741 -0.3057 -0.3007
16288W        W32422   6.368  17.322  11.120  0.0459  0.1648 -0.0624
16289W        W32423  11.475   3.880   3.263 -0.4395 -0.0130 -0.2228
16290W        W32424   5.550  12.771  11.460 -0.4403 -0.1827  0.3243
16291W        W32425  15.562   4.032   9.421 -0.1167 -0.1543 -0.1444
16292W        W32426  11.206  10.091   2.064  0.0905  0.1647  0.2296
16293W        W32427   5.056   3.574  14.076 -0.2289 -0.2471 -0.0079
16294W        W32428   4.509  18.159  14.274 -0.1077 -0.2571 -0.0046
16295W        W32429  12.544   0.551   5.033  0.1320 -0.1570 -0.0349
16296W        W32430  17.576  12.604  12.054  0.0956 -0.1957  0.1961
16297W        W32431   4.596   6.274   2.828 -0.1163 -0.1497  0.1624
16298W        W32432   3.853   6.933   1.995  0.3355 -0.1810  0.0932
16299W        W32433   5.501   8.698   5.052 -0.0534 -0.0934 -0.1679
16300W        W32434   7.974  17.474   2.930 -0.3989 -0.0957  0.2722
16301W        W32435  14.177   6.634  13.141  0.3225  0.3497  0.2170
16302W        W32436   5.461   1.438  14.093 -0.3399  0.4016  0.1006
16303W        W32437  16.986   9.223  11.564 -0.0016  0.2267  0.0989
16304W        W32438  17.704   1.449   4.542  0.0207 -0.0237  0.1387
16305W        W32439   8.626  12.011  10.403  0.0204  0.1535  0.2489
16306W        W32440  14.032   3.873   3.593 -0.2193  0.2370 -0.2375
16307W        W32441  17.857  10.756  11.815  0.3882  0.0847 -0.1819
16308W        W32442   0.465   5.019   2.784  0.6066 -0.1691 -0.1856
16309W        W32443  17.656  12.931   3.111  0.0973  0.3017  0.4010
16310W        W32444  12.277  17.470   3.585 -0.4469 -0.0963 -0.0045
16311W        W32445  19.083  17.541   0.904  0.0612 -0.0165  0.0446
16312W        W32446   2.126  17.959   3.695 -0.1139 -0.0859  0.0727
16313W        W32447  18.542  16.797  10.241 -0.2479 -0.1703 -0.1937
16314W        W32448   4.172   4.450  11.896 -0.3884  0.0249 -0.2754
16315W        W32449  15.717  10.483   4.720  0.2339 -0.1714 -0.1664
16316W        W32450   5.705   2.237  12.044  0.2638 -0.2721 -0.0673
16317W        W32451   5.239   6.010   0.886 -0.2073 -0.0144 -0.0183
16318W        W32452   0.158   0.411  10.927 -0.1092 -0.0261  0.2879
16319W        W32453   9.235   9.221  14.239 -0.0141 -0.4312 -0.1272
16320W        W32454  18.540  14.078   2.604  0.0625 -0.2125 -0.2634
16321W        W32455  14.394  11.510   1.530  0.1681 -0.0485  0.1773
16322W        W32456   5.323  13.218  14.059  0.2233  0.1467 -0.4604
16323W        W32457  18.960   9.694  14.141  0.3025  0.0532  0.2736
16324W        W32458   2.450   4.589   0.020 -0.2480 -0.0693 -0.0608
16325W        W32459   5.510   8.304   4.411 -0.2298 -0.0504  0.3081
16326W        W32460   3.743   5.036   1.988  0.0099 -0.2275 -0.0349
16327W        W32461   3.891  12.147  14.509 -0.0045 -0.0084  0.4081
16328W        W32462   1.570  17.403  11.510  0.2511  0.0364  0.0380
16329W        W32463   8.774   1.731   0.267  0.3627 -0.1695  0.0610
16330W        W32464   1.338  10.628   3.772 -0.4337 -0.1343  0.0805
16331W        W32465   6.727   6.207  13.849  0.1187 -0.1081 -0.0090
16332W        W32466   4.040   1.966   4.893 -0.2312 -0.0441 -0.3155
16333W        W32467   6.926   4.035  14.462 -0.1534 -0.0041 -0.2843
16334W        W32468  12.282   3.806   0.787 -0.2157 -0.0327 -0.0592
16335W        W32469  10.958  10.060   2.977  0.0671 -0.0564 -0.3198
16336W        W32470   7.222   4.869   2.186 -0.0891 -0.1446 -0.0933
16337W        W32471   5.316  13.695   2.108  0.1589 -0.5924  0.1705
16338W        W32472  12.013   9.494  12.037  0.0430  0.0062  0.1586
16339W        W32473   8.015   2.420  13.839  0.0462  0.4039  0.0090
16340W        W32474   4.685  10.597  12.414  0.0332 -0.0398  0.3933
16341W        W32475  12.634  14.838   1.011 -0.1471 -0.0999 -0.1280
16342W        W32476  13.734  15.793  13.571 -0.0725 -0.0552  0.0045
16343W        W32477   9.860  16.828   4.337 -0.1980 -0.1534 -0.2060
16344W        W32478   1.290   3.524   3.308 -0.0063 -0.0047 -0.0659
16345W        W32479   5.269   9.247   4.183 -0.1839 -0.0064  0.2276
16346W        W32480  13.564   3.221  10.655 -0.3180 -0.3089 -0.3026
16347W        W32481  12.421   8.862   4.106  0.0209  0.0315 -0.2490
16348W        W32482  10.289   0.441   2.899  0.0278 -0.0189  0.3064
16349W        W32483   8.507   2.513   3.140  0.2705 -0.1562 -0.2190
16350W        W32484  15.858  17.326  13.109 -0.3014  0.1280  0.0632
16351W        W32485  12.557  10.394  11.366  0.1606  0.2195 -0.2262
16352W        W32486   4.737   5.070   4.963 -0.3045 -0.1795  0.1075
16353W        W32487   0.281   1.404   2.462  0.1767  0.0429  0.1106
16354W        W32488   2.804   7.829  13.622  0.1688  0.1517  0.1481
16355W        W32489  17.243  11.834  10.543  0.1233  0.0012 -0.4814
16356W        W32490  17.131   7.292   0.695 -0.1475 -0.2515 -0.0467
16357W        W32491  14.406   3.474   4.453  0.2141 -0.0554  0.1674
16358W        W32492  14.375  11.317  12.807  0.1218 -0.2485  0.0086
16359W        W32493  10.055   1.411   2.775 -0.3134  0.1624 -0.2914
16360W        W32494   4.929  10.554   3.877 -0.1325 -0.0882 -0.1760
16361W        W32495   4.193  18.328   1.384  0.1617 -0.1784 -0.3486
16362W        W32496  11.848  13.582  13.366  0.1152  0.0700  0.0016
16363W        W32497  18.467   9.386   1.661  0.2422 -0.1359 -0.0912
16364W        W32498   6.045  14.283   3.612 -0.0350  0.1344  0.2357
16365W        W32499   6.510  10.282   2.200  0.0223 -0.0768  0.0816
16366W        W32500  12.320  10.514   5.683 -0.0767  0.0442  0.1703
16367W        W32501   8.118   0.837  14.300 -0.0833  0.1762  0.0773
16368W        W32502   1.278   6.824  10.607  0.1087  0.0901  0.2834
16369W        W32503  16.382  10.154  12.086 -0.3618  0.0120 -0.0716
16370W        W32504  18.166   5.418   0.418 -0.0895 -0.2851  0.2660
16371W        W32505   9.756  14.586  10.623 -0.0313 -0.1426  0.2720
16372W        W32506  17.337  11.443  12.338 -0.2692  0.1958 -0.0151
16373W        W32507  12.841  10.664  14.445  0.1201  0.1363  0.1588
16374W        W32508   9.222   8.820  14.618 -0.0340 -0.3442 -0.0053
16375W        W32509  13.689  10.052  14.939  0.1836 -0.1810 -0.2358
16376W        W32510  19.149  15.241   0.236  0.1116 -0.2028 -0.2364
16377W        W32511   9.045  12.330  13.347 -0.4800 -0.4175  0.0286
16378W        W32512   7.283  14.450  13.080 -0.0107  0.3926 -0.0844
16379W        W32513  12.515  18.284   2.348  0.0057 -0.0158  0.0658
16380W        W32514  19.027   8.292  10.857  0.0288 -0.0287  0.1262
16381W        W32515   3.588   7.519   2.816 -0.0142 -0.1129  0.0005
16382W        W32516  17.105   7.398  14.912 -0.0050  0.2739 -0.0032
16383W        W32517   1.136   5.145   1.196  0.1214  0.2424 -0.0222
16384W        W32518  19.009   0.273   5.362 -0.0074  0.2478 -0.1608
16385W        W32519   3.673  14.214  14.791 -0.0721 -0.0723  0.1521
16386W        W32520  14.459   3.993   1.639 -0.1486  0.2131  0.3391
16387W        W32521   9.013  17.202   2.017  0.4637  0.1844 -0.0223
16388W        W32522   0.485   2.102  11.869 -0.0973 -0.1093  0.0053
16389W        W32523   7.026  12.936   1.818 -0.1559  0.3627 -0.2685
16390W        W32524  18.041  17.744   0.537 -0.3664 -0.0463  0.1118
16391W        W32525   5.492   3.920   1.051  0.1193 -0.0805 -0.0893
16392W        W32526  13.536   2.721   2.580 -0.1531 -0.0839  0.1273
16393W        W32527  11.967  17.368   2.626  0.4221  0.2548  0.0496
16394W        W32528   0.754   2.873   2.236 -0.0878  0.3524  0.0157
16395W        W32529  12.030   4.311  12.550 -0.0040 -0.1471 -0.0191
16396W        W32530   5.921   1.323  14.176 -0.3173 -0.1324 -0.0860
16397W        W32531  10.366   2.611  12.422 -0.1854  0.0830 -0.1444
16398W        W32532   7.463   8.380   2.502  0.1005 -0.1496  0.1695
16399W        W32533   4.500   7.816   1.250  0.0433  0.0438 -0.0802
16400W        W32534   1.026   8.147   3.370 -0.0648  0.1721 -0.2144
16401W        W32535   2.155  11.880  12.756 -0.0724  0.2232  0.1504
16402W        W32536  11.648   4.502  12.100 -0.4377  0.0733  0.0074
16403W        W32537   3.574  12.755  10.063  0.3635  0.1755  0.2233
16404W        W32538   0.229   1.534   1.030 -0.3649 -0.0298  0.2418
16405W        W32539   0.920   5.554   0.204  0.2053  0.0263 -0.1637
16406W        W32540   0.699   7.255   3.987 -0.1356 -0.1010 -0.0605
16407W        W32541   4.401   7.625  11.615 -0.0690  0.1120  0.0181
16408W        W32542   6.762  15.425  13.685 -0.0203  0.0049  0.1136
16409W        W32543   7.349  11.217  12.808 -0.0083  0.1293 -0.2365
16410W        W32544   9.524  13.459  12.533  0.0976  0.0875  0.1330
16411W        W32545  14.040   2.004  12.469  0.0174 -0.1618  0.2975
16412W        W32546   4.333   1.633   4.638  0.3064 -0.1127  0.0263
16413W        W32547  12.228  18.926  14.916 -0.0371  0.0174 -0.1519
16414W        W32548  18.405  14.377  14.928  0.0919 -0.1039  0.3497
16415W        W32549   9.025  16.627  14.890  0.1357  0.1172 -0.1193
16416W        W32550   2.568   7.918   4.514 -0.0094 -0.1875  0.2097
16417W        W32551   1.603   5.238  11.981  0.0405 -0.1687 -0.1172
16418W        W32552   4.308  13.671   2.557 -0.0558 -0.1371  0.1824
16419W        W32553   3.197   4.332  12.145  0.2258  0.0796 -0.0343
16420W        W32554   8.594  10.949   1.250  0.0288  0.0616 -0.0738
16421W        W32555  12.749  15.422  11.731  0.1193  0.1555  0.0105
16422W        W32556   0.900   7.146  11.239  0.3043 -0.1471 -0.1832
16423W        W32557  13.976   9.621  15.024 -0.0204 -0.1785 -0.1816
16424W        W32558   8.847   6.276   0.947  0.1654  0.3682  0.2337
16425W        W32559   6.555   6.241   0.173  0.1147 -0.1033  0.0674
16426W        W32560   6.997   6.315  13.358  0.1257 -0.1694  0.2454
16427W        W32561   3.075   5.609  11.342  0.0691  0.0725  0.1995
16428W        W32562   8.606   5.820   0.801  0.1402  0.0294 -0.0865
16429W        W32563  16.800  13.423   2.185 -0.0741  0.2394 -0.1881
16430W        W32564  16.102   6.708   0.814 -0.2802  0.2216  0.1044
16431W        W32565  12.886  12.158   5.216  0.0750 -0.0857  0.0977
16432W        W32566   8.274  15.140  13.118 -0.0959 -0.0753 -0.0238
16433W        W32567  10.235   6.056  11.017  0.0850 -0.2049 -0.0895
16434W        W32568   6.888   3.293   0.142 -0.0445 -0.0547 -0.0141
16435W        W32569  18.697   2.504  10.921  0.1535 -0.1350 -0.0529
16436W        W32570  14.851  12.598   4.870  0.1381 -0.2997 -0.4044
16437W        W32571   0.003   2.715  13.890  0.0066 -0.1060  0.6033
16438W        W32572   1.527  10.767   0.912  0.0987  0.1652  0.0627
16439W        W32573   0.285  16.199  11.859  0.1496  0.1257 -0.0645
16440W        W32574  11.295  12.773  14.295  0.0666 -0.0698  0.0450
16441W        W32575  10.474   0.361   0.978  0.5440  0.1873 -0.1593
16442W        W32576   3.818   7.260  10.691  0.5025  0.2833  0.0856
16443W        W32577   9.103   2.397   3.824 -0.0343 -0.0437  0.2117
16444W        W32578  14.528   5.853  12.809  0.0680  0.0037 -0.0286
16445W        W32579   2.789   9.366   3.190  0.1716  0.1571  0.2079
16446W        W32580  17.299   8.897  13.617  0.0475 -0.0375 -0.1072
16447W        W32581   2.290   0.322  12.747 -0.0789 -0.2425 -0.0079
16448W        W32582   7.678   8.687   3.437  0.0112 -0.1878 -0.2484
16449W        W32583   0.843   5.528   4.079 -0.1866 -0.2886  0.0583
16450W        W32584   4.994   5.651  12.781  0.0942 -0.1374  0.1441
16451W        W32585  12.418  16.885  13.288  0.1490 -0.0207  0.0894
16452W        W32586  12.675   9.231   0.349 -0.1332 -0.2416  0.2425
16453W        W32587  14.799   0.474  13.627  0.2999  0.0681 -0.0961
16454W        W32588  14.142  18.212  11.642 -0.3722  0.3059  0.2329
16455W        W32589   4.231   4.988  11.760  0.1835  0.1003 -0.0626
16456W        W32590  10.975   6.354  14.207  0.2849  0.0678 -0.0157
16457W        W32591   8.599   9.791   0.204  0.0360 -0.0748 -0.0148
16458W        W32592  16.574  18.318   1.977  0.1184 -0.0189 -0.1350
16459W        W32593   0.154  12.793   1.374  0.2776  0.3569 -0.1322
16460W        W32594  15.353  10.726   5.705  0.0273  0.0440 -0.0158
16461W        W32595   3.510   5.033   1.499 -0.0392  0.1663 -0.1159
16462W        W32596   1.391  18.242   2.910  0.0778  0.3252  0.2837
16463W        W32597   3.441   7.480   0.193  0.1022 -0.0131  0.1127
16464W        W32598  16.671   2.940  11.559 -0.0169 -0.0204  0.1068
16465W        W32599   9.741   1.174  10.684 -0.2782  0.2102 -0.0777
16466W        W32600   2.930  13.438  12.764  0.1127 -0.1895  0.4172
16467W        W32601   2.730   5.745  11.695 -0.3671  0.0605 -0.0356
16468W        W32602   7.717  10.798   1.500 -0.1817  0.2446 -0.0838
16469W        W32603  10.644   8.827   0.317  0.0192  0.1908 -0.0638
16470W        W32604   2.525  11.455  12.885 -0.0972  0.0989 -0.1753
16471W        W32605   2.030  18.767   4.992  0.2167 -0.0143 -0.0227
16472W        W32606  13.229  11.415   0.975 -0.0025  0.0085 -0.0981
16473W        W32607   1.867  13.667  10.410  0.0375  0.4074 -0.2862
16474W        W32608   5.656   3.199   2.857 -0.0900  0.0274  0.2198
16475W        W32609   2.730   5.707  12.489 -0.0336 -0.4480  0.0503
16476W        W32610   2.189   8.221   4.310  0.2618 -0.1383  0.0818
16477W        W32611  12.293  17.928   1.446 -0.1013 -0.0652  0.1198
16478W        W32612   8.704   9.151  10.782  0.2451 -0.1071  0.0844
16479W        W32613  17.132   2.049   0.352  0.0314  0.0210 -0.1686
16480W        W32614  14.806  10.661   0.157 -0.0594  0.0494 -0.0070
16481W        W32615  10.851   8.589  12.407 -0.1146  0.0660  0.1361
16482W        W32616  13.562  13.369   9.801 -0.1983  0.3604  0.0093
16483W        W32617  17.383   7.298   4.213  0.2195 -0.2632 -0.3685
16484W        W32618   6.317  11.381  10.758  0.0586 -0.0832  0.4717
16485W        W32619  15.572  15.584  12.399  0.0715 -0.0899 -0.0808
16486W        W32620  14.051  12.731   3.539 -0.2100 -0.3473  0.2562
16487W        W32621   9.892  14.028   5.396  0.0279 -0.0986  0.0289
16488W        W32622  15.418  16.959   2.676  0.2271 -0.0064  0.5014
16489W        W32623   3.351  15.236   1.450  0.0699  0.3011 -0.0000
16490W        W32624   2.167   6.591   4.705 -0.1724  0.0480  0.2660
16491W        W32625  18.668  13.658   0.338  0.1998  0.1748 -0.5638
16492W        W32626   0.782  10.474  12.544 -0.1859  0.0753  0.2478
16493W        W32627  19.113   7.794   1.246  0.0744 -0.2062 -0.2209
16494W        W32628  14.788  10.222   5.196  0.3211  0.2485 -0.1141
16495W        W32629  18.133  17.007   3.084 -0.0208 -0.0458  0.3158
16496W        W32630   0.608  15.695  13.381  0.1055 -0.2940  0.1821
16497W        W32631  11.267  12.148  13.119  0.1238 -0.2509 -0.0543
16498W        W32632   8.802  17.470   4.609  0.1684  0.1000  0.1042
16499W        W32633  10.000  11.493  10.483 -0.1898  0.0935  0.0007
16500W        W32634   7.005  19.197   1.584 -0.1886 -0.0537 -0.1407
16501W        W32635   4.480  13.087  12.894  0.3133 -0.4585  0.1029
16502W        W32636   1.818   0.448   3.445  0.2501 -0.2813 -0.5161
16503W        W32637   4.299   9.646  10.186 -0.1407  0.0012 -0.0947
16504W        W32638   1.941   4.198   4.505  0.1021 -0.3259  0.0890
16505W        W32639  15.162   0.770   4.166 -0.1830 -0.0271 -0.1924
16506W        W32640   3.387  14.730   4.893 -0.0509 -0.0875  0.2451
16507W        W32641  17.482   3.948   2.414  0.1070 -0.0200 -0.0288
16508W        W32642   0.353   9.925   0.943 -0.1306  0.0488  0.3964
16509W        W32643   5.442  12.287   1.544 -0.1321 -0.0020  0.1717
16510W        W32644  13.938   2.096   4.202 -0.2638 -0.0028  0.1452
16511W        W32645  13.057  14.679  14.010 -0.2077  0.4268  0.1052
16512W        W32646   1.772   7.689  13.735 -0.1099 -0.1367 -0.1433
16513W        W32647   8.015  17.838  12.138  0.5779 -0.0661 -0.2453
16514W        W32648  12.759   5.623   0.470 -0.3552  0.1260 -0.1753
16515W        W32649   3.896   4.386   3.968 -0.3053 -0.2703  0.0569
16516W        W32650  11.001   4.629   1.167  0.1843 -0.3741  0.2530
16517W        W32651  16.506   7.452   9.906 -0.3709 -0.1726 -0.1044
16518W        W32652  13.602   6.965   4.453 -0.3146 -0.1218 -0.3275
16519W        W32653   1.131   4.962   2.361  0.0045  0.3507 -0.0975
16520W        W32654   6.584  10.565  12.162  0.0236 -0.1277 -0.0917
16521W        W32655  11.356  15.279   3.151  0.2703 -0.2845  0.0229
16522W        W32656  11.595  12.676  13.861 -0.0883 -0.0244 -0.1694
16523W        W32657  12.311  14.860   1.426 -0.3991 -0.1478  0.2315
16524W        W32658   4.527   6.953  13.740 -0.2028  0.0117 -0.1866
16525W        W32659  17.318  15.644   0.651  0.2395  0.0716  0.1548
16526W        W32660  16.551  16.655  12.114 -0.0041  0.0284  0.3037
16527W        W32661   5.151  18.142  10.440 -0.0375 -0.0444 -0.0018
16528W        W32662  11.350   6.616  13.955  0.2828  0.1597 -0.1441
16529W        W32663  15.983   7.205  10.774 -0.0434  0.0773  0.3500
16530W        W32664   4.751   6.140  12.143 -0.0465 -0.1262 -0.4500
16531W        W32665  16.063   2.846  13.547 -0.0925  0.0926  0.1271
16532W        W32666   7.155   4.399  10.862  0.0695 -0.2755 -0.1112
16533W        W32667   4.676  15.068  14.719 -0.2366 -0.0433  0.0868
16534W        W32668  10.300   2.892   2.460  0.5517 -0.1585 -0.1047
16535W        W32669   5.224   2.176   0.428 -0.4873  0.3246 -0.1639
16536W        W32670   6.611  14.891   0.109 -0.1912 -0.1226  0.0080
16537W        W32671  18.251   2.777  12.567 -0.3319  0.0510  0.0693
16538W        W32672  17.328   1.075  12.549  0.0182 -0.1559 -0.2429
16539W        W32673  13.680  17.695   4.772 -0.1912 -0.0731 -0.0988
16540W        W32674   1.071  10.617   1.853 -0.5065  0.3131  0.0367
16541W        W32675   9.993   1.526  11.657  0.1987 -0.1904  0.2202
16542W        W32676   8.511  18.596   0.323 -0.0320  0.0571  0.0013
16543W        W32677  15.267   6.693   1.757  0.2259  0.1232 -0.2904
16544W        W32678   9.433  14.098  14.419 -0.0335 -0.0799  0.1008
16545W        W32679   4.838   3.765   4.077  0.0645 -0.0943 -0.0253
16546W        W32680   4.376  16.695   0.491  0.4406  0.0888  0.0294
16547W        W32681   6.436   8.339   1.879  0.1444 -0.0246 -0.0207
16548W        W32682   8.517   9.076   4.381  0.0862 -0.2386  0.1022
16549W        W32683   5.909  11.795   4.491 -0.1173  0.5783 -0.1387
16550W        W32684  16.488  18.848  11.764  0.1410 -0.2297  0.1107
16551W        W32685  18.870   5.272  13.344 -0.2573 -0.1105  0.0671
16552W        W32686   7.224  13.669   1.180  0.0036 -0.0976  0.0645
16553W        W32687   9.679   1.127   5.014 -0.3129  0.6380 -0.0632
16554W        W32688  14.499  13.163  11.455  0.1307 -0.1638 -0.0142
16555W        W32689   1.740   6.032  12.789  0.0487  0.2146 -0.0098
16556W        W32690  18.604  17.488  10.806 -0.0910 -0.1332 -0.3131
16557W        W32691  15.451   9.191   1.176 -0.1041 -0.2600 -0.1686
16558W        W32692  11.529   8.259  11.287  0.0954  0.0748  0.0292
16559W        W32693   3.984   0.499   2.921 -0.2033 -0.1105  0.0714
16560W        W32694  16.610  17.825   3.477 -0.0467  0.1221  0.0527
16561W        W32695   0.012  10.302  10.603 -0.1713 -0.2274 -0.2227
16562W        W32696   9.692   5.057  10.106  0.3573 -0.2031  0.1073
16563W        W32697  15.224  14.481  14.123 -0.0745 -0.1364  0.0902
16564W        W32698  12.526   4.851  13.205  0.1387  0.0589  0.1208
16565W        W32699  17.584  10.191  12.300  0.4780  0.0128  0.1044
16566W        W32700  15.798  18.685   9.629  0.0256  0.2193  0.0208
16567W        W32701  11.722  12.126   1.971 -0.0343  0.0083 -0.0280
16568W        W32702   9.656  11.660   4.117 -0.2805  0.1912 -0.0187
16569W        W32703   4.737   4.411   0.523  0.1678  0.1365  0.4219
16570W        W32704   5.310  10.826  11.658 -0.0418 -0.0497 -0.0958
16571W        W32705  12.783   9.650  10.787  0.0662 -0.1948 -0.4083
16572W        W32706  10.527  11.259  14.111 -0.1684  0.1467 -0.0513
16573W        W32707   3.172  10.542  10.935  0.1067  0.2510  0.1969
16574W        W32708  14.596   3.395   2.189 -0.3124 -0.2641 -0.0974
16575W        W32709  10.276   1.986   9.320  0.1026 -0.1639  0.0250
16576W        W32710  14.183  17.252   2.457 -0.0658 -0.0574  0.0595
16577W        W32711   6.840  17.499   4.945  0.0048  0.0531 -0.0979
16578W        W32712   0.479  10.146  12.340 -0.1269 -0.0637  0.0065
16579W        W32713  12.493   7.410  10.047  0.2503  0.0082  0.3911
16580W        W32714   8.775  16.326  11.466  0.2872  0.0925  0.0654
16581W        W32715   4.805   3.490   3.188  0.1951 -0.2763  0.2838
16582W        W32716  10.447  13.747  13.244  0.2129  0.3227  0.0869
16583W        W32717   5.995  11.263   0.930  0.0403 -0.3232  0.0074
16584W        W32718   7.072  11.084   3.448 -0.3205  0.2632 -0.2320
16585W        W32719   0.424  12.656  13.320 -0.0549 -0.1934 -0.0546
16586W        W32720   5.168   9.172   2.482  0.1956 -0.2229 -0.2409
16587W        W32721  11.619  19.039   1.410  0.0137 -0.1481 -0.0642
16588W        W32722   2.985   8.020   5.494  0.1738 -0.0299 -0.1955
16589W        W32723  10.255   5.985   2.532 -0.2727  0.0615  0.1265
16590W        W32724   3.355   2.136  14.117 -0.1101 -0.1163 -0.1735
16591W        W32725   6.721  11.521  15.006  0.2677  0.3040 -0.2927
16592W        W32726   9.701  13.232  13.374  0.2075  0.1149  0.3278
16593W        W32727   7.408  16.689   1.410 -0.1853  0.1654 -0.0120
16594W        W32728   9.968   6.181   3.682  0.1694  0.0236 -0.0363
16595W        W32729  16.911   4.816   4.024 -0.0539  0.0015 -0.0937
16596W        W32730  15.420  17.621   4.217 -0.0431  0.0087 -0.2138
16597W        W32731   2.901  13.126  13.585  0.0427 -0.0594 -0.0680
16598W        W32732   5.490  16.302  11.456 -0.2325 -0.0105  0.0216
16599W        W32733  10.788  12.262  13.638  0.0954  0.0380  0.3301
16600W        W32734   8.752   7.329  14.346 -0.1417 -0.4289  0.1965
16601W        W32735   0.004  13.141   0.897 -0.1558  0.4129 -0.1233
16602W        W32736  14.921   3.732  14.975 -0.3776 -0.0970 -0.1255
16603W        W32737  10.302   0.909   0.409  0.1079 -0.1044  0.0272
16604W        W32738  11.066  10.915   4.640  0.3633 -0.1872  0.1293
16605W        W32739   6.011  18.329   4.962  0.0464 -0.0416  0.1836
16606W        W32740  11.595   5.165  10.400 -0.2030  0.2884  0.3119
16607W        W32741  13.137   6.244   4.650 -0.0032  0.1118  0.1169
16608W        W32742   6.681   3.341   0.574  0.3854  0.0734 -0.0528
16609W        W32743   9.600   7.835  13.590 -0.0325 -0.2794 -0.0941
16610W        W32744   3.797   8.079   0.053  0.0946  0.0693  0.1065
16611W        W32745  17.037  14.060  10.934 -0.1982 -0.3710 -0.1863
16612W        W32746   4.353   0.453   1.667 -0.2321 -0.4050 -0.1013
16613W        W32747  17.320   1.961  14.640  0.0831 -0.1676  0.1862
16614W        W32748   6.511  13.133   2.636  0.1795  0.0120  0.5323
16615W        W32749   4.352  14.563  11.501  0.0971 -0.0723  0.1457
16616W        W32750  16.425   2.811  14.475 -0.2038  0.4074  0.3847
16617W        W32751  10.624  10.627  14.893 -0.2097  0.5323  0.3726
16618W        W32752  18.500   6.658  11.149 -0.3051  0.1643  0.2142
16619W        W32753  14.556  15.066   4.728 -0.0388  0.2405  0.1059
16620W        W32754   7.138  16.744   4.218  0.0460 -0.1640  0.1916
16621W        W32755  10.408  18.993   2.051  0.0132  0.2322 -0.1309
16622W        W32756  18.766  13.522   4.227 -0.1021 -0.4107 -0.0345
16623W        W32757  13.246  16.522  13.550  0.2466  0.1259 -0.2865
16624W        W32758   2.195   9.997  12.504  0.0792 -0.2161  0.2492
16625W        W32759   2.184   5.563   3.388 -0.3181 -0.0047 -0.2465
16626W        W32760  17.868   5.160  12.774  0.2432  0.2736 -0.0417
16627W        W32761  10.790  16.564   4.299  0.1537  0.0561  0.2239
16628W        W32762  16.544  10.050  13.933 -0.0066 -0.1159  0.2117
16629W        W32763  18.306  10.417  11.959 -0.0716  0.0038 -0.1552
16630W        W32764   4.203  17.902   3.055 -0.1585 -0.1805  0.0354
16631W        W32765   7.449  17.009   2.147 -0.1226  0.1061  0.2615
16632W        W32766  15.815  17.456   2.483  0.0487 -0.2255 -0.4451
16633W        W32767   5.370   8.451  13.877  0.0008  0.2974 -0.1516
16634W        W32768   2.556  12.445   2.026 -0.2640 -0.2068  0.1149
16635W        W32769  11.989  13.375  12.895  0.0059 -0.2007  0.2342
16636W        W32770  18.356   8.489   3.221 -0.3162  0.1654 -0.0619
16637W        W32771  14.613   6.116  10.761  0.0726  0.1819  0.0364
16638W        W32772   4.745  17.027  11.465 -0.0930  0.0781 -0.3318
16639W        W32773   7.681   7.993   2.767 -0.2029 -0.3499  0.0822
16640W        W32774  11.724   4.246  13.344 -0.0166 -0.0935 -0.0834
16641W        W32775  14.165  18.122   3.485  0.0005 -0.2693  0.0117
16642W        W32776   1.342  15.442   0.724 -0.2586 -0.0455  0.1843
16643W        W32777   1.366  12.921   3.788 -0.2595  0.3832  0.0372
16644W        W32778   0.897   1.620   3.550  0.4507  0.0072 -0.1772
16645W        W32779  10.791  11.478   3.436  0.3146  0.0801 -0.2308
16646W        W32780  15.927   9.243   5.086  0.0349  0.1358  0.0888
16647W        W32781   1.743  14.994  14.170  0.1471 -0.0697 -0.4722
16648W        W32782   9.686  10.299  12.463  0.1541  0.2376 -0.0500
16649W        W32783   3.469  15.186   0.038 -0.2283 -0.1116  0.1392
16650W        W32784   8.568   7.910   1.623  0.1354  0.2366  0.0411
16651W        W32785  11.964  10.352   9.762 -0.1950  0.1495 -0.2719
16652W        W32786  11.564   6.827  12.629  0.0762  0.1813 -0.2583
16653W        W32787  11.904   2.138   4.062 -0.0134 -0.1399 -0.0136
16654W        W32788   0.757   4.370   4.000  0.0780  0.2598  0.0151
16655W        W32789  18.401   2.308   3.206 -0.1035 -0.1429 -0.0393
16656W        W32790  11.994  12.269   2.699 -0.1883 -0.0655 -0.1571
16657W        W32791  14.956   2.832   2.971  0.1406  0.1067  0.0347
16658W        W32792   1.602  15.752   2.050  0.0507 -0.2500 -0.0515
16659W        W32793   5.102  12.778   5.792 -0.1412  0.0340 -0.4675
16660W        W32794   0.764   5.815   1.721  0.1056 -0.3015 -0.0886
16661W        W32795  18.333   9.495  14.941  0.1352 -0.1424  0.1261
16662W        W32796  10.441  18.534  12.240 -0.0983 -0.3381  0.0134
16663W        W32797  18.178  14.180  10.671 -0.1782 -0.3968  0.0374
16664W        W32798   5.934   4.597  10.018  0.2894  0.1303  0.1940
16665W        W32799  14.056  11.822   2.388 -0.0171  0.4653 -0.0478
16666W        W32800   8.865   7.616  11.655  0.3519  0.0213 -0.0506
16667W        W32801  16.291  17.478   2.297 -0.0842 -0.1865 -0.0077
16668W        W32802  18.624   3.712   1.294 -0.2665  0.3415  0.2503
16669W        W32803  12.672  10.935  12.460 -0.1609  0.1788  0.2501
16670W        W32804   9.819   6.263  14.985 -0.0244 -0.1972  0.0150
16671W        W32805   4.131  11.251   0.405 -0.0551 -0.1771 -0.3052
16672W        W32806   0.274   2.571   0.998 -0.0476  0.0848  0.0160
16673W        W32807   4.917   7.643  14.415  0.2744 -0.1112  0.0094
16674W        W32808  11.903   0.220   4.454 -0.2782 -0.2031 -0.0416
16675W        W32809  12.664   4.400  10.817 -0.0026 -0.0421 -0.2485
16676W        W32810   4.264  13.577  10.580  0.0647  0.1860  0.0919
16677W        W32811   3.025   5.278  12.493  0.0965 -0.4229 -0.2938
16678W        W32812   6.117   9.831  10.783  0.0313 -0.0164  0.0110
16679W        W32813   5.410  17.896  11.471 -0.2436  0.1505  0.0391
16680W        W32814   1.308   0.858   4.778 -0.0614 -0.2513 -0.3622
16681W        W32815   2.910   8.508  13.039 -0.0981  0.1260 -0.0071
16682W        W32816  15.450  18.625   0.613 -0.0121 -0.0445  0.2835
16683W        W32817   5.782   4.337   1.357  0.1074 -0.1958 -0.1601
16684W        W32818   2.642   5.896   1.587 -0.0789 -0.1661 -0.0344
16685W        W32819   2.182   9.823  14.150 -0.1024  0.3303 -0.0697
16686W        W32820   4.942   4.097   9.376  0.0227  0.1360 -0.2838
16687W        W32821   6.526   7.713  10.742  0.3444  0.1195  0.1755
16688W        W32822  17.052  11.700   1.822  0.1420 -0.0861  0.0938
16689W        W32823   8.572   7.215   4.216  0.0486  0.2551 -0.1145
16690W        W32824   9.335  16.236   3.339  0.2643  0.0104 -0.2899
16691W        W32825  15.110  13.660   5.280 -0.2436 -0.1388  0.1909
16692W        W32826   1.549   9.735  11.398  0.0592  0.0790  0.0356
16693W        W32827   6.951   2.562   3.137 -0.0808 -0.1623  0.1329
16694W        W32828  14.203  13.369   3.568 -0.0778 -0.1991 -0.2813
16695W        W32829  14.451   5.335   3.321 -0.1754 -0.3923  0.1539
16696W        W32830  15.192  16.075   0.450 -0.5373  0.2428  0.3637
16697W        W32831  11.982  16.157   0.108 -0.1294  0.0382  0.1768
16698W        W32832  12.429  11.293   3.402  0.3565 -0.0460  0.3257
16699W        W32833   4.419  13.930  11.366 -0.0499  0.2961  0.0550
16700W        W32834   8.915   7.924   2.513  0.0422  0.0295 -0.2036
16701W        W32835  12.144  16.465   4.291  0.2366  0.0079  0.0826
16702W        W32836  12.639   3.205   2.487 -0.1619 -0.3015 -0.0500
16703W        W32837   0.816   6.044  15.000 -0.0161  0.1532  0.0702
16704W        W32838  16.862  11.353  11.386  0.1300 -0.0609  0.0129
16705W        W32839  12.449   8.777   4.861 -0.1150 -0.3824 -0.2151
16706W        W32840  15.153   0.520   3.214 -0.4920 -0.0641 -0.1117
16707W        W32841  13.780  14.871   4.298 -0.0850 -0.3703  0.1652
16708W        W32842  18.994  16.192   4.343 -0.0731  0.0400 -0.0073
16709W        W32843   4.561  13.223  12.040 -0.0445  0.2250  0.1089
16710W        W32844   9.779  18.347   9.374 -0.0769  0.0167 -0.1843
16711W        W32845   1.108  10.164   0.533 -0.2656  0.0257  0.0142
16712W        W32846   8.529  17.585  12.236  0.0837 -0.0255  0.4240
16713W        W32847   7.901   4.379  11.844 -0.0509 -0.0519  0.1895
16714W        W32848   8.970   8.591   3.453  0.1435  0.2636  0.0116
16715W        W32849  13.180  14.734  12.782 -0.0335  0.0914  0.2401
16716W        W32850   2.619  16.495   2.340  0.1236  0.2056  0.0162
16717W        W32851   0.140  16.892   2.846  0.1298  0.1545  0.3235
16718W        W32852   0.183   9.517  10.399 -0.0604  0.0178 -0.3216
16719W        W32853  17.853  13.090   1.240  0.1654  0.3468 -0.0463
16720W        W32854   6.671   3.415  11.957  0.0336 -0.1963  0.1550
16721W        W32855  18.153  14.858   0.515  0.1430 -0.0907 -0.0378
16722W        W32856  16.323  10.845   1.857 -0.1550 -0.0227  0.0030
16723W        W32857  16.986  13.905  14.045  0.1950 -0.2053  0.3199
16724W        W32858   8.473  18.076  12.062 -0.0040  0.4366 -0.1713
16725W        W32859   7.540   3.531  12.148 -0.0237 -0.0670  0.1207
16726W        W32860   2.979   5.153  11.648  0.1705  0.0651 -0.0240
16727W        W32861   9.359  16.258   5.753  0.0204 -0.1455  0.1091
16728W        W32862   7.678  17.217   0.240  0.0419  0.2721 -0.0839
16729W        W32863   7.979  12.273  13.059 -0.0223  0.1137  0.2609
16730W        W32864  10.267   2.997  10.843  0.3374 -0.0755  0.0313
16731W        W32865  15.080   2.449  12.331 -0.1380  0.1517 -0.1435
16732W        W32866   3.089   8.818  14.346  0.2430  0.2013 -0.1224
16733W        W32867   4.371   0.931   4.018  0.2397 -0.0552 -0.1945
16734W        W32868   8.125   8.977  14.937  0.1943  0.0756 -0.0199
16735W        W32869  16.073  11.671  10.739 -0.2044 -0.1461  0.1345
16736W        W32870   3.565   8.204  12.588  0.1686  0.0062 -0.0445
16737W        W32871   5.978  16.957   0.090 -0.0719 -0.1345 -0.4848
16738W        W32872  19.236   4.116   4.309 -0.1644 -0.0363 -0.3689
16739W        W32873  11.294  17.030   2.857 -0.2185 -0.1741 -0.2938
16740W        W32874  16.911  17.660   4.859  0.0427 -0.0929 -0.0119
16741W        W32875   7.543   5.354   3.016 -0.0183  0.1612 -0.0564
16742W        W32876   5.908  16.825   1.923 -0.1185 -0.1245  0.1367
16743W        W32877  17.326  16.122   2.651 -0.1914 -0.4043  0.2577
16744W        W32878  18.426   7.773   1.897 -0.0450 -0.3061  0.1921
16745W        W32879   4.616  10.874   2.660  0.0231  0.1321 -0.2104
16746W        W32880  10.947   4.191   5.012 -0.0350  0.1386  0.0663
16747W        W32881  12.800  15.928   4.870  0.0928  0.2418  0.0659
16748W        W32882   4.845   0.426  12.094  0.2745  0.2677  0.1285
16749W        W32883   9.869   1.913  11.295  0.0268 -0.0996  0.4061
16750W        W32884  14.629   9.329   0.652 -0.1726 -0.1684  0.1905
16751W        W32885   9.725  12.494   3.496  0.0595 -0.1261  0.0717
16752W        W32886  12.745   8.903  11.380  0.0845 -0.0169  0.1147
16753W        W32887  18.314  18.865   1.931  0.0522  0.3606 -0.2559
16754W        W32888  11.557   2.496   0.868  0.1002 -0.0312  0.0286
16755W        W32889   1.095   9.110   3.007  0.2051  0.1827 -0.0239
16756W        W32890  11.225  11.355  14.928  0.5722 -0.0823 -0.0768
16757W        W32891   4.738  17.279  12.633 -0.4982 -0.0223 -0.1128
16758W        W32892  18.948   7.313   0.275  0.0315  0.3149 -0.1501
16759W        W32893  16.614   3.429  14.663 -0.1325  0.0571 -0.0029
16760W        W32894  13.870  14.431   3.527  0.1424 -0.0771  0.0434
16761W        W32895   6.483  13.745  13.222  0.0887 -0.0268  0.2189
16762W        W32896  14.892   1.449  11.624 -0.1962 -0.0943  0.1826
16763W        W32897   3.587  13.182  11.697  0.2287 -0.0120 -0.1528
16764W        W32898  12.776  17.586   2.649 -0.1145 -0.2740  0.0412
16765W        W32899   6.744  17.585  10.848 -0.0957  0.0641 -0.2411
16766W        W32900   2.761  10.401  14.552 -0.0891 -0.0880  0.2787
16767W        W32901   4.157  11.892   9.569  0.1790  0.1091 -0.1903
16768W        W32902   1.065  12.791   5.214  0.1443 -0.1101 -0.0020
16769W        W32903  17.512  17.953   3.900 -0.3700  0.0246 -0.0664
16770W        W32904   4.844  13.727  11.498 -0.1207  0.3228 -0.1329
16771W        W32905   9.496  14.927   2.088  0.0889 -0.1925  0.0986
16772W        W32906  17.576  16.610  10.546  0.1208 -0.0096 -0.0935
16773W        W32907   2.731   5.001  10.629  0.0179  0.2132 -0.1148
16774W        W32908  15.385  10.442  10.959 -0.1745 -0.2946  0.1289
16775W        W32909  15.996   9.394  12.683  0.0483  0.0331 -0.3694
16776W        W32910  16.170   0.443  12.343 -0.1402 -0.0985  0.0647
16777W        W32911   6.347   7.862   4.293  0.0557 -0.1375  0.0360
16778W        W32912   2.397   9.464  11.187  0.1318  0.1799  0.3015
16779W        W32913   0.649  17.910  14.816  0.1829 -0.1698 -0.0007
16780W        W32914  12.105   3.991  13.754  0.2648 -0.2891 -0.0155
16781W        W32915   7.444   8.088   5.441  0.0645 -0.1783 -0.1118
16782W        W32916   7.918   0.749   1.872  0.0223  0.1794  0.0169
16783W        W32917  13.048   1.224   4.302 -0.1185 -0.1493  0.4231
16784W        W32918   4.901  12.758   3.822 -0.3690 -0.2372 -0.1161
16785W        W32919  12.432  10.485   4.639  0.0004 -0.0587 -0.2368
16786W        W32920  14.498  18.426  11.452  0.1769 -0.1673 -0.4424
16787W        W32921  13.655   3.627  14.155 -0.1508 -0.1606 -0.1299
16788W        W32922  11.481  19.142  13.685 -0.1354 -0.2049  0.2250
16789W        W32923  13.480  11.571   2.879 -0.0492  0.3296  0.0397
16790W        W32924  16.237   4.191   2.853 -0.2600  0.1457 -0.0864
16791W        W32925  14.528   3.491   0.896 -0.1166  0.2817  0.0395
16792W        W32926  12.679  17.999  14.426 -0.0517  0.1181 -0.0889
16793W        W32927   3.799  13.217  14.824 -0.1838 -0.0164  0.1846
16794W        W32928   1.948  18.410  12.261 -0.0583  0.0333 -0.1229
16795W        W32929  10.874   5.820  10.267  0.4530 -0.1018  0.1048
16796W        W32930  11.686   2.641   4.373 -0.3103 -0.1834 -0.3843
16797W        W32931   4.590  16.208  12.623 -0.1080  0.4864  0.1814
16798W        W32932  16.731  10.398  13.235 -0.1232  0.2773 -0.2717
16799W        W32933  10.478   2.075  13.377 -0.0647  0.0742  0.0077
16800W        W32934   9.111   6.698  12.135 -0.1410 -0.0203 -0.0629
16801W        W32935   6.496  16.505  10.585 -0.2630  0.0611 -0.0783
16802W        W32936  10.020  17.584  10.168  0.0427  0.2596 -0.3488
16803W        W32937   8.915   4.319   3.456 -0.0234  0.0508  0.1687
16804W        W32938   4.670  19.014   2.670 -0.0708 -0.0692 -0.1302
16805W        W32939  17.304   0.392   3.121  0.1186 -0.3182  0.1827
16806W        W32940  12.704   1.175  14.531  0.1327 -0.0825 -0.0766
16807W        W32941   2.426  11.455  12.381  0.3223  0.3040 -0.0500
16808W        W32942   0.916   3.258   1.435 -0.5106  0.0992  0.0021
16809W        W32943  14.036   7.462  14.214  0.1827 -0.1582 -0.0696
16810W        W32944  16.582   4.817   2.417 -0.1239 -0.0518 -0.1454
16811W        W32945  11.603  18.225  11.753 -0.1562  0.0420  0.0690
16812W        W32946   5.033   9.702  14.432 -0.1027  0.0822 -0.0851
16813W        W32947   1.614  11.198   5.769 -0.2957 -0.1170 -0.0596
16814W        W32948  14.082   3.317  15.012 -0.0862 -0.3919 -0.0123
16815W        W32949   9.524  10.936   1.293 -0.0456 -0.1196 -0.1639
16816W        W32950   8.616   8.470  10.812  0.1037 -0.1384 -0.1504
16817W        W32951   8.504  12.950   0.342  0.2633 -0.0441  0.0197
16818W        W32952  16.771   2.754   3.714 -0.3627 -0.1911 -0.1865
16819W        W32953  11.760   5.868  13.566  0.2512  0.0139  0.2709
16820W        W32954  16.362   8.565  12.615 -0.2678 -0.2167  0.0110
16821W        W32955   9.683   1.072  11.924  0.1728 -0.2329 -0.0388
16822W        W32956  11.249   5.224   2.775  0.0761 -0.1385 -0.3709
16823W        W32957   3.581   1.007  11.802  0.0317  0.0522  0.3960
16824W        W32958   0.962   0.247  14.102 -0.1211 -0.0395  0.2994
16825W        W32959  14.642  10.983   1.421  0.0340  0.0201  0.1111
16826W        W32960  10.707   6.965  14.188 -0.1000  0.2535 -0.0370
16827W        W32961  18.277   9.735  13.520  0.1990 -0.3738  0.2240
16828W        W32962  15.467  17.981   5.431 -0.1823  0.0703  0.0983
16829W        W32963   5.123  12.671  15.029  0.6421 -0.0324 -0.0119
16830W        W32964   0.677  11.802   1.934  0.1973  0.0778  0.3427
16831W        W32965   7.411   3.513  15.023 -0.3465  0.1456  0.1217
16832W        W32966  13.076  14.860  13.267 -0.2887  0.1476 -0.0710
16833W        W32967   9.089  11.261   9.339  0.1890  0.2860  0.1568
16834W        W32968   8.495  15.274  12.050 -0.0571  0.2376  0.3128
16835W        W32969   7.548   5.616  12.745 -0.1617  0.3570 -0.2057
16836W        W32970  13.796   8.205   4.014  0.1195  0.1483 -0.0079
16837W        W32971   1.277  13.689   4.241 -0.0044  0.0299  0.3407
16838W        W32972   7.483   6.874  13.372  0.1008  0.3608  0.1174
16839W        W32973   0.156  14.316   1.776  0.0519 -0.1689 -0.1451
16840W        W32974   6.374   1.213   1.768 -0.2433  0.1082  0.1242
16841W        W32975  11.469  17.185   2.012 -0.1175  0.0521 -0.1325
16842W        W32976  18.431  13.379  14.138  0.0401 -0.0683 -0.0407
16843W        W32977   8.429   1.043  11.576  0.2234 -0.0307  0.0923
16844W        W32978  17.747  19.029   1.780  0.1425 -0.2971 -0.1039
16845W        W32979  12.975   8.253  13.440  0.1367  0.3420 -0.2185
16846W        W32980   5.159  11.238   1.676  0.0156 -0.0201  0.2527
16847W        W32981   7.667   4.806   0.252  0.0580  0.0667 -0.0968
16848W        W32982   3.040  18.788  10.297  0.1980  0.1069  0.3262
16849W        W32983   6.156  16.731   9.411  0.0799 -0.2414  0.0855
16850W        W32984   9.676   4.090  11.022 -0.3941 -0.2644 -0.1561
16851W        W32985   3.499  10.901  10.744  0.0394  0.4549 -0.3039
16852W        W32986   0.057  12.997  14.402 -0.1916 -0.0103  0.1161
16853W        W32987   1.935  15.318   4.565  0.0804  0.1232  0.2122
16854W        W32988   4.163  18.740   4.107 -0.1367  0.3207 -0.1194
16855W        W32989   6.892   1.036   4.017  0.1017  0.1756  0.2790
16856W        W32990   0.305  10.140  12.960  0.1498 -0.0826 -0.3666
16857W        W32991   0.769  11.736  10.836 -0.0136  0.0405  0.1211
16858W        W32992   0.215  12.180  10.550 -0.0139 -0.0347  0.2381
16859W        W32993   2.786   1.502  12.121  0.1560  0.1542 -0.0131
16860W        W32994   9.175  13.293   4.644 -0.0277  0.2144 -0.0307
16861W        W32995  17.079   3.628   0.850 -0.2069  0.0379 -0.1471
16862W        W32996   5.111  13.834   2.809 -0.2430  0.2183 -0.0006
16863W        W32997   4.274  15.710   2.579  0.2630 -0.2246 -0.4986
16864W        W32998   3.400   4.696   0.053 -0.1964  0.0948 -0.4781
16865W        W32999   5.145   0.611  13.881  0.0936 -0.0961  0.1097
16866W        W33000   9.867   3.823  14.736 -0.0608 -0.1854 -0.1883
16867W        W33001  18.740   5.015   0.884 -0.2701 -0.0813  0.2521
16868W        W33002   8.525   8.338   3.308 -0.1441  0.2377 -0.0925
16869W        W33003  18.694   3.117  10.367 -0.0620  0.0951  0.3585
16870W        W33004  10.075  12.609   0.231  0.0993 -0.3333  0.1501
16871W        W33005  16.476  11.358  10.630 -0.3475  0.1452 -0.1869
16872W        W33006  10.850  16.012   3.072  0.1460  0.0423 -0.0785
16873W        W33007  13.414  14.418  14.663  0.0503  0.3006 -0.2143
16874W        W33008   2.165  15.723  11.404 -0.2349  0.1158 -0.0490
16875W        W33009   1.297   9.077   2.198  0.0541 -0.0674  0.3461
16876W        W33010  17.973   6.951  11.564 -0.1143 -0.0008  0.2657
16877W        W33011  11.182   0.378   0.055 -0.1873 -0.3807 -0.2028
16878W        W33012  10.974  10.102  10.108  0.1486  0.0612  0.1095
16879W        W33013   7.784   3.537   2.634 -0.2181 -0.0796 -0.1242
16880W        W33014  14.819  14.027   0.107 -0.0708 -0.0240  0.1891
16881W        W33015  19.086   6.839   4.309 -0.1708 -0.0256 -0.0632
16882W        W33016   9.587   0.160   4.249 -0.0342 -0.2716 -0.0682
16883W        W33017  12.559   1.452   9.853 -0.2972 -0.0462  0.3058
16884W        W33018  12.941   4.776  10.377 -0.3579  0.1397  0.0407
16885W        W33019   9.667  15.087   3.713  0.0685 -0.1618  0.3428
16886W        W33020   3.091  18.288  11.607  0.1613 -0.0331 -0.1543
16887W        W33021   0.633   6.961  12.872  0.0755  0.3395 -0.0504
16888W        W33022   5.593   5.409  10.617 -0.1956 -0.2418  0.0614
16889W        W33023  12.182   3.206   2.889 -0.0902  0.0035  0.0776
16890W        W33024   8.671   9.833   3.917 -0.0469 -0.3807 -0.1914
16891W        W33025   5.248   9.504   0.414 -0.3139 -0.3007 -0.0867
16892W        W33026  15.960   6.132  12.774  0.1152 -0.3219 -0.1371
16893W        W33027   4.156  19.213   2.656  0.1994 -0.2734 -0.0839
16894W        W33028   1.685  11.062  13.402 -0.1519  0.1467  0.0326
16895W        W33029  13.133   2.244  13.304  0.0682  0.1782  0.0863
16896W        W33030   6.358   8.438   1.270 -0.1550 -0.0466  0.1311
16897W        W33031   7.158   5.860  11.938  0.1157  0.1287  0.3983
16898W        W33032   4.860   3.265   4.182 -0.1598 -0.0054  0.2244
16899W        W33033  12.784  13.601   0.475  0.1351  0.2482  0.0633
16900W        W33034  15.633  12.460   4.726 -0.2293  0.1450  0.0127
16901W        W33035   1.783   2.716   0.989  0.3038 -0.0805  0.0521
16902W        W33036   2.882  16.024   0.730  0.0344  0.2132  0.1024
16903W        W33037   7.550   2.878  13.785  0.1302 -0.0880 -0.3822
16904W        W33038  19.005   9.549  11.920 -0.3656 -0.1477  0.4542
16905W        W33039   8.901   5.046  13.884  0.0760 -0.0260 -0.0321
16906W        W33040  16.657   9.393  10.701  0.0403 -0.3070 -0.2426
16907W        W33041  10.486   8.231  13.750 -0.0382  0.0432  0.0365
16908W        W33042   0.214   9.749  12.084 -0.1938  0.3124  0.1320
16909W        W33043  13.990   8.050   3.123  0.3676  0.2190 -0.0186
16910W        W33044  17.665   0.100   9.495 -0.1160 -0.1712 -0.1576
16911W        W33045   7.066   1.429  11.048  0.0905 -0.0172  0.1886
16912W        W33046   5.799   5.961  12.135 -0.0666 -0.2375  0.1239
16913W        W33047   7.228   3.005   3.012  0.1508  0.1003  0.1902
16914W        W33048  12.246  14.649  13.059  0.2104 -0.1049 -0.0743
16915W        W33049  17.659  16.041   4.043  0.3797 -0.3557  0.1097
16916W        W33050  16.578   5.225   3.287  0.1557 -0.1467  0.0110
16917W        W33051   7.772  16.497   4.881 -0.3320 -0.0929  0.3243
16918W        W33052   5.823  11.941  14.672  0.0266  0.0767  0.0830
16919W        W33053  12.152   0.719   4.408 -0.3413 -0.0888  0.2087
16920W        W33054  14.244  15.182   3.910  0.2724  0.2917 -0.2074
16921W        W33055   4.957  12.270   3.270  0.0410  0.0693  0.1461
16922W        W33056   8.294  11.582  12.355 -0.1710 -0.1959 -0.0915
16923W        W33057  16.939  15.733  14.720  0.1665  0.0035  0.1738
16924W        W33058   2.542  13.638   2.893  0.0114  0.1282  0.0185
16925W        W33059   7.609   5.156   1.228 -0.0066 -0.0552  0.1157
16926W        W33060   5.701   0.878  11.949  0.0161 -0.1012 -0.0710
16927W        W33061  18.357   6.969   2.415  0.1147  0.2479  0.1465
16928W        W33062  13.482  12.416   4.556 -0.2074 -0.0681 -0.1219
16929W        W33063   2.076   0.456   0.131  0.0330  0.3743 -0.1053
16930W        W33064   7.090   8.484   5.303  0.1423  0.1004  0.2494
16931W        W33065   2.870   3.904   0.186  0.1921  0.0935  0.0496
16932W        W33066   4.117  15.968  12.428 -0.1945  0.0145 -0.1358
16933W        W33067   5.778   1.586  14.514 -0.1648 -0.3149  0.1611
16934W        W33068   3.810   6.924  14.303 -0.3066 -0.1694  0.0594
16935W        W33069   2.545  18.543   2.204  0.4028 -0.0486 -0.0065
16936W        W33070   0.057   9.221   3.052 -0.2186 -0.1249  0.0515
16937W        W33071   9.743  17.408  14.395 -0.0080  0.0081  0.1854
16938W        W33072   3.101   8.192  12.651  0.1090  0.1048 -0.1524
16939W        W33073   1.019  13.591   2.743  0.0577  0.1939  0.3444
16940W        W33074  12.244   7.499   3.932 -0.1585  0.3369 -0.0406
16941W        W33075   4.578   9.747  13.403 -0.1919 -0.0460 -0.0568
16942W        W33076  15.644  14.854  11.431  0.0581 -0.0103  0.1442
16943W        W33077   5.331   8.451  14.935 -0.2029 -0.2257 -0.0672
16944W        W33078  15.399   5.068   1.900 -0.1216  0.2279 -0.2161
16945W        W33079   0.254  17.916   4.718  0.0689  0.0328 -0.0892
16946W        W33080  13.969   7.960   4.750  0.1341  0.0963  0.1858
16947W        W33081   6.419   7.729   5.302 -0.0719 -0.0825 -0.2911
16948W        W33082  17.222   1.418  10.777 -0.1912 -0.0673  0.2471
16949W        W33083  15.342   2.386  13.286  0.0004  0.1847  0.2235
16950W        W33084  12.907   1.895  11.342  0.1187 -0.0724  0.1649
16951W        W33085   8.584   3.481  11.959  0.2000  0.1437  0.3433
16952W        W33086   1.528  12.552  13.839  0.3157  0.1383  0.3627
16953W        W33087   8.165  16.389   0.562  0.1200 -0.1578  0.1132
16954W        W33088  15.843  12.867  14.127  0.0473  0.3822  0.2473
16955W        W33089  10.815   3.177   2.489 -0.0512 -0.4913  0.0929
16956W        W33090  14.101  14.152  12.269  0.1005 -0.1739  0.0382
16957W        W33091   2.240  14.895  14.893  0.1077 -0.2143  0.1489
16958W        W33092   4.367  10.223  13.395 -0.1565 -0.1284 -0.2240
16959W        W33093   6.690  10.058  14.754  0.2045  0.0937 -0.1029
16960W        W33094   5.862   3.801  12.221 -0.2145 -0.1732  0.0486
16961W        W33095   8.882  12.026  11.600  0.1635 -0.0296  0.1880
16962W        W33096   7.335  10.247   1.812  0.2589  0.3120 -0.0865
16963W        W33097   0.045   1.347  13.372 -0.1734 -0.1152  0.2547
16964W        W33098  18.380   6.237  10.677  0.2720  0.0523  0.1753
16965W        W33099  14.865  18.451   4.110  0.2931 -0.0449 -0.0102
16966W        W33100  12.556   8.209  10.091  0.2592  0.2863 -0.2671
16967W        W33101   5.679   4.114  13.567  0.0990 -0.0433  0.0072
16968W        W33102   2.653  11.743  12.099 -0.1456 -0.4096 -0.0092
16969W        W33103  12.934   8.181   1.455 -0.0994 -0.0489 -0.0325
16970W        W33104   9.935   0.340   3.271  0.0197 -0.2321  0.1322
16971W        W33105   0.044  11.121  10.150  0.1143  0.0930 -0.2251
16972W        W33106   1.224  10.119  14.371  0.0644 -0.1403  0.0635
16973W        W33107   3.345   2.293   2.266 -0.0588  0.0616 -0.0828
16974W        W33108   9.255   6.234   0.709 -0.1203  0.1157 -0.1213
16975W        W33109   4.082  18.920   0.794 -0.0737  0.1685 -0.1574
16976W        W33110   4.447   7.396  13.627 -0.1139 -0.1117  0.1441
16977W        W33111   1.310  11.978   2.756 -0.1911  0.2868  0.2376
16978W        W33112  14.072  10.944  11.874 -0.1607 -0.0037  0.0810
16979W        W33113  14.048   3.374  13.934  0.0917 -0.1468  0.0648
16980W        W33114  14.915  11.825   2.126 -0.1389 -0.0069 -0.1380
16981W        W33115   3.976   6.753   3.215 -0.2004  0.3855 -0.0472
16982W        W33116  16.952  14.200   5.638  0.0970  0.2377  0.1127
16983W        W33117   3.797  10.539   5.468 -0.0354 -0.0579 -0.0251
16984W        W33118  11.537  11.732   4.225  0.0205  0.3452  0.0793
16985W        W33119   0.638   0.025  12.476  0.0029  0.0326  0.0423
16986W        W33120  17.718   8.704  11.888  0.0237  0.3209 -0.1498
16987W        W33121  15.649   7.316   3.038  0.0364 -0.1470  0.1084
16988W        W33122   6.408  12.502  14.422 -0.0607 -0.1844  0.1246
16989W        W33123  13.971  16.177  13.762  0.0159 -0.4028 -0.0878
16990W        W33124   2.344  17.904  13.011 -0.3538 -0.1432 -0.1023
16991W        W33125  15.840   1.983  13.049  0.3607  0.1327 -0.0145
16992W        W33126  15.983  13.388  14.588 -0.1326  0.0798  0.2222
16993W        W33127   9.762   8.364   4.878  0.1346  0.2894  0.1725
16994W        W33128   0.557  12.308  11.792  0.0630  0.6066 -0.1060
16995W        W33129   2.883  11.827   4.548 -0.3480  0.1452  0.1166
16996W        W33130   0.084   5.284   5.421 -0.0471 -0.0442 -0.0469
16997W        W33131  11.522  13.765  14.787 -0.1920 -0.2324 -0.2061
16998W        W33132   0.766   1.865   2.437  0.4068 -0.0397  0.0239
16999W        W33133   3.310   6.453   1.965  0.0567  0.1389  0.0416
17000W        W33134  18.012  16.004   3.107  0.1163 -0.1663  0.0877
17001W        W33135  17.234  17.264   4.754  0.2344 -0.0120 -0.0491
17002W        W33136   4.826  13.113  10.908  0.2208 -0.2904  0.0887
17003W        W33137  18.148  14.958   2.258  0.1812  0.0101  0.0506
17004W        W33138  13.269   0.796   4.418  0.1227  0.2076  0.0111
17005W        W33139  12.531  17.798   4.283 -0.1184  0.2812 -0.1863
17006W        W33140  13.967  13.310  10.163  0.4316 -0.5013 -0.1938
17007W        W33141   7.087   7.914   4.286 -0.0106  0.0381 -0.3664
17008W        W33142   9.789   8.144  11.940 -0.0469 -0.0220 -0.0637
17009W        W33143  10.162   2.389   2.276 -0.0763 -0.0435 -0.1066
17010W        W33144   7.086  11.590   4.323  0.0293  0.0393  0.2212
17011W        W33145  16.500   4.133  12.903  0.1511  0.1918  0.0970
17012W        W33146   8.312   7.630  14.409 -0.1583 -0.0371  0.0535
17013W        W33147   0.812   9.815   3.862  0.1009  0.0550 -0.3102
17014W        W33148   1.627  10.097  12.509  0.2329 -0.0899 -0.0691
17015W        W33149  13.895   3.230  11.537  0.0413  0.3184  0.0564
17016W        W33150  11.170   5.238   4.115  0.0638 -0.0157 -0.0260
17017W        W33151   5.049   9.329  11.180  0.2408  0.2520 -0.1245
17018W        W33152  13.541  10.086  14.320  0.3528  0.1242  0.2432
17019W        W33153  10.479   9.139   0.853 -0.0485  0.3792 -0.0744
17020W        W33154   4.015   3.449  11.622 -0.0923 -0.1096 -0.1404
17021W        W33155   0.263  18.054  13.774  0.1208  0.3322 -0.0194
17022W        W33156   5.546   7.319  11.778 -0.0179 -0.3400  0.1893
17023W        W33157   2.567   7.708   5.362 -0.0082 -0.0140 -0.1604
17024W        W33158   6.860  12.701   2.541  0.2510 -0.2455 -0.1108
17025W        W33159  14.503  18.936  14.004 -0.1161 -0.0999  0.0208
17026W        W33160   0.117  11.168  14.342 -0.4054  0.0095 -0.0136
17027W        W33161   5.570   6.943  14.350 -0.2604 -0.2783 -0.0776
17028W        W33162  11.986   1.234   3.554 -0.0443  0.1017 -0.4543
17029W        W33163   6.162   8.398   3.346 -0.0832  0.0522 -0.0045
17030W        W33164  10.747   3.144  10.846 -0.1857  0.1657  0.2230
17031W        W33165   8.808  16.708  12.166 -0.1861 -0.1457 -0.0350
17032W        W33166   9.179  11.335  10.616  0.1266 -0.2434  0.1751
17033W        W33167   0.012   8.372   3.258 -0.0154  0.0959 -0.2507
17034W        W33168  17.242   9.992   0.450  0.2157 -0.0817 -0.0687
17035W        W33169   9.674  16.884   3.869  0.0960 -0.2048  0.1164
17036W        W33170  14.287  11.683  14.551  0.0529 -0.0417 -0.0348
17037W        W33171  15.684   0.019  11.268  0.0854 -0.2221 -0.2690
17038W        W33172   8.115   3.286  13.978  0.0731  0.0903  0.1144
17039W        W33173   8.451  13.562  11.343 -0.1757 -0.0257  0.1559
17040W        W33174   1.457   5.742   0.085  0.1524 -0.1707  0.0232
17041W        W33175  15.159   7.282  12.430 -0.0417  0.0527 -0.1222
17042W        W33176  13.326  12.175   3.075 -0.3099 -0.1943 -0.3093
17043W        W33177   9.288  12.666  13.875  0.0174  0.0273 -0.1014
17044W        W33178  17.732  10.528   3.839 -0.2378  0.3267 -0.0470
17045W        W33179  11.556  13.655   0.241 -0.0808  0.1194  0.0248
17046W        W33180   5.356  18.585   9.607  0.0164 -0.0316 -0.4182
17047W        W33181  15.809   9.046  10.292 -0.1202  0.2985 -0.1945
17048W        W33182  13.203   4.451  13.188 -0.1024 -0.2986 -0.1058
17049W        W33183   1.972   2.155   1.590  0.0129 -0.1092  0.2604
17050W        W33184  12.316   7.490   0.809 -0.0025 -0.0645 -0.0302
17051W        W33185  14.609   2.236   3.115 -0.1098  0.0702  0.1248
17052W        W33186  10.627  10.666   5.377 -0.3332 -0.0402 -0.0852
17053W        W33187   3.948   4.253   3.262  0.0524  0.4370 -0.2431
17054W        W33188   1.126  18.817  14.376 -0.4201 -0.0670 -0.2954
17055W        W33189   8.795   0.254   4.799  0.1391  0.1349 -0.2004
17056W        W33190   4.399  10.153  14.229 -0.2513 -0.1618  0.0576
17057W        W33191   4.896  15.409  12.462 -0.2656  0.2679 -0.0425
17058W        W33192  12.460   6.785  13.841  0.0328  0.0554  0.2350
17059W        W33193  10.926   7.363  13.947 -0.1120 -0.3265  0.1331
17060W        W33194   1.614  16.928  11.552  0.1619  0.0681 -0.1477
17061W        W33195  17.310   0.186   2.587  0.2809  0.1956  0.0620
17062W        W33196  16.506   5.312   2.241  0.0956  0.0023 -0.4174
17063W        W33197  14.445   0.366   1.063 -0.3109 -0.2326  0.0566
17064W        W33198   9.639   9.854  11.955  0.1625 -0.1259  0.1076
17065W        W33199   8.945  11.403  11.697  0.1474  0.1590  0.2455
17066W        W33200  14.799  15.160  14.320 -0.0397  0.1037  0.0906
17067W        W33201  11.009  18.443   0.397 -0.1023 -0.2458 -0.1958
17068W        W33202   9.698  16.590   4.799  0.1066  0.1010  0.2239
17069W        W33203  19.153   4.738  12.000 -0.0464  0.2671 -0.3286
17070W        W33204  10.049   6.126  12.193  0.1704  0.2212 -0.0467
17071W        W33205   4.571   5.227  13.709 -0.1066  0.2270 -0.0081
17072W        W33206   9.935   3.646  12.263  0.2779 -0.1832  0.1050
17073W        W33207   8.284  13.469  10.403  0.3034  0.0045 -0.1705
17074W        W33208  18.069   4.537   1.569  0.0525 -0.1284 -0.0846
17075W        W33209  18.441  13.222   0.170 -0.0627  0.1837  0.0573
17076W        W33210   4.678   3.027   0.909  0.1800  0.2272 -0.2294
17077W        W33211  18.741   6.540   3.299  0.3220  0.1060  0.1706
17078W        W33212   8.570   4.754   2.186  0.1808  0.1073  0.0587
17079W        W33213   2.203  16.625  12.927 -0.2038 -0.1581  0.1161
17080W        W33214   7.392  12.139   1.374 -0.3929  0.1285  0.0810
17081W        W33215   6.969   4.360  12.155 -0.1445  0.3997 -0.0981
17082W        W33216  16.511  18.508   3.309 -0.0339 -0.0587 -0.1024
17083W        W33217  14.217   7.568  13.740 -0.2543 -0.0586  0.1322
17084W        W33218  10.487  17.300   1.077 -0.0636  0.1156 -0.0948
17085W        W33219  17.197   0.314   4.679 -0.2540 -0.0164 -0.0960
17086W        W33220   0.057  14.630  11.938 -0.2043  0.1902 -0.1339
17087W        W33221  16.327   9.986  13.488  0.0333  0.0230  0.0326
17088W        W33222   2.215  17.413   2.976  0.0646 -0.1066  0.0040
17089W        W33223  18.123   8.359   1.100 -0.1023  0.0102 -0.2289
17090W        W33224   0.318   4.573  11.230  0.0441  0.0736  0.1361
17091W        W33225   4.385  13.584  12.905  0.1124  0.2036  0.0011
17092W        W33226   6.051   4.767   5.002 -0.2363  0.3188  0.1166
17093W        W33227   2.753   1.702  12.619  0.0138  0.3542  0.1486
17094W        W33228  11.338   3.365  12.953 -0.0555 -0.0046  0.0799
17095W        W33229  13.035  15.433   3.634  0.0059 -0.2211 -0.0005
17096W        W33230  18.472  13.216  10.734  0.1891  0.0574  0.0630
17097W        W33231   0.927  11.441  10.406 -0.0931  0.2113  0.0344
17098W        W33232  16.829  14.854   3.031  0.1041  0.1814 -0.1573
17099W        W33233  19.211  10.696  10.924  0.0093 -0.1056  0.1557
17100W        W33234  10.468   9.105  12.732  0.0950  0.0373 -0.1621
17101W        W33235   7.335  18.472  12.091 -0.0734 -0.0012  0.1514
17102W        W33236  12.524   0.478   4.557 -0.0775  0.1893 -0.0922
17103W        W33237  11.572   9.402  10.628 -0.2151  0.1072 -0.0167
17104W        W33238  17.295   7.310  13.875  0.1199  0.1922  0.2808
17105W        W33239   8.849   5.161   2.668  0.2125 -0.2705  0.0834
17106W        W33240  18.592   6.631   5.034 -0.3118  0.0798 -0.3644
17107W        W33241   7.081   2.581   1.727 -0.0528 -0.2298  0.2830
17108W        W33242   5.573  11.997  14.260  0.0436  0.2964 -0.2413
17109W        W33243   3.445   7.294  10.360 -0.0696  0.1238  0.2761
17110W        W33244  13.543  13.209   4.201  0.0287  0.4085 -0.0852
17111W        W33245   9.479  16.870  12.437  0.0815 -0.0180  0.2895
17112W        W33246  10.370   6.397   1.181 -0.0893 -0.0440  0.2835
17113W        W33247  10.157  10.967  10.660  0.1796 -0.1895 -0.0756
17114W        W33248   0.621  16.849   1.696  0.2330 -0.1734  0.0138
17115W        W33249  12.359  17.589  14.604 -0.0583 -0.0849 -0.2745
17116W        W33250   3.991   4.795  12.704  0.0564  0.1013  0.2980
17117W        W33251  17.855  11.429   3.511  0.0259  0.3227 -0.0959
17118W        W33252   5.021  17.106  11.965 -0.4933  0.0840 -0.2995
17119W        W33253   8.196   5.894  13.201  0.0034 -0.0363 -0.2463
17120W        W33254  12.504  17.645   4.766  0.2185  0.0252 -0.1668
17121W        W33255   0.098  14.495   2.298  0.0043  0.2140  0.1389
17122W        W33256  17.638  18.986  14.473 -0.3033 -0.1155 -0.0793
17123W        W33257  18.904  10.158  14.927 -0.1602  0.1363  0.1738
17124W        W33258   1.739   7.371   3.902  0.0303 -0.1859 -0.3213
17125W        W33259   7.240   5.129   0.243 -0.0698 -0.4318 -0.0048
17126W        W33260  16.411   9.751   3.789 -0.0171  0.0831  0.0270
17127W        W33261   7.627  11.454   2.271 -0.1209  0.3015 -0.1196
17128W        W33262   7.092   7.448   2.213  0.0085  0.0331 -0.1214
17129W        W33263  13.318   9.860   5.470  0.1748 -0.3134 -0.0879
17130W        W33264   3.432  17.921   9.800  0.1190 -0.0428  0.0121
17131W        W33265   0.511   9.236   2.219 -0.1636 -0.2251  0.0842
17132W        W33266   7.311   1.464   4.618 -0.3150  0.0783 -0.1175
17133W        W33267   8.773   0.450   3.434 -0.0297 -0.2195 -0.1795
17134W        W33268  10.199  18.582  11.163 -0.3585  0.1752 -0.0234
17135W        W33269  10.959   3.712  14.057 -0.1261  0.2891  0.0657
17136W        W33270  11.619  18.818   4.362 -0.1506  0.1987 -0.0314
17137W        W33271   2.795   2.201   2.112 -0.2109  0.2744 -0.0894
17138W        W33272  17.034  18.334   1.713  0.2292  0.1718 -0.0486
17139W        W33273  14.887  15.371   4.608 -0.1599 -0.1333 -0.0932
17140W        W33274   8.593  12.007  14.486 -0.0821  0.0161 -0.0726
17141W        W33275   4.130  16.739  11.907  0.2692  0.1128  0.1997
17142W        W33276  15.624   3.228  12.695 -0.0421  0.1918 -0.4042
17143W        W33277   5.300   0.336   3.881 -0.1438  0.1336  0.0155
17144W        W33278  15.976  17.842   0.844 -0.3523  0.4858 -0.0405
17145W        W33279  12.634   1.900  10.888  0.1006 -0.3473  0.2909
17146W        W33280  15.282  10.046  13.603  0.1102  0.0153  0.2065
17147W        W33281  10.841  17.051   3.070 -0.2253 -0.0221  0.0375
17148W        W33282   1.871   1.478   4.594  0.1403  0.2569  0.0107
17149W        W33283  15.238   6.404  12.942  0.2276 -0.2345 -0.0836
17150W        W33284  18.382  14.584  12.607  0.0133  0.3412  0.2288
17151W        W33285  10.835   7.024  11.902  0.0035 -0.0221  0.3494
17152W        W33286   3.426   3.880  13.900 -0.1285 -0.1600  0.1820
17153W        W33287   4.719  15.486   2.667 -0.1361  0.1631  0.0599
17154W        W33288   9.109  13.321  14.124 -0.1152  0.3031 -0.0104
17155W        W33289  15.188  15.399   2.847 -0.4336  0.3352  0.0031
17156W        W33290  11.909   2.308   1.148 -0.2115  0.2659  0.1862
17157W        W33291   6.479  10.258   1.127  0.1767  0.2467 -0.2869
17158W        W33292  17.781  14.775   4.671 -0.0390 -0.0696  0.0006
17159W        W33293   4.286   3.217   1.667  0.0518  0.2817  0.2949
17160W        W33294  10.281   8.510   3.385  0.1360 -0.2538  0.0518
17161W        W33295   7.565  10.939   4.585  0.2260 -0.0448 -0.1800
17162W        W33296   1.692  19.148  13.716  0.2910 -0.2899 -0.0914
17163W        W33297  18.429   5.635   2.769 -0.2781  0.0159 -0.4810
17164W        W33298   0.211   6.126  12.085  0.0506  0.0542 -0.0085
17165W        W33299  10.224   5.925  14.783 -0.0088  0.1016  0.3580
17166W        W33300  13.723   7.013   2.472  0.1426 -0.1487 -0.1473
17167W        W33301  11.739  17.156  14.220  0.2295  0.1401 -0.0242
17168W        W33302  18.246  12.009  11.369 -0.3353  0.3379 -0.1501
17169W        W33303  16.079   0.514   3.089  0.0786  0.2855 -0.1564
17170W        W33304   6.511   1.607  13.033 -0.0287 -0.0067  0.0221
17171W        W33305  16.772  12.548   0.305 -0.0499  0.3274  0.3505
17172W        W33306  13.669   0.209  10.646 -0.0423 -0.2217 -0.0700
17173W        W33307  13.390  12.192  13.761 -0.0384 -0.0845  0.1437
17174W        W33308   4.063   0.583  14.824  0.0290 -0.4575 -0.0641
17175W        W33309  14.394  17.667   2.643 -0.0294  0.0826  0.0971
17176W        W33310   3.734  12.840   3.932  0.1177 -0.2133 -0.0001
17177W        W33311  17.633   2.457   2.249  0.2307 -0.1609 -0.0617
17178W        W33312  12.805  10.043   2.223  0.4456 -0.0404 -0.0393
17179W        W33313   9.698  13.161   4.009  0.0524 -0.2350  0.2397
17180W        W33314  14.631   9.221   2.205 -0.0424 -0.3119 -0.2191
17181W        W33315  13.745  18.728   3.605 -0.0341 -0.1280 -0.2222
17182W        W33316   9.235  14.320   4.241 -0.2931  0.2111  0.2289
17183W        W33317  12.900   3.918   4.923  0.1137 -0.0527  0.1616
17184W        W33318   9.745   2.470  15.012 -0.3238 -0.1136 -0.0961
17185W        W33319  11.849   8.549  13.801  0.2482  0.1399  0.0176
17186W        W33320  15.143   1.304  12.918 -0.1134 -0.3564 -0.2286
17187W        W33321  10.318   7.726  10.168 -0.0158 -0.2121  0.1377
17188W        W33322  12.887  13.314  10.993  0.1228  0.1981 -0.0258
17189W        W33323   6.345   4.204  10.938  0.0618 -0.2108  0.0771
17190W        W33324  15.501   3.306   2.335 -0.0263 -0.1744 -0.4794
17191W        W33325  11.820   8.521   2.021 -0.0620 -0.0755  0.1913
17192W        W33326  14.572  10.730  11.517  0.0502 -0.0053 -0.1201
17193W        W33327   6.889   9.656   1.964  0.1104 -0.2213  0.1084
17194W        W33328   7.678   8.954  12.705  0.1093  0.3793 -0.0231
17195W        W33329   1.064  16.466  11.474 -0.2981 -0.0840  0.4371
17196W        W33330  18.436   9.075   2.475  0.0627 -0.0268 -0.0527
17197W        W33331   1.006   6.444  10.779 -0.0945 -0.1005  0.1941
17198W        W33332   6.268  13.402  11.980  0.2115  0.0107  0.1877
17199W        W33333  13.994  18.982   1.264  0.0905  0.1659 -0.1202
17200W        W33334  14.385  13.958  14.205 -0.1420 -0.0824 -0.3838
17201W        W33335   4.663   5.943   2.092 -0.1920  0.1609  0.1742
17202W        W33336   7.291  18.883   4.246  0.2357 -0.3379 -0.0960
17203W        W33337  11.923  18.371   4.055 -0.3434 -0.0215  0.3493
17204W        W33338   8.445   4.729   4.508 -0.0304  0.0688 -0.4337
17205W        W33339  16.013   9.600   1.669 -0.1320 -0.0018 -0.2201
17206W        W33340  18.529   2.598   0.401 -0.0169  0.2035  0.2605
17207W        W33341   3.504   9.059   0.330  0.2715 -0.0881 -0.0957
17208W        W33342   6.872  14.767   5.018  0.2354 -0.1393 -0.0607
17209W        W33343  17.636  18.954  10.505  0.3290  0.0229  0.0631
17210W        W33344  18.358  16.554   3.176  0.3539  0.1614 -0.0748
17211W        W33345  11.316   5.078  12.767  0.1876  0.3140  0.2113
17212W        W33346   2.410  11.161   0.247 -0.0178 -0.3034 -0.2239
17213W        W33347   0.612   4.676  13.982 -0.1745  0.3124 -0.1302
17214W        W33348  15.797  11.342  11.791 -0.1200  0.0297  0.3147
17215W        W33349   5.393   9.683  12.815  0.0350 -0.2309 -0.3934
17216W        W33350  15.528   7.043  11.090 -0.0995 -0.1001  0.0936
17217W        W33351  17.057   2.824  12.592 -0.0579 -0.3442  0.2278
17218W        W33352   0.782   5.969   1.012  0.1182 -0.0627 -0.1151
17219W        W33353   1.624  16.265   4.999  0.0781  0.3223 -0.0906
17220W        W33354  18.204  15.053  12.718 -0.2254  0.1316  0.0203
17221W        W33355   9.859   8.627   3.122  0.3879  0.4425 -0.0361
17222W        W33356  10.740   3.990  12.053  0.2042 -0.0512  0.0403
17223W        W33357  12.015  10.949   2.649  0.5306  0.1326 -0.1114
17224W        W33358   6.153  14.837   2.930 -0.1976 -0.3186  0.3156
17225W        W33359   3.628  11.397   1.699  0.1722  0.0628 -0.1632
17226W        W33360   7.685  12.743  14.284 -0.1110 -0.2474  0.1515
17227W        W33361  13.326   3.894   4.671  0.0695 -0.3006  0.0492
17228W        W33362   2.795  16.546  13.995 -0.3148 -0.0973 -0.1263
17229W        W33363   3.104   5.783   4.805 -0.3724  0.4569 -0.0127
17230W        W33364   6.831   2.376   4.411 -0.0946 -0.1425  0.1460
17231W        W33365  19.157   5.850   0.509 -0.1765 -0.0667 -0.0424
17232W        W33366   8.108   4.102   4.266 -0.1828 -0.0745 -0.1026
17233W        W33367  17.858  18.686   3.735  0.1024 -0.2413 -0.0095
17234W        W33368  16.228   4.806  11.432  0.1815 -0.0812  0.0331
17235W        W33369   1.122   4.623  11.392 -0.1300  0.0723 -0.2839
17236W        W33370  11.015  16.056   2.498  0.0327  0.0782  0.1668
17237W        W33371   3.035  11.630  13.474 -0.3395 -0.0949  0.3502
17238W        W33372  16.091   4.822  10.940 -0.0046 -0.0626 -0.2627
17239W        W33373  17.870   7.435  12.185  0.0787  0.0896  0.0409
17240W        W33374   3.462  16.392   0.580  0.4319  0.1132 -0.1118
17241W        W33375  13.743   2.639  11.014  0.0275 -0.0701 -0.3929
17242W        W33376  16.271   7.571   5.494 -0.1114  0.0023  0.1389
17243W        W33377   8.812  11.508   3.602  0.3248 -0.2991  0.0680
17244W        W33378  18.713  18.332  14.913 -0.4325 -0.1055 -0.1624
17245W        W33379   9.950  17.133   2.285 -0.0616 -0.0908 -0.0280
17246W        W33380  18.670   2.785   4.092 -0.1018  0.2396  0.2681
17247W        W33381   3.178   2.002   9.806  0.0410  0.0611 -0.1920
17248W        W33382  15.750   0.703  10.783  0.0019 -0.2514 -0.1466
17249W        W33383  18.369  11.997   3.019  0.0110 -0.1061 -0.1434
17250W        W33384  14.037  18.733   2.431 -0.1515  0.3563  0.3271
17251W        W33385  15.598  17.453   0.086  0.2009  0.0875  0.2419
17252W        W33386  14.124  12.017   4.016 -0.2890 -0.0390  0.0496
17253W        W33387   7.629  18.244  12.432 -0.1256 -0.2190  0.0512
17254W        W33388   9.516   1.851   0.685 -0.0144 -0.1831 -0.0160
17255W        W33389   5.068   8.825   3.846 -0.0141 -0.2802 -0.2110
17256W        W33390   5.436  14.887   2.018  0.1889 -0.0209  0.1812
17257W        W33391  14.016   3.813  13.663 -0.4740  0.0015 -0.2045
17258W        W33392  15.073   3.198   4.844 -0.1084 -0.2070 -0.1514
17259W        W33393   1.062  11.827   1.577 -0.1949 -0.0692 -0.2158
17260W        W33394  12.888  10.753   2.774  0.1654 -0.3372 -0.3869
17261W        W33395  15.789   3.415   0.244  0.0822  0.0319 -0.2008
17262W        W33396  11.692   6.586  10.189 -0.1407 -0.0093  0.2049
17263W        W33397  13.375  15.979   4.129 -0.1143 -0.1366  0.0707
17264W        W33398  11.828  10.646   0.165  0.1867  0.1843 -0.0700
17265W        W33399  14.525  10.752   3.169 -0.0054 -0.0075  0.1493
17266W        W33400  11.060  14.696   4.338  0.0864 -0.2213 -0.0675
17267W        W33401   5.485  17.399  11.312  0.2036  0.5502  0.4075
17268W        W33402  11.231   5.219  11.806  0.0258  0.0299 -0.2506
17269W        W33403  14.174  17.461  13.966  0.0530 -0.5152 -0.1055
17270W        W33404   6.709   8.914  10.345  0.0453  0.1620 -0.0416
17271W        W33405   0.408  10.897  10.845 -0.0358 -0.1028  0.1093
17272W        W33406  13.246  13.760  11.287  0.0367 -0.0450 -0.2377
17273W        W33407   0.303  13.996  14.313  0.1761  0.1263  0.1541
17274W        W33408   1.404  19.231  14.174  0.1273  0.2292 -0.1042
17275W        W33409   4.075   2.901  11.436  0.0686 -0.2030 -0.2351
17276W        W33410   3.335   3.654   1.126 -0.1499  0.2272  0.1809
17277W        W33411  14.332   7.253  14.904  0.1947  0.2569 -0.1113
17278W        W33412   5.331  11.764  14.730 -0.2025 -0.2025 -0.0893
17279W        W33413  10.894  12.914   5.302 -0.1652 -0.0347  0.0040
17280W        W33414   9.277  12.458   4.355 -0.0936 -0.5676 -0.3418
17281W        W33415   9.443  12.057  10.958  0.2415  0.0366  0.0884
17282W        W33416  15.212  18.893   4.943  0.0063 -0.1421 -0.1939
17283W        W33417   4.772  14.562  14.825  0.2039 -0.1738 -0.1235
17284W        W33418  10.701   1.681  14.346  0.1949 -0.1585 -0.1436
17285W        W33419   2.793  18.238  12.631 -0.2265  0.2873  0.2194
17286W        W33420   5.617  17.312   0.102  0.1452  0.2227 -0.1503
17287W        W33421   6.638   6.255  10.734  0.0046  0.2988  0.1346
17288W        W33422  18.488   4.362   4.930 -0.1779  0.1607 -0.0737
17289W        W33423   7.565  12.915  13.376 -0.0505  0.3820  0.1468
17290W        W33424   7.718  13.477   1.040 -0.1391  0.0961  0.0599
17291W        W33425  15.811  11.052   3.049 -0.0019  0.0141 -0.0322
17292W        W33426  14.219   4.263  13.813 -0.0215 -0.1479  0.1040
17293W        W33427  18.245   3.007  12.097 -0.3469  0.1836 -0.3518
17294W        W33428  14.669   4.435   3.763 -0.0030  0.3913  0.1649
17295W        W33429  14.128  18.228   4.319  0.0994  0.2156  0.1799
17296W        W33430   0.818  13.129   0.496 -0.1515  0.1513 -0.1347
17297W        W33431   1.341   4.062  10.471  0.0323 -0.2060  0.0786
17298W        W33432  10.372  17.089   0.032 -0.2054  0.0368 -0.1868
17299W        W33433   8.276  12.587   3.267  0.1980 -0.2900  0.2546
17300W        W33434   5.833  12.895   3.885 -0.0828  0.0686  0.1492
17301W        W33435   1.092  13.671  11.278  0.0696 -0.0462  0.3888
17302W        W33436  13.442  18.465   2.744  0.3670 -0.0650  0.0965
17303W        W33437  10.746   9.064  10.737 -0.2205  0.1020 -0.1768
17304W        W33438  11.732   4.385   3.469  0.0884  0.0191 -0.0095
17305W        W33439  13.982   2.985   3.154  0.3780 -0.0330 -0.1078
17306W        W33440   9.290   0.811  12.716  0.3377  0.0930 -0.1950
17307W        W33441   4.390   8.939  11.894 -0.0677  0.2342 -0.3584
17308W        W33442   5.873   6.081   4.366  0.3095  0.2199 -0.0296
17309W        W33443   7.891  12.752  12.978  0.3066 -0.2408  0.2442
17310W        W33444   2.536   2.207  12.539  0.1663 -0.3162 -0.1507
17311W        W33445   1.112   6.669  11.958 -0.1331 -0.2986 -0.1366
17312W        W33446  16.617  14.641  13.981 -0.1756  0.2143 -0.0461
17313W        W33447   5.121  11.728   5.002  0.1127 -0.0379 -0.1754
17314W        W33448   5.263  15.821  10.710 -0.0102 -0.0388 -0.0361
17315W        W33449   1.491  14.697   0.854  0.1972  0.3924  0.3737
17316W        W33450  18.186   6.325   4.549  0.0601 -0.3516  0.1065
17317W        W33451   0.206  18.852  11.366 -0.0583 -0.2807 -0.1011
17318W        W33452  15.116  16.175  11.833 -0.2741  0.1699 -0.0650
17319W        W33453   5.686  12.020   0.597 -0.0689  0.1438  0.1082
17320W        W33454   0.138  12.168  13.952  0.2114  0.1063  0.1960
17321W        W33455   4.423   2.448  12.783  0.0214 -0.0523 -0.0137
17322W        W33456  14.308   7.237   0.673 -0.1691  0.0644 -0.3681
17323W        W33457   2.282   6.716  14.430 -0.2066 -0.0872 -0.1921
17324W        W33458   3.198   2.731  13.782 -0.2046 -0.1374  0.0977
17325W        W33459   0.991  19.130   2.254 -0.3274 -0.1343 -0.0282
17326W        W33460   5.431   6.546   2.841  0.2537  0.3128 -0.2172
17327W        W33461   7.657   1.384   3.647 -0.0048  0.2156  0.0857
17328W        W33462  13.768  17.081  14.154 -0.1204  0.0661  0.1390
17329W        W33463  16.479  16.873   0.535 -0.1680  0.2532 -0.1402
17330W        W33464   9.817  14.870  12.787  0.1765 -0.1212 -0.1014
17331W        W33465  19.240   2.045  11.904 -0.4877 -0.2167 -0.2548
17332W        W33466  15.589   8.134  14.558  0.2188 -0.0155 -0.0329
17333W        W33467   0.545   1.428   4.483 -0.1240 -0.3928  0.0166
17334W        W33468  12.492   6.497  14.677 -0.2752  0.2401 -0.2126
17335W        W33469  17.107   3.003   5.305  0.1806  0.1247 -0.0490
17336W        W33470  15.382   8.938   2.579 -0.3440 -0.1226 -0.1181
17337W        W33471   0.173   7.210   4.061  0.1623  0.0916  0.1715
17338W        W33472   2.016   8.428  11.764 -0.3589 -0.0344 -0.2369
17339W        W33473   3.462  16.749   2.560 -0.2233  0.0883 -0.2021
17340W        W33474   4.753  16.131  11.758  0.1012  0.1927  0.1157
17341W        W33475   2.191   8.743   3.542 -0.2464 -0.0162 -0.0569
17342W        W33476   9.808  18.329   0.454  0.0428  0.3507  0.0579
17343W        W33477   2.890   6.410  10.349 -0.1708  0.0274 -0.3097
17344W        W33478   0.212  14.444  13.958 -0.1146  0.2318  0.2972
17345W        W33479   5.291  14.055   5.711  0.0865 -0.0147  0.1881
17346W        W33480  11.744  12.511  10.495 -0.1316  0.3338 -0.2863
17347W        W33481   2.017   6.839  12.599 -0.4390 -0.3930  0.4703
17348W        W33482   0.989  14.801  10.873 -0.0665 -0.1927  0.0519
17349W        W33483   7.940   5.756  12.434  0.2386  0.3404  0.1258
17350W        W33484   1.267   1.319   2.941  0.0455 -0.1875 -0.1443
17351W        W33485   5.497   8.149   2.855 -0.0692 -0.0073 -0.0233
17352W        W33486   2.322  11.645  15.008 -0.1038  0.1112 -0.2842
17353W        W33487  16.714  13.468  13.376 -0.2711 -0.1069  0.2263
17354W        W33488   0.955  14.088   5.775  0.1639  0.2358  0.2723
17355W        W33489  12.294   4.496  14.681  0.1777  0.0423 -0.2562
17356W        W33490   7.598   1.355   3.056  0.0829 -0.2575 -0.1080
17357W        W33491   6.081   8.790   3.019  0.2704 -0.1849 -0.0926
17358W        W33492  10.464   0.244  14.760 -0.2364  0.1092  0.0448
17359W        W33493   4.937  15.872   4.005 -0.1310  0.1777  0.1742
17360W        W33494   8.378   4.616   5.050  0.1992 -0.1851 -0.0410
17361W        W33495   4.568  11.379   3.395 -0.0024  0.1134 -0.1357
17362W        W33496  10.217   3.406   3.125 -0.1375  0.1266  0.1020
17363W        W33497  11.682  17.022   3.382  0.0155 -0.0421  0.1781
17364W        W33498   4.356   1.751  10.609 -0.0479 -0.2264 -0.0477
17365W        W33499   0.707   9.471  11.286  0.0983 -0.0809 -0.0777
17366W        W33500   7.207   5.945  14.572 -0.1415 -0.2105 -0.1865
17367W        W33501   4.595   3.600  11.468  0.0176 -0.1660  0.1153
17368W        W33502  18.572   2.425  12.852 -0.0380  0.0522 -0.0328
17369W        W33503   8.060   1.874  11.539  0.1628  0.1454  0.2610
17370W        W33504  18.524   5.159   4.574 -0.1984  0.2238 -0.0413
17371W        W33505  11.831   3.154   3.790 -0.2318 -0.0532  0.1128
17372W        W33506  17.513  17.569  12.308 -0.1373  0.0217 -0.3137
17373W        W33507   0.957   1.795   0.444  0.1687  0.2587 -0.0275
17374W        W33508   4.535  14.385   1.149  0.1424  0.0152  0.2276
17375W        W33509   8.635   2.412   4.890  0.0267 -0.0160  0.1958
17376W        W33510   9.546   3.838   2.306 -0.0356 -0.1728  0.1576
17377W        W33511  14.155   5.905   1.314  0.1638  0.1384 -0.2421
17378W        W33512  18.616  17.319   0.967 -0.2827  0.1740 -0.0963
17379W        W33513  10.105   1.961   0.769  0.1648  0.1895 -0.3325
17380W        W33514  12.699  14.818  12.908  0.1987  0.2626 -0.4943
17381W        W33515   4.303   9.387  13.780  0.0601 -0.0002 -0.6838
17382W        W33516   6.857   7.492   1.374  0.3291  0.0395 -0.2332
17383W        W33517  10.665  18.065   0.509  0.0974 -0.3859 -0.1361
17384W        W33518  14.483  15.801  13.027 -0.1924  0.0047 -0.0618
17385W        W33519  10.768  11.839   2.298  0.0449 -0.0710  0.2896
17386W        W33520   4.753  14.839  11.859 -0.2132  0.2097  0.2744
17387W        W33521   7.669   5.294  14.526 -0.1885  0.0399  0.0631
17388W        W33522  18.708  14.191  11.853  0.2081  0.1697 -0.0696
17389W        W33523  17.521  18.655   5.356 -0.3921  0.1142 -0.3511
17390W        W33524  17.194   6.721   0.606 -0.1260 -0.1362  0.2606
17391W        W33525   6.916  14.753   4.056 -0.2360  0.0304 -0.1400
17392W        W33526  18.945   1.108  13.108  0.1173  0.0472  0.0763
17393W        W33527  18.971  17.060  11.651  0.2991 -0.0590  0.2508
17394W        W33528  15.418  19.045  10.921  0.3101 -0.1204 -0.0521
17395W        W33529   9.101  13.001   5.470 -0.1487  0.0358 -0.0165
17396W        W33530  18.115   1.669  11.201  0.0197  0.1393  0.1289
17397W        W33531   6.802   3.890   0.545 -0.0564  0.2777  0.2475
17398W        W33532  18.347   8.093  13.765 -0.1487 -0.1918  0.0604
17399W        W33533  18.723  18.099  14.353 -0.0429 -0.0427 -0.1872
17400W        W33534  18.657  16.528  14.327 -0.1943 -0.1315  0.0565
17401W        W33535   6.172  13.332  12.953 -0.0311 -0.1776  0.0805
17402W        W33536  12.986   8.593   4.196  0.2346 -0.2842  0.1475
17403W        W33537   0.397  12.612   1.764 -0.2223 -0.1994  0.0494
17404W        W33538  10.784   4.237  14.830  0.0782  0.1102 -0.0519
17405W        W33539   5.337  13.030   3.790  0.3052  0.0824 -0.3683
17406W        W33540  10.412  16.785   3.144 -0.2264 -0.1580 -0.0668
17407W        W33541   5.286  13.080  10.710 -0.0691  0.1259  0.0242
17408W        W33542  18.932   5.176  12.373 -0.0539  0.2297  0.3690
17409W        W33543  16.905  11.701  13.018  0.3240  0.1173  0.0088
17410W        W33544   5.355   4.255   9.200 -0.1087  0.0839 -0.0364
17411W        W33545   1.319  12.506   3.533  0.1017  0.2520  0.1055
17412W        W33546   5.498   0.145  12.462 -0.1114  0.0246 -0.0490
17413W        W33547  14.949  10.436  14.321  0.0383  0.2860  0.0773
17414W        W33548  12.773  11.398   4.161 -0.0508 -0.2374  0.2460
17415W        W33549   2.910   0.285  14.327  0.1658 -0.0051  0.3434
17416W        W33550   7.966  12.270   3.489  0.2184  0.1671  0.2248
17417W        W33551  11.050   6.587  12.424  0.2146  0.1912 -0.0518
17418W        W33552   8.126  18.900  12.386 -0.1779  0.2278  0.0495
17419W        W33553   6.756   0.341   0.703  0.4496  0.2281 -0.2023
17420W        W33554   6.222  10.265  13.892 -0.3629  0.5140 -0.2011
17421W        W33555   0.386  11.816  14.917  0.1362 -0.2507 -0.1586
17422W        W33556   8.011  14.168  14.201 -0.3960  0.1850 -0.3359
17423W        W33557   4.201  17.310   1.431  0.0230 -0.0988 -0.2450
17424W        W33558   0.884   7.776   4.766  0.0137 -0.1771 -0.1431
17425W        W33559   4.552   4.550  11.554  0.1833 -0.2485 -0.2216
17426W        W33560  15.303  12.107  11.446  0.1657 -0.2995 -0.1585
17427W        W33561  17.200  10.488   0.517  0.1005 -0.2984  0.3070
17428W        W33562   5.194  16.852   1.961  0.0113 -0.0980  0.4077
17429W        W33563  17.275  13.541   2.410 -0.0380  0.3684 -0.1928
17430W        W33564  13.397   4.545   0.579  0.1495 -0.1256 -0.4197
17431W        W33565  19.077   3.944  14.454  0.0512 -0.1972  0.0235
17432W        W33566  12.214   1.637   4.843  0.0791 -0.0453  0.3039
17433W        W33567   3.133   3.200   5.400 -0.4719  0.1506  0.2794
17434W        W33568   2.843  13.857  12.415 -0.1938 -0.0764 -0.0874
17435W        W33569   3.968  13.129  11.288  0.0307 -0.1371 -0.0798
17436W        W33570   1.706   5.590   9.911  0.2606  0.0631  0.2150
17437W        W33571  18.106   0.617  13.847 -0.3256  0.1749 -0.0112
17438W        W33572  17.843  13.359   4.586 -0.2219  0.0652 -0.0749
17439W        W33573   6.865  16.919   9.949  0.1113  0.0938  0.2113
17440W        W33574   7.469   7.719  11.537 -0.1908  0.3018  0.0224
17441W        W33575  16.712   6.274  10.932 -0.0876 -0.0900  0.0546
17442W        W33576   7.691   9.686  13.177  0.5324 -0.2169  0.4216
17443W        W33577   6.027  13.788   2.347 -0.1246  0.1597  0.2190
17444W        W33578  14.248  10.327   3.396  0.1408  0.1326  0.0080
17445W        W33579   1.192   2.651   0.912  0.1133  0.4117  0.0360
17446W        W33580   4.897  17.231   4.083 -0.3563 -0.0722  0.1741
17447W        W33581  19.056  16.924   0.045 -0.3772 -0.1225 -0.3202
17448W        W33582   3.264  18.176   3.703  0.0204  0.2182 -0.1645
17449W        W33583   8.100   2.542   2.324 -0.0671 -0.1094 -0.1345
17450W        W33584  17.409   6.539   1.744  0.0930 -0.1369  0.3509
17451W        W33585  15.139  18.866   2.287  0.1344 -0.1022 -0.0654
17452W        W33586   3.589  16.739  13.286  0.0229 -0.0313 -0.1275
17453W        W33587  18.923  10.680   5.227  0.0026  0.0055  0.2754
17454W        W33588   8.962   8.287  10.358  0.0747  0.2820  0.1330
17455W        W33589   4.742   2.292   0.508  0.1680  0.1890 -0.0651
17456W        W33590  11.414   8.495   9.486 -0.0681  0.4667  0.2582
17457W        W33591   4.989  15.206  11.527 -0.4297 -0.0005  0.0659
17458W        W33592   0.825  10.209  14.045  0.0373 -0.2085 -0.2308
17459W        W33593  12.917   3.726   4.449  0.3129 -0.3557 -0.0038
17460W        W33594  14.001  11.113   4.154  0.1625  0.2927 -0.0867
17461W        W33595   2.127   0.462   2.084 -0.0450  0.0643  0.2426
17462W        W33596  11.207   1.790   1.268 -0.0751  0.0189  0.1875
17463W        W33597  16.587   5.164   1.248  0.0128  0.3130 -0.1252
17464W        W33598   2.992   5.945   3.734  0.1937  0.1805  0.1889
17465W        W33599  12.008  10.130   1.750 -0.3909 -0.0179 -0.4681
17466W        W33600  17.962  12.523   4.283 -0.3621 -0.0291  0.0884
17467W        W33601   4.774  14.751   0.569 -0.3035  0.1029  0.0824
17468W        W33602   3.564   3.304  11.663  0.0339 -0.0839  0.1221
17469W        W33603   0.264  14.190  12.561  0.1499 -0.0698 -0.2289
17470W        W33604  15.850   3.803  13.484  0.1905  0.0137 -0.5907
17471W        W33605  15.500   6.117   0.989  0.3117  0.0957 -0.0225
17472W        W33606  15.484   6.990  12.718 -0.1506 -0.0047 -0.1052
17473W        W33607  10.695  16.000   2.072  0.1479 -0.1939 -0.2085
17474W        W33608  18.635   6.489  12.504 -0.0078 -0.1494 -0.2843
17475W        W33609  18.813  12.335   0.724 -0.0037  0.1492 -0.1856
17476W        W33610   7.971   0.426  14.648 -0.2888 -0.1538  0.0513
17477W        W33611   8.858  12.869  14.116 -0.4060  0.1460 -0.2856
17478W        W33612   6.758   4.746  10.353  0.1938 -0.0044 -0.1193
17479W        W33613   7.145  11.552   2.069 -0.0526  0.1181  0.0120
17480W        W33614   5.336   3.989  14.145  0.0804 -0.0928 -0.0215
17481W        W33615   8.122  13.211   0.162  0.1385  0.0378 -0.2648
17482W        W33616  16.260   0.960  12.323 -0.1255  0.1931  0.0976
17483W        W33617  13.848   0.561  12.276  0.1112  0.0813  0.0587
17484W        W33618   6.468  19.134   2.365 -0.2513  0.0709  0.2811
17485W        W33619   1.205  10.708   0.496  0.0468 -0.4063 -0.2173
17486W        W33620  18.404  17.243   3.703 -0.0217 -0.1954 -0.0648
17487W        W33621  17.677   5.378  12.301 -0.4124 -0.0191 -0.1921
17488W        W33622  10.814   2.936   4.038  0.1319 -0.1420 -0.1148
17489W        W33623  15.180  16.500   0.218  0.2050  0.2747  0.1521
17490W        W33624   2.602  15.887  12.340 -0.0577  0.2471  0.3434
17491W        W33625  13.348  14.705  12.263  0.3692  0.0096 -0.2130
17492W        W33626   6.393  14.878  13.146 -0.2299 -0.0244  0.2425
17493W        W33627  17.897   5.870   1.363  0.1669 -0.1512 -0.1400
17494W        W33628  18.754  10.496  14.542  0.1231 -0.5169  0.0806
17495W        W33629   3.136  15.790  12.821 -0.5084  0.2139  0.1043
17496W        W33630   6.096  13.819  14.471  0.0093  0.6404  0.0191
17497W        W33631  12.545   0.924   4.050  0.0282 -0.0745  0.1376
17498W        W33632  11.992  12.375  13.709  0.0158  0.0348 -0.1486
17499W        W33633   6.978  18.567  14.051 -0.0411 -0.1094  0.3383
17500W        W33634   9.571  19.006   1.799 -0.2119  0.0583 -0.3452
17501W        W33635   5.606  11.421  14.024 -0.2410  0.1439 -0.0549
17502W        W33636  17.695   2.790   3.898 -0.0205  0.2234 -0.1345
17503W        W33637  15.488   1.901   1.419 -0.0516  0.1363  0.3246
17504W        W33638   4.085  15.558   3.791 -0.0212  0.0552  0.3533
17505W        W33639  13.924  10.289  10.986  0.0713  0.0133  0.2721
17506W        W33640   6.094  11.599  11.569 -0.3830 -0.0263  0.2896
17507W        W33641  11.193   8.150  10.935 -0.2003  0.1219 -0.5465
17508W        W33642   5.517   1.304   3.306  0.2207  0.0376  0.1239
17509W        W33643   4.412   9.586   0.998  0.1493  0.2983  0.0779
17510W        W33644  18.108   0.102   2.652 -0.0742 -0.4632  0.0135
17511W        W33645  13.170  10.904   9.965  0.0256  0.0987  0.3069
17512W        W33646  17.043   1.334   2.748  0.0387  0.2912 -0.1174
17513W        W33647  16.418   5.915   1.618 -0.2195 -0.1598  0.1031
17514W        W33648  16.716   4.492   2.098 -0.2013  0.0513 -0.0063
17515W        W33649   4.216  15.224   2.662  0.1189 -0.1378 -0.1875
17516W        W33650   4.718   6.929  12.371 -0.0203 -0.2168  0.2476
17517W        W33651   4.179   0.062  11.454  0.1832 -0.1109  0.0605
17518W        W33652   4.609   5.221   4.276 -0.0133  0.2895 -0.0318
17519W        W33653   6.741  17.746   0.790 -0.0835 -0.0153 -0.4400
17520W        W33654  15.166  18.849  13.613  0.1648  0.0580  0.1098
17521W        W33655  12.544   7.311   4.334  0.3829 -0.0010 -0.1456
17522W        W33656  15.304  19.052   4.398 -0.2654 -0.1514 -0.1306
17523W        W33657   6.885   2.324   2.197 -0.0234 -0.0061  0.0749
17524W        W33658  12.884  10.217  10.779  0.2058 -0.1699 -0.1386
17525W        W33659   2.674  15.060   5.203  0.0293 -0.2694 -0.1819
17526W        W33660   2.230   1.666   4.941 -0.0832  0.0682  0.1289
17527W        W33661  14.294   6.641   3.971  0.0834  0.0924  0.1829
17528W        W33662   7.727  16.974   4.977 -0.2452 -0.0632  0.1903
17529W        W33663  11.484   5.563   9.025 -0.1602 -0.2530 -0.1322
17530W        W33664   4.748   0.521   3.895 -0.2365 -0.2297 -0.1068
17531W        W33665   4.949   3.010   3.350  0.0204  0.0016 -0.1277
17532W        W33666   2.143   9.263   9.534 -0.2509 -0.0005 -0.0775
17533W        W33667   6.798   4.897   0.464 -0.2353 -0.2083  0.0124
17534W        W33668  16.990   8.747   5.081 -0.5442  0.0538  0.0245
17535W        W33669  12.244   4.159   3.986  0.4038  0.1095 -0.0223
17536W        W33670   4.848   9.297  11.984  0.0150  0.1884  0.0878
17537W        W33671  10.041  12.726  12.681 -0.2347 -0.0491 -0.1758
17538W        W33672   7.061  10.788  13.975 -0.1938 -0.0669 -0.0110
17539W        W33673   2.747  10.300  11.864 -0.1169 -0.1855  0.0094
17540W        W33674   7.265   5.519  14.846  0.0021 -0.1532 -0.1586
17541W        W33675   6.502  10.472   0.340 -0.2949  0.1204 -0.0067
17542W        W33676  11.911  16.869  13.340  0.1548  0.3331 -0.0932
17543W        W33677   5.185  14.799  14.539  0.1068 -0.2531  0.0282
17544W        W33678   2.076  12.578  11.211  0.1603 -0.0217  0.0182
17545W        W33679  16.321  17.102  14.395 -0.1605  0.1856 -0.1947
17546W        W33680   9.616  12.642  14.372 -0.1425 -0.0284 -0.1347
17547W        W33681  11.786   0.162   0.497  0.0538 -0.2423 -0.0971
17548W        W33682  17.132  13.634  13.115  0.0772 -0.1336  0.0658
17549W        W33683   4.162   6.695  14.021 -0.2273 -0.4181  0.1634
17550W        W33684   1.169  12.327  14.197  0.3582  0.0340 -0.1969
17551W        W33685  14.179   4.877   2.351  0.2731 -0.2617 -0.3374
17552W        W33686  19.028   6.182   1.907 -0.2704 -0.3468 -0.2206
17553W        W33687   6.911   2.116   1.285 -0.2840  0.3328  0.1164
17554W        W33688   4.885   3.604  10.263 -0.3117  0.2434  0.0277
17555W        W33689   3.847  11.169   1.283 -0.3695 -0.0458 -0.1242
17556W        W33690  12.597  11.113   1.462 -0.1952 -0.0020 -0.0826
17557W        W33691   2.085  14.456  14.684 -0.1648  0.0790 -0.1603
17558W        W33692  15.517  15.437  10.888  0.0089  0.4521  0.2689
17559W        W33693   6.770   1.180  13.213 -0.4209  0.1521  0.3900
17560W        W33694   4.472  17.606   0.852 -0.5424 -0.0491 -0.3043
17561W        W33695   2.607   0.345  12.388 -0.0295 -0.0217  0.1872
17562W        W33696   9.593  10.235  13.508  0.0185  0.1711 -0.0549
17563W        W33697  13.793   8.741   0.849 -0.1965  0.0479  0.0638
17564W        W33698   8.873   3.247   4.923  0.0223 -0.1677  0.1811
17565W        W33699  14.724   5.309   4.334  0.5391 -0.0105  0.2753
17566W        W33700   4.670  15.992  11.284 -0.1723 -0.2521  0.0190
17567W        W33701  15.684   2.698  11.205  0.0800  0.0386  0.2840
17568W        W33702   7.321   8.759   2.069 -0.0182  0.0483 -0.0106
17569W        W33703  12.172   4.512  12.005  0.1551  0.3309 -0.4325
17570W        W33704   8.591   5.057  13.464  0.0723 -0.1756 -0.0610
17571W        W33705   0.239   0.341  13.348  0.0623  0.0116 -0.2623
17572W        W33706  18.658   3.311   3.229  0.1654  0.1486 -0.2754
17573W        W33707   9.258  18.595   3.688 -0.0574 -0.0654 -0.1622
17574W        W33708   1.899  18.910  13.205  0.4290 -0.1055 -0.0870
17575W        W33709   1.322   3.102   5.104 -0.3004 -0.4503  0.0412
17576W        W33710   0.841   7.423   2.729  0.0134 -0.0520  0.0997
17577W        W33711   4.532   8.474  13.337 -0.0003  0.4388  0.0684
17578W        W33712   5.394   2.648  11.704 -0.3127  0.0816  0.1478
17579W        W33713   0.187   3.844   4.727 -0.0190  0.0229  0.1550
17580W        W33714  11.837  13.586   4.646 -0.0938  0.2173  0.0787
17581W        W33715  12.768  10.795  11.005  0.1419 -0.0422 -0.2253
17582W        W33716   8.612  16.661  13.099  0.1284 -0.1589 -0.0437
17583W        W33717   4.058   8.544   3.900 -0.2229 -0.0520  0.0400
17584W        W33718   2.386   4.594   3.568  0.1517  0.1135  0.0103
17585W        W33719  11.830  14.861  13.275  0.1718 -0.0269 -0.0336
17586W        W33720  17.598   0.569  11.844  0.2069  0.4292 -0.0543
17587W        W33721   1.950  13.434  13.894 -0.1493 -0.0713  0.0441
17588W        W33722  12.196  15.367   1.208 -0.2700  0.2211  0.3004
17589W        W33723   8.646  12.100   0.674  0.2616 -0.0767  0.1296
17590W        W33724  14.175  10.119   4.977 -0.0609  0.0691  0.0755
17591W        W33725   9.405   8.191  13.144 -0.1609 -0.0948 -0.2069
17592W        W33726   9.600  18.313  11.573  0.0455  0.2469 -0.2624
17593W        W33727  14.300  12.469  10.251 -0.0712  0.0670 -0.2378
17594W        W33728  10.007   7.702   0.250  0.2179 -0.2331  0.1719
17595W        W33729  15.368   8.860   3.071 -0.2566  0.0754  0.3358
17596W        W33730  17.802   5.942   4.542 -0.0380  0.2257 -0.0702
17597W        W33731   5.570   0.534   3.045 -0.0641  0.2043  0.0456
17598W        W33732   0.805  12.749   3.435  0.1091  0.3177  0.0273
17599W        W33733   8.702   2.360  12.176  0.1156 -0.3382  0.1544
17600W        W33734  14.900   8.923   2.471  0.2931  0.2448 -0.1399
17601W        W33735   1.889   8.295   1.969 -0.2192 -0.1995  0.0727
17602W        W33736  10.616  14.870   4.501  0.3141 -0.2228  0.1622
17603W        W33737   0.183   4.626   1.936 -0.3833 -0.0812  0.2771
17604W        W33738  19.073  10.232  14.247 -0.0580  0.2463  0.1808
17605W        W33739   8.281   2.475   4.008  0.0746 -0.2479 -0.0624
17606W        W33740   6.581  18.772  10.364 -0.0115  0.0489 -0.0857
17607W        W33741  15.511  14.145  12.908  0.1109 -0.0518 -0.2943
17608W        W33742  10.225   5.322  13.951 -0.1214  0.0147  0.1166
17609W        W33743   2.601   4.254   0.763  0.0128 -0.2182 -0.1700
17610W        W33744  17.396  10.660  11.111  0.1581  0.0308 -0.0248
17611W        W33745  16.935  11.698  12.381  0.1375 -0.1484 -0.2522
17612W        W33746  10.198  11.863   5.246 -0.1152 -0.1682  0.1589
17613W        W33747  10.942  12.530  10.199 -0.1933  0.0642  0.0489
17614W        W33748   6.769   8.554   3.654 -0.0796 -0.4598 -0.1354
17615W        W33749   0.843  16.742   1.194  0.3180  0.1323 -0.0214
17616W        W33750  17.755   3.694   0.969  0.2045 -0.1454  0.0059
17617W        W33751   4.542  16.989   2.375  0.1671  0.0384 -0.1113
17618W        W33752  18.424   3.474  13.847 -0.1354  0.1778  0.0275
17619W        W33753   7.694  16.075  13.252 -0.0616  0.2330 -0.1768
17620W        W33754   4.737   6.663   2.559  0.1770  0.0112  0.0935
17621W        W33755  13.457  16.742   4.500 -0.2359 -0.0954  0.0820
17622W        W33756  16.934  12.151  13.356  0.0792  0.0486 -0.0866
17623W        W33757   4.816   4.817  13.966  0.0993 -0.1346  0.1049
17624W        W33758  13.257  15.900  13.572 -0.0404  0.1077  0.1624
17625W        W33759   2.186  13.746   0.426  0.0767  0.1790 -0.0992
17626W        W33760   4.716   9.074  10.738 -0.1275  0.1187  0.3169
17627W        W33761   5.263   8.029  11.328  0.0631  0.1934 -0.1526
17628W        W33762   7.383  12.674   2.699 -0.0676  0.0327 -0.3238
17629W        W33763  11.557  13.637   1.410 -0.1325  0.0136  0.1108
17630W        W33764  14.747  18.296  11.892  0.0722  0.3099 -0.3137
17631W        W33765  11.329  12.205  12.226  0.1936 -0.1693 -0.0530
17632W        W33766  18.678  11.136   4.943 -0.2141 -0.0098 -0.0442
17633W        W33767   5.143  14.964  12.882 -0.0157 -0.1437 -0.0761
17634W        W33768   8.825  13.334   2.632  0.0728 -0.0426  0.2317
17635W        W33769   7.443  18.976  11.040  0.1248  0.2413 -0.0939
17636W        W33770   0.614  17.657  13.589 -0.0265 -0.1259  0.2639
17637W        W33771   6.791  10.140   5.491 -0.0753  0.0511  0.2190
17638W        W33772   6.593   8.560   3.161  0.1920  0.2132 -0.0401
17639W        W33773  18.465  11.246   3.598  0.0453 -0.1692 -0.0854
17640W        W33774   8.849   6.928   1.488 -0.6280 -0.1574 -0.0505
17641W        W33775   4.006  15.914   4.503  0.0109  0.0364  0.0034
17642W        W33776   4.293  12.909  13.318  0.1099  0.2041 -0.0994
17643W        W33777   5.304   4.833  14.026  0.0166  0.1191 -0.1660
17644W        W33778  17.676  14.406   3.897  0.0024  0.0217 -0.0079
17645W        W33779   5.205  12.676  10.407 -0.1173  0.1034  0.2947
17646W        W33780   6.127   8.938   0.397 -0.0487 -0.0107 -0.1933
17647W        W33781  10.138  14.718  14.842  0.0147  0.1237 -0.1866
17648W        W33782   3.661  11.259  12.411  0.1066 -0.3504  0.1097
17649W        W33783   0.404  11.303   3.543 -0.0823 -0.1369 -0.0486
17650W        W33784  10.341   3.159   0.653  0.0977  0.1095 -0.1734
17651W        W33785  16.579  11.790   0.655  0.0275  0.1372 -0.0015
17652W        W33786   7.464  16.557  10.362 -0.1651 -0.0968 -0.0052
17653W        W33787  19.163  15.125  14.772 -0.1373  0.0358 -0.2476
17654W        W33788  14.118  13.422  10.656  0.1074 -0.3572 -0.3109
17655W        W33789   7.740  14.740  13.184 -0.3287 -0.4146 -0.0591
17656W        W33790  13.690   5.985  10.293 -0.1883 -0.1755  0.0980
17657W        W33791  17.649   7.453   3.808  0.1562  0.4611 -0.0850
17658W        W33792  12.327   3.305  10.247 -0.2503 -0.1273 -0.3240
17659W        W33793   9.979   6.930   3.287  0.0775 -0.0286 -0.1160
17660W        W33794  18.758  10.288   2.138 -0.2683 -0.2065  0.0421
17661W        W33795  12.201   3.534  10.841 -0.0613  0.0473 -0.1181
17662W        W33796  19.187   5.730  13.673  0.1647  0.2419 -0.0021
17663W        W33797  12.011  18.375   4.777 -0.1247  0.1207 -0.0816
17664W        W33798  17.043  10.468  11.430 -0.1452  0.1187 -0.1994
17665W        W33799  16.739   0.477   5.507  0.2899  0.1578 -0.1151
17666W        W33800   4.315  16.622   3.036  0.4168 -0.0322  0.1628
17667W        W33801   9.413   9.710  14.987  0.1465 -0.1371 -0.0012
17668W        W33802   8.611  10.626   5.164  0.2689  0.1310 -0.4384
17669W        W33803  17.481  16.833  11.132 -0.3151 -0.3519 -0.1219
17670W        W33804   6.518  11.996  13.916 -0.2697  0.1792 -0.1841
17671W        W33805  12.500   3.522   3.129  0.0103 -0.0414  0.0456
17672W        W33806   2.914  12.712  12.129  0.2749 -0.2477  0.1912
17673W        W33807  17.504   7.705  14.646  0.0739  0.1724  0.0162
17674W        W33808   7.558   2.914   3.646  0.0824  0.0610 -0.2223
17675W        W33809   0.678  14.020   5.339  0.1189 -0.0711 -0.0871
17676W        W33810   0.233   8.790   5.750 -0.0249 -0.0120 -0.0694
17677W        W33811   3.507  17.748   3.443 -0.3458  0.0828  0.0177
17678W        W33812   0.227  15.410   3.247  0.0297 -0.0724 -0.1219
17679W        W33813   2.105   7.855   0.670 -0.2791  0.0966 -0.1322
17680W        W33814  13.177   2.347   1.276  0.2281 -0.2812 -0.0644
17681W        W33815   4.741   5.627  10.933 -0.1781  0.0452  0.0959
17682W        W33816   8.420  12.568   4.905  0.0786 -0.0803 -0.2522
17683W        W33817   9.871   8.650   3.752  0.1024 -0.3436  0.2700
17684W        W33818   3.160  11.633   1.574  0.2486 -0.2121  0.3388
17685W        W33819  14.319  15.902  10.836 -0.2697  0.2914 -0.1156
17686W        W33820  10.381  15.854  12.536  0.0179  0.1471 -0.0239
17687W        W33821   2.362   9.892  13.708  0.1022  0.3733  0.0583
17688W        W33822  16.022  16.113  14.999  0.1396  0.0861  0.0305
17689W        W33823  16.320   0.304   1.518  0.0454  0.1744 -0.0101
17690W        W33824   7.285   0.999  11.036 -0.0201  0.1274 -0.0906
17691W        W33825   3.194  14.491  11.823 -0.0028  0.0046 -0.0742
17692W        W33826   8.758  15.673  13.877  0.1280  0.1517  0.0417
17693W        W33827   7.241  12.861  14.058 -0.1395 -0.1325 -0.1216
17694W        W33828  13.622  13.297  10.782 -0.2342  0.1759 -0.0565
17695W        W33829  13.654  14.621   1.170 -0.2843 -0.0761  0.1206
17696W        W33830  14.371  11.061   2.723  0.2390 -0.2001 -0.0145
17697W        W33831  15.915  12.202  10.803  0.1603  0.0005 -0.0323
17698W        W33832   5.373  18.798   4.907  0.0002 -0.0953  0.1147
17699W        W33833   4.620   1.666   9.619  0.1256 -0.0135 -0.4431
17700W        W33834   2.429   0.265  11.905  0.0522  0.0246  0.1724
17701W        W33835   1.875  16.620  11.880  0.0272 -0.0819  0.0737
17702W        W33836  14.969  12.881  11.541  0.3743  0.0419 -0.2853
17703W        W33837   4.056  14.262  11.239 -0.2825 -0.0115 -0.3316
17704W        W33838  16.244  16.102  13.705  0.2268  0.0347  0.0573
17705W        W33839   7.945  17.863   3.574 -0.1610  0.2125 -0.1416
17706W        W33840   2.585  11.717   0.459 -0.0710  0.4255  0.1199
17707W        W33841   5.446   7.718   3.216 -0.0359 -0.0394 -0.4764
17708W        W33842   9.367   4.749   3.310  0.2461  0.0343 -0.2795
17709W        W33843  13.555  14.100  11.633 -0.2677 -0.1158 -0.0528
17710W        W33844  15.751  14.601  11.011  0.2177  0.2080  0.2118
17711W        W33845   9.392  14.025   2.631  0.2479  0.0719  0.1068
17712W        W33846   6.702  18.663   5.348  0.2895 -0.0326 -0.1672
17713W        W33847   4.828   9.793  10.254  0.0490 -0.0058 -0.0713
17714W        W33848   2.457  14.506  12.390 -0.2530 -0.5475  0.1677
17715W        W33849   8.508  19.228   3.676  0.1645  0.3242 -0.1849
17716W        W33850  16.141   5.313   3.796  0.1875  0.3032  0.0269
17717W        W33851   5.566  18.420  11.432 -0.2740 -0.0752 -0.2579
17718W        W33852  15.307   8.982  11.686 -0.3007 -0.1597  0.0330
17719W        W33853  19.126  14.475  12.414  0.2675 -0.0135  0.3070
17720W        W33854  17.561   7.037  14.994 -0.2984 -0.1427 -0.0807
17721W        W33855  16.202  12.371   5.736  0.0995  0.0594  0.1990
17722W        W33856   0.300   5.685  12.519  0.0769 -0.3924 -0.2946
17723W        W33857  15.630  15.781   0.287  0.1092 -0.0728  0.0650
17724W        W33858  10.080   9.852  12.932 -0.1440 -0.1430 -0.1581
17725W        W33859   2.524   6.830   5.549 -0.0768 -0.1104 -0.1331
17726W        W33860   4.932  17.517   5.259  0.0520  0.0095  0.0810
17727W        W33861  17.413   5.278   3.558 -0.0715 -0.1626 -0.0268
17728W        W33862  15.662   5.089  10.643 -0.0417 -0.1073  0.1159
17729W        W33863   1.783  11.970  10.993 -0.0478  0.1978 -0.0363
17730W        W33864  15.288   0.240   1.202  0.0083  0.0516 -0.0267
17731W        W33865   3.074  13.343   0.880 -0.2600  0.1094  0.1835
17732W        W33866  15.719  15.104  14.515  0.1487 -0.3043 -0.0423
17733W        W33867  10.154  16.058   3.909 -0.1366 -0.1598 -0.1999
17734W        W33868  16.693  15.626  12.731  0.1490  0.1197  0.3971
17735W        W33869   8.732  11.628   5.678 -0.0492 -0.1541  0.4012
17736W        W33870   1.765  12.926  12.230  0.0616 -0.2795  0.1750
17737W        W33871   8.960  18.125  12.569  0.0428 -0.2852  0.0071
17738W        W33872   8.865  14.808  13.182 -0.1866 -0.4569 -0.1683
17739W        W33873  18.319   3.586   4.479  0.1449  0.2070 -0.0821
17740W        W33874   2.393  14.228  11.455  0.0397  0.1115  0.0695
17741W        W33875  12.367   1.132  14.916  0.0587  0.0310 -0.2722
17742W        W33876   7.737  15.517  14.308 -0.2034  0.0865  0.1301
17743W        W33877   9.437  13.961  13.321  0.4984 -0.2697 -0.0941
17744W        W33878  13.767  13.872   1.603  0.3367  0.2348 -0.0765
17745W        W33879   7.825   0.902  12.336  0.0577  0.2261  0.2785
17746W        W33880  15.449   2.838   4.828 -0.0054  0.0625 -0.2308
17747W        W33881   6.352   7.991  11.528 -0.0741  0.3294 -0.0143
17748W        W33882  16.377  18.389  14.177 -0.2230 -0.0668  0.0297
17749W        W33883  16.975   2.564   3.289  0.2437  0.1015 -0.0197
17750W        W33884   3.791   9.326  13.903 -0.1981  0.0926  0.1074
17751W        W33885  16.658   5.782   2.048 -0.1983  0.0369 -0.1616
17752W        W33886   1.344   3.427   4.329  0.1187  0.2852 -0.2296
17753W        W33887  18.017  10.262   9.288 -0.1135  0.3560 -0.0031
17754W        W33888   7.845   6.847   4.617  0.1032 -0.0577  0.3595
17755W        W33889  11.313   5.734   3.982 -0.3206 -0.0722  0.1502
17756W        W33890   0.452   2.451  14.205 -0.0371  0.1608  0.3405
17757W        W33891   2.018   7.664  10.563 -0.0574  0.1061  0.2477
17758W        W33892  18.268  14.829   4.646 -0.1206 -0.1846 -0.0237
17759W        W33893   2.704   3.970  10.228 -0.6136  0.0901 -0.1019
17760W        W33894   1.422   5.430  11.434 -0.0691 -0.0987 -0.0757
17761W        W33895   9.533  18.456  13.737 -0.4367  0.2486  0.1803
17762W        W33896  11.656  15.481   3.502 -0.1829  0.1891 -0.2386
17763W        W33897  11.003  17.583   2.920  0.0772 -0.0689 -0.4056
17764W        W33898   9.939   1.600   2.238  0.0616  0.1122  0.0502
17765W        W33899  10.021   0.022   0.918  0.3735 -0.0384  0.3198
17766W        W33900  10.678  12.125  14.262  0.0671  0.0037 -0.0653
17767W        W33901   5.989   9.048  12.896 -0.2632  0.0286 -0.0819
17768W        W33902  11.180   7.781   1.043 -0.1449 -0.0540  0.0647
17769W        W33903  17.472   4.641  12.036 -0.1027  0.4500  0.3899
17770W        W33904  15.018   2.030   3.369  0.1007 -0.0308  0.2324
17771W        W33905  16.124  16.186   0.444 -0.0365 -0.0323  0.2724
17772W        W33906  14.757   4.720   5.081  0.0255 -0.1939 -0.0910
17773W        W33907  11.673   4.913   3.617  0.1999 -0.0280  0.1143
17774W        W33908  17.648  18.885   1.096 -0.1659  0.1440 -0.1652
17775W        W33909  14.291   0.153  13.357  0.0234 -0.0360 -0.0835
17776W        W33910   6.771  14.471  14.835  0.1667 -0.0193 -0.1754
17777W        W33911   4.000   1.729  11.357  0.0304 -0.1897  0.0109
17778W        W33912   1.640   6.007   1.538 -0.1618  0.1681 -0.0888
17779W        W33913  10.072  16.324   4.468  0.0534 -0.4840 -0.1944
17780W        W33914  13.721   7.528  12.922  0.0039  0.2339 -0.0243
17781W        W33915   0.849   4.997  14.791 -0.0364 -0.3027 -0.2206
17782W        W33916  10.337   5.569  10.891 -0.1532  0.2916  0.2484
17783W        W33917   3.026   0.025  12.235  0.1249 -0.1438  0.0584
17784W        W33918  14.822  18.695  12.788  0.1505  0.0553 -0.0663
17785W        W33919  17.063  14.093   2.227 -0.1592  0.0979 -0.1527
17786W        W33920   3.415   8.416   5.397 -0.1697 -0.2388  0.1275
17787W        W33921   8.965  11.905   3.272  0.1840  0.2232 -0.1358
17788W        W33922  17.258   2.600   4.735 -0.0965 -0.2095  0.1389
17789W        W33923  16.255   4.300  14.317  0.3498 -0.2941 -0.0469
17790W        W33924  14.406  14.213  12.755  0.0321 -0.2654 -0.0228
17791W        W33925  18.277  13.289   9.830  0.0662 -0.2481 -0.2322
17792W        W33926  14.939   6.071  14.728 -0.1795 -0.0702  0.0292
17793W        W33927  15.579  13.689  14.629  0.0624  0.1866  0.1674
17794W        W33928   8.527  12.024   2.033  0.2058  0.2072 -0.1108
17795W        W33929  12.946   9.248  14.946  0.1070  0.2069  0.0584
17796W        W33930   5.497  14.457   4.386 -0.0605  0.1884 -0.2245
17797W        W33931   2.140   7.557   3.662 -0.0185 -0.0682 -0.2832
17798W        W33932  11.121  11.418   0.379  0.1864 -0.0649  0.1165
17799W        W33933   5.274  12.710   1.254  0.1198  0.2443  0.1081
17800W        W33934  11.341   3.233   2.284  0.2649  0.1968  0.0097
17801W        W33935  14.194  13.642   5.305 -0.1748  0.0061  0.0899
17802W        W33936  17.771   7.446  11.742  0.2272 -0.0678 -0.0118
17803W        W33937   1.512   2.350   5.682  0.0516  0.4055  0.1862
17804W        W33938   0.468  12.859  12.665 -0.1902  0.1615  0.2266
17805W        W33939   0.086   6.603   1.352  0.3643  0.0796  0.2101
17806W        W33940  18.992  10.875   2.928  0.0701 -0.3599 -0.1332
17807W        W33941   8.990  11.845   1.967 -0.1036 -0.0194 -0.1321
17808W        W33942   6.450   0.338   4.606 -0.0937  0.0665 -0.2116
17809W        W33943   4.449  18.249   9.844 -0.0262  0.0179 -0.0210
17810W        W33944  12.579  15.875  11.868  0.1629  0.3230  0.0171
17811W        W33945  14.846  10.321  11.500 -0.0388  0.0646 -0.0077
17812W        W33946  14.861  14.419  11.729  0.3710  0.2240  0.0870
17813W        W33947   3.222   6.404   3.508 -0.0465 -0.0391  0.1008
17814W        W33948   3.041  12.697   0.189  0.1649  0.0040 -0.1451
17815W        W33949  18.034   7.302   4.918 -0.1680  0.1202 -0.3208
17816W        W33950  17.690  14.922   4.167 -0.0218  0.1036  0.0796
17817W        W33951   6.691  11.465  11.467 -0.0478  0.3317 -0.0368
17818W        W33952   7.880   6.062   1.066  0.1850 -0.1470 -0.4558
17819W        W33953   1.173   1.532   1.123 -0.1036  0.1335 -0.2852
17820W        W33954   0.869   7.852   1.527  0.2633 -0.1718  0.3627
17821W        W33955  10.344   4.089   0.124 -0.1671  0.2436  0.1425
17822W        W33956  14.789  16.204  10.781 -0.2806 -0.0492 -0.0372
17823W        W33957   8.466   9.970  12.796 -0.2198  0.1806 -0.1423
17824W        W33958  11.581   0.114  14.115  0.2703 -0.5116 -0.1891
17825W        W33959  19.012  17.293  12.393  0.0927 -0.1977  0.2832
17826W        W33960  13.023  18.920   3.834  0.2264  0.1356 -0.1427
17827W        W33961   0.136  13.499  14.253 -0.1743  0.3655 -0.1580
17828W        W33962   0.185   0.393   3.155  0.2251 -0.0580 -0.3336
17829W        W33963  16.685   4.582  12.186 -0.1512 -0.0524  0.2116
17830W        W33964  14.684   1.933  10.018 -0.2578  0.4410  0.0351
17831W        W33965  17.122   2.810  10.237 -0.3968 -0.0710  0.0580
17832W        W33966   2.563   3.123  10.701  0.0702  0.1756 -0.1817
17833W        W33967  14.494   3.760  11.525 -0.0622  0.0950 -0.2678
17834W        W33968   9.492   1.189   0.314  0.1699 -0.0826 -0.0428
17835W        W33969   7.114   8.805   3.352 -0.0536 -0.1425  0.2948
17836W        W33970  14.368  10.793  13.219 -0.0018  0.0048  0.0906
17837W        W33971  17.940  11.141   4.463 -0.0920  0.2692 -0.0138
17838W        W33972   0.973   2.156  12.030  0.3395  0.1748  0.1709
17839W        W33973   9.588   6.006   5.243 -0.0539 -0.0001 -0.0805
17840W        W33974  14.491   3.214   4.044  0.1445  0.1809  0.3632
17841W        W33975   4.770  16.558   2.211  0.2631  0.0297  0.0247
17842W        W33976  15.244  14.773   3.991 -0.0192  0.0564  0.1123
17843W        W33977  18.317   9.476  11.804 -0.0874  0.2259 -0.1074
17844W        W33978  11.426   4.884   0.772 -0.1207 -0.0980  0.2801
17845W        W33979  19.130   6.212   5.220  0.1836  0.0454 -0.0862
17846W        W33980  17.864  11.664   4.655  0.0160  0.4617  0.2812
17847W        W33981  10.599  14.374   3.914  0.1252  0.2253  0.0904
17848W        W33982  14.660  15.460   1.208 -0.2184 -0.0952 -0.1665
17849W        W33983  18.864   4.015   2.533  0.0118  0.2155  0.3693
17850W        W33984   3.611   6.050   1.678  0.0418  0.2125  0.4031
17851W        W33985   8.380   7.342  10.207  0.2619  0.1723  0.1623
17852W        W33986  16.265   4.491   1.859 -0.1877 -0.2224 -0.1758
17853W        W33987  18.326   4.368  13.505 -0.5574  0.0203 -0.0974
17854W        W33988  16.678  17.280   4.655 -0.1647  0.1233  0.0482
17855W        W33989   6.496  14.095  14.656  0.2479 -0.4440  0.2357
17856W        W33990   1.568  16.709   5.359  0.0097  0.0409 -0.1879
17857W        W33991  16.892   8.360  11.136 -0.1805  0.1818  0.0216
17858W        W33992   2.217   8.179   4.787 -0.0789  0.0561 -0.1296
17859W        W33993  19.128   7.870  10.660  0.0076  0.0995  0.1136
17860W        W33994  17.916   4.533  13.845 -0.1651  0.2671  0.3153
17861W        W33995   6.021  19.228   5.987 -0.1713 -0.2207 -0.2130
17862W        W33996  18.097   0.063  13.404  0.2501  0.0858  0.0073
17863W        W33997   9.926   3.864   3.133  0.2027  0.0256  0.2683
17864W        W33998  10.517  15.616  11.776  0.0968 -0.1055  0.4950
17865W        W33999   1.220  13.911  13.848  0.1216  0.1482  0.1989
17866W        W34000   8.551   0.764   0.775  0.1067  0.0763  0.1589
17867W        W34001   9.384  16.306  10.429 -0.1373  0.0594 -0.3702
17868W        W34002   7.939   1.306  15.031 -0.2935  0.1069  0.0336
17869W        W34003  17.304  18.015   1.417  0.0848  0.4980  0.1805
17870W        W34004  14.145   6.290   9.585 -0.1919 -0.0912  0.1438
17871W        W34005   7.181   3.525   3.027  0.3239  0.1342 -0.1364
17872W        W34006  18.304   8.804   0.348  0.0413 -0.1030  0.1970
17873W        W34007  12.113  13.496  12.357  0.2809  0.2536  0.3911
17874W        W34008   7.370  16.382   3.972 -0.3843 -0.3879  0.1290
17875W        W34009  16.946  11.493  11.878  0.1682 -0.1060  0.1887
17876W        W34010   4.278   9.006  12.647  0.0414  0.2288 -0.0368
17877W        W34011  18.266   7.410  11.827  0.0505 -0.0189 -0.3078
17878W        W34012   4.847   8.518  10.009 -0.1341 -0.1647 -0.0935
17879W        W34013   6.262   3.608  11.758  0.1408 -0.1615  0.0117
17880W        W34014   6.873  16.537  10.979  0.3016 -0.4851  0.1954
17881W        W34015  16.886   1.802  10.748  0.2703  0.2202 -0.1260
17882W        W34016   3.278  18.348  10.598  0.4772 -0.3339 -0.1158
17883W        W34017  16.480  15.526  11.706  0.0688 -0.0989  0.4318
17884W        W34018  17.305   5.050  12.226  0.0691 -0.1163 -0.0674
17885W        W34019  13.332  17.308   9.963 -0.1578 -0.4214  0.1403
17886W        W34020  11.256  18.251  14.896  0.1216  0.0305 -0.1483
17887W        W34021  10.941  10.875  10.244  0.2574  0.1850 -0.4242
17888W        W34022   8.960   6.283  13.541  0.0032 -0.0902 -0.1228
17889W        W34023   6.816   0.391   1.733 -0.0851  0.0275  0.0256
17890W        W34024  16.513   8.309  14.212 -0.0629  0.0147  0.1971
17891W        W34025   6.295  13.068   5.904  0.5727 -0.0489  0.1997
17892W        W34026   9.025  16.299  13.863 -0.0255  0.1324  0.1846
17893W        W34027   0.184   6.629   0.589 -0.0554  0.0552  0.0348
17894W        W34028   5.307   5.772  13.494 -0.0380  0.1889  0.2536
17895W        W34029   0.058  11.290  13.008  0.0230 -0.1537 -0.2233
17896W        W34030   8.602  17.178   2.448 -0.3045  0.0610 -0.0634
17897W        W34031  17.404   8.179  12.623 -0.1397 -0.0722 -0.0824
17898W        W34032  16.948  10.879   0.660  0.1188 -0.0732  0.1838
17899W        W34033  16.872  18.890   1.342  0.1666 -0.3429  0.1731
17900W        W34034   0.182   0.079  14.706  0.0318 -0.2295 -0.0343
17901W        W34035  15.322   0.451  10.879  0.0758  0.0217 -0.1916
17902W        W34036   8.001   4.569  14.089 -0.0139  0.2329  0.0214
17903W        W34037  17.251  13.526   0.645  0.0433 -0.0920 -0.1515
17904W        W34038   2.507   9.316   2.113 -0.1484 -0.2287 -0.1860
17905W        W34039   9.812   8.403  10.211  0.0395  0.0318  0.0947
17906W        W34040   7.423  14.352   0.021  0.3901  0.2275  0.0911
17907W        W34041   6.163   8.776  11.245 -0.2544  0.1680 -0.3830
17908W        W34042   9.614  14.538  14.007  0.3084  0.2507  0.1222
17909W        W34043   7.075  12.277   2.685  0.1287  0.0792 -0.1513
17910W        W34044  12.544  11.596   2.176 -0.0852 -0.0752 -0.2285
17911W        W34045   2.058   1.999  11.361 -0.0982  0.4562  0.0623
17912W        W34046   4.718   7.203  10.884  0.0684 -0.0088  0.0844
17913W        W34047  16.006   1.655  13.867 -0.2739  0.0320  0.1089
17914W        W34048   3.763  18.351  12.152 -0.0041 -0.1272  0.2754
17915W        W34049  11.106  13.728   2.614  0.0054  0.1669 -0.0153
17916W        W34050  14.965   9.463   1.894  0.1298  0.0861 -0.0730
17917W        W34051   8.567   5.181   0.988 -0.4316 -0.0468 -0.0016
17918W        W34052   4.372   2.332   1.605  0.0511 -0.2835 -0.1657
17919W        W34053   1.657   8.357   3.880  0.2948  0.3082 -0.0218
17920W        W34054   8.335   3.627   3.417 -0.1990  0.2778 -0.0523
17921W        W34055  14.060   8.966   3.529  0.0956 -0.0237 -0.1531
17922W        W34056   6.227   6.367   3.598  0.4372 -0.0680  0.4085
17923W        W34057   8.536  18.790  10.899 -0.0704 -0.1798  0.0675
17924W        W34058   4.879   7.786   4.276  0.0473 -0.0274 -0.2728
17925W        W34059  18.866  14.799  10.685  0.0173  0.0869  0.0110
17926W        W34060  10.128  10.237   2.756 -0.1354  0.3489  0.0096
17927W        W34061  17.901   0.955   4.536 -0.1743  0.1458 -0.0436
17928W        W34062   5.216   8.852  11.303  0.0532  0.1008 -0.0407
17929W        W34063  13.504  11.964   1.165  0.1841 -0.0305  0.0143
17930W        W34064  15.336   4.979  13.879 -0.1059  0.0461  0.1786
17931W        W34065   9.252  13.536   2.503  0.0081  0.2950 -0.0796
17932W        W34066   8.996   4.459   3.997 -0.2579  0.0594 -0.0731
17933W        W34067   6.626  10.559  13.172 -0.3852 -0.0839 -0.0035
17934W        W34068  15.686  17.940   4.505 -0.2384  0.2084  0.0344
17935W        W34069   9.793   5.056   3.202  0.3771 -0.1615  0.2418
17936W        W34070  12.780  15.415   0.052 -0.0773 -0.1230 -0.0488
17937W        W34071   2.194   2.919   2.221  0.0061  0.1690  0.0200
17938W        W34072   5.451  10.501   3.867  0.1631  0.1009  0.0887
17939W        W34073  16.893   0.426  14.358  0.2077  0.0295  0.0940
17940W        W34074   0.644   0.499   0.279  0.4164  0.0256 -0.2109
17941W        W34075  15.879   6.315   4.483  0.0047 -0.0848  0.1666
17942W        W34076   6.378  15.906  11.738 -0.3116 -0.0837  0.0714
17943W        W34077   6.735  11.550   1.744 -0.2468 -0.1426  0.0118
17944W        W34078  14.382   8.269  14.475  0.2247  0.0284  0.1152
17945W        W34079   3.964  10.470   2.651 -0.1502  0.1352  0.1310
17946W        W34080  15.587   3.270  14.798 -0.3881 -0.2789  0.4091
17947W        W34081   1.408   0.036   2.684  0.1488  0.2715 -0.2110
17948W        W34082   1.385   0.739   3.394 -0.1422  0.0664  0.1682
17949W        W34083   1.227  10.343  11.018  0.0839  0.1283 -0.1919
17950W        W34084  13.587   2.801   3.514 -0.1210  0.1735  0.3600
17951W        W34085   3.124   6.172  11.368  0.2518 -0.1094  0.0602
17952W        W34086   8.672  17.008  15.010  0.1989  0.0224 -0.1542
17953W        W34087   8.470   9.260   1.950 -0.2560 -0.3752 -0.2696
17954W        W34088  13.307  10.149  11.560  0.1697  0.2031 -0.0237
17955W        W34089   8.815   2.266   2.877 -0.0160  0.0166  0.0694
17956W        W34090   0.117   7.027  12.218  0.0123  0.1081 -0.1078
17957W        W34091  18.003  15.507   3.258  0.1822  0.0743 -0.1064
17958W        W34092   5.738  13.774   1.840  0.3681  0.2210  0.0392
17959W        W34093   1.717   2.690   4.213  0.2523  0.0583 -0.0174
17960W        W34094   6.016   8.165   2.748 -0.0428  0.0069 -0.0913
17961W        W34095   5.745  10.368  14.054 -0.0476  0.1139  0.1316
17962W        W34096   9.666   9.643   3.967  0.2406 -0.1507  0.0464
17963W        W34097   3.459   6.459  12.437 -0.0437 -0.0810 -0.3122
17964W        W34098  16.303   1.827   0.952  0.0106  0.0084 -0.2997
17965W        W34099   5.870   1.655  11.934  0.0931  0.1629  0.0182
17966W        W34100   2.594   0.511   3.182  0.0439  0.4646  0.2532
17967W        W34101  11.711   6.788   5.739  0.1927 -0.1178 -0.1936
17968W        W34102  12.115   9.523  10.108  0.2622 -0.0198  0.0681
17969W        W34103  10.585  13.872  12.457 -0.0409 -0.1545 -0.0300
17970W        W34104   1.963  12.642  11.756  0.3448 -0.2628 -0.0155
17971W        W34105   7.431   0.424   4.355  0.1845 -0.3791 -0.0568
17972W        W34106  14.894  14.401   4.247  0.0134 -0.2507  0.1362
17973W        W34107   5.383  11.726   1.678 -0.1160  0.4757 -0.0477
17974W        W34108  11.857   2.462   1.613  0.1666  0.2950  0.1800
17975W        W34109  13.403   5.922   2.488 -0.1191  0.1713  0.3624
17976W        W34110   9.348   5.575  12.813  0.0940 -0.0802  0.2303
17977W        W34111  18.197   7.297   1.810 -0.0704  0.2558 -0.1014
17978W        W34112   7.430  17.540  10.273  0.1085  0.0194  0.3515
17979W        W34113  16.105  12.201   3.647 -0.0831  0.1644  0.1526
17980W        W34114  17.428  11.867  12.050  0.1476 -0.0447  0.0455
17981W        W34115   1.034  17.224   1.192  0.1135 -0.2042  0.0269
17982W        W34116   2.893   4.697   3.713  0.0311  0.1025 -0.4993
17983W        W34117   5.429   5.451  14.115  0.0875 -0.0738 -0.1236
17984W        W34118   5.525  10.839   4.573  0.0614 -0.4490 -0.1395
17985W        W34119  15.386   5.444   3.616  0.2156 -0.0181  0.2751
17986W        W34120  14.231   8.126  14.907 -0.1729 -0.0442  0.4802
17987W        W34121  18.471   1.006   2.169  0.1709 -0.0379 -0.2684
17988W        W34122  10.653   3.424   3.676 -0.1279  0.0969 -0.0622
17989W        W34123  14.100  11.394   2.113 -0.1429 -0.1214  0.0167
17990W        W34124  12.241  13.029  11.590 -0.1107  0.2264 -0.0353
17991W        W34125   7.009   9.109  13.460  0.1372  0.1556  0.3798
17992W        W34126   6.612   6.664   1.181 -0.0037 -0.1927  0.1666
17993W        W34127   0.742   2.823   5.210  0.3431  0.0497  0.2590
17994W        W34128   2.733   6.329   0.505 -0.1324  0.1687 -0.2650
17995W        W34129  16.733  13.504  14.464 -0.3410  0.0731  0.2603
17996W        W34130  10.218   2.801   5.434 -0.3845 -0.1957  0.0175
17997W        W34131   2.690   6.304  15.035 -0.2702 -0.1116 -0.2918
17998W        W34132  11.077  13.442   0.216 -0.2305 -0.1553 -0.0928
17999W        W34133  10.352  14.968  14.382 -0.0928 -0.0657 -0.1716
18000W        W34134  11.750  12.349   3.665 -0.0341  0.1696 -0.0845
18001W        W34135  14.227   8.691  14.727  0.4470 -0.0715 -0.0235
18002W        W34136   5.240   5.817  10.614 -0.0739  0.1674  0.1099
18003W        W34137   6.702   4.419   0.530 -0.0464 -0.0230  0.1482
18004W        W34138  10.709   9.302   2.289  0.0446 -0.0560 -0.1369
18005W        W34139  14.120  18.737  12.904  0.0307  0.0744 -0.1376
18006W        W34140  17.051   3.522   5.467 -0.0898  0.0355  0.0190
18007W        W34141   3.689   4.389  12.678  0.0496 -0.0291 -0.0204
18008W        W34142   0.788  17.206  14.393 -0.2194 -0.1054 -0.0470
18009W        W34143  12.892   5.932   1.983 -0.3783  0.1942  0.0947
18010W        W34144   2.595  11.921  13.080  0.0006 -0.1500  0.4470
18011W        W34145  11.255  18.024  12.049 -0.2557  0.0854 -0.1978
18012W        W34146  11.717   3.465   5.516 -0.2544 -0.0052  0.0418
18013W        W34147  14.852   3.560  13.421 -0.1530  0.0681 -0.2228
18014W        W34148   6.458  19.121  12.762 -0.1816 -0.0046 -0.0963
18015W        W34149   2.385  17.354   1.688 -0.3390  0.3756 -0.0731
18016W        W34150   6.328   2.911  13.078  0.2864  0.0462  0.0945
18017W        W34151   6.846  16.693  12.471  0.1666 -0.0080  0.1938
18018W        W34152  10.758   9.297  11.734  0.0013 -0.3940  0.2522
18019W        W34153   3.238  16.427  12.309 -0.0573 -0.0284 -0.3639
18020W        W34154  16.600  11.514  13.383 -0.0099 -0.3119  0.0302
18021W        W34155  14.947   1.802   1.659  0.0769  0.1938  0.4620
18022W        W34156   6.479   0.948  13.565 -0.3762 -0.0905  0.1325
18023W        W34157   4.094   8.232   0.465 -0.0307  0.2117  0.0700
18024W        W34158   9.822   3.050   0.666 -0.0161  0.2400 -0.1478
18025W        W34159   8.463  14.018   5.721  0.4731 -0.0187 -0.1639
18026W        W34160  11.642  10.666  13.491 -0.0553 -0.2243  0.0327
18027W        W34161  15.141  11.280  11.113  0.1220 -0.2221 -0.1190
18028W        W34162  12.738  13.429  10.532  0.1454 -0.0597 -0.1689
18029W        W34163  12.002  18.762   1.732  0.2419  0.0047 -0.3753
18030W        W34164   7.557   2.950   4.895  0.0427  0.0085 -0.1158
18031W        W34165  17.793   4.631  11.667 -0.0197 -0.0742 -0.0505
18032W        W34166   0.356  11.249  10.509 -0.3666  0.1468 -0.1183
18033W        W34167   6.881  10.943  11.913 -0.0105  0.1108  0.0869
18034W        W34168   3.312   1.786   4.186 -0.1377 -0.1800  0.0775
18035W        W34169   6.845  17.171  12.501  0.1473  0.1406  0.0014
18036W        W34170   4.409   4.596  12.383 -0.0734  0.1605 -0.0717
18037W        W34171   8.180   9.995   3.256 -0.1016 -0.5156  0.0853
18038W        W34172   8.787  16.542  14.451  0.1351 -0.1697 -0.1248
18039W        W34173   1.623   9.214   0.405 -0.2473 -0.0531 -0.0523
18040W        W34174   4.359   1.521   1.752  0.0760  0.1238 -0.0142
18041W        W34175   1.713  14.370  14.300 -0.1665 -0.0461  0.2178
18042W        W34176  10.690   9.654  10.357  0.3454 -0.1609  0.3073
18043W        W34177   3.501   4.857   4.532 -0.0049 -0.2101  0.0739
18044W        W34178  10.642  11.200  10.377  0.1195 -0.1784  0.0014
18045W        W34179  13.304   1.945   1.602 -0.2133  0.1869  0.1575
18046W        W34180   4.121  15.228   1.115 -0.0342  0.1272  0.2357
18047W        W34181  19.084  17.740   1.374  0.1970  0.1834  0.4739
18048W        W34182  11.440   8.349  13.524  0.0623 -0.2878 -0.1460
18049W        W34183   8.840   3.452  13.342 -0.0038 -0.1802  0.1909
18050W        W34184   2.750  11.274   0.682 -0.0589 -0.2469  0.0242
18051W        W34185   3.340   5.176   0.196 -0.2182  0.3515  0.0609
18052W        W34186   4.442  10.342   5.349 -0.1301 -0.2065 -0.2289
18053W        W34187   7.849   9.121   3.203  0.1724 -0.0690 -0.0091
18054W        W34188  10.763  13.889   4.248  0.2922 -0.0243 -0.3822
18055W        W34189  15.909   8.279  11.270  0.3295  0.0859 -0.2724
18056W        W34190   8.861  13.895  10.322 -0.0486  0.1032 -0.1785
18057W        W34191   3.140  16.734   1.442 -0.3248 -0.2002  0.1457
18058W        W34192  12.938   7.794   1.991 -0.0918  0.0304 -0.1912
18059W        W34193  18.865  12.720   5.813  0.2518 -0.0802  0.0752
18060W        W34194  12.676   5.157  13.711  0.1161  0.0450 -0.0149
18061W        W34195   5.395   2.820  11.213 -0.1743  0.1028 -0.0510
18062W        W34196   8.341   7.452  11.987 -0.0035  0.0121 -0.1089
18063W        W34197   1.692  10.312  11.979  0.0341  0.1742 -0.0590
18064W        W34198  17.063   9.422  14.167 -0.0513  0.3711 -0.0399
18065W        W34199  14.821  16.915  12.340  0.1620  0.1806 -0.1016
18066W        W34200  18.916   8.811  10.938 -0.1433  0.0013 -0.0651
18067W        W34201  17.630  14.211   4.821 -0.1990 -0.0641  0.0954
18068W        W34202   2.250  13.577  14.282  0.1486  0.3807  0.1312
18069W        W34203   6.238  14.899   2.430 -0.0127 -0.3634  0.4488
18070W        W34204   2.237  14.333  10.974 -0.1621 -0.2724  0.2681
18071W        W34205  17.261   7.207   3.235 -0.1455 -0.1364  0.1002
18072W        W34206  17.995   8.341   0.498 -0.2112  0.1850 -0.1713
18073W        W34207  17.226  16.418  10.941  0.1044  0.2375 -0.1720
18074W        W34208   3.427  18.127   3.057  0.0157 -0.3928 -0.1548
18075W        W34209  13.934  14.657  12.207 -0.0827 -0.0834 -0.0374
18076W        W34210   3.402  16.376   9.453 -0.0775 -0.1676 -0.0463
18077W        W34211   1.938   4.367  11.626  0.1999  0.2039  0.3906
18078W        W34212  17.988   0.150   3.116 -0.1501 -0.1005  0.2057
18079W        W34213  13.709  17.599  10.274 -0.0417 -0.1741 -0.3612
18080W        W34214   0.451  15.130   2.764 -0.2757 -0.1499 -0.1265
18081W        W34215  19.224   7.425   2.448  0.1171  0.0717  0.0816
18082W        W34216   0.244   6.120   1.469  0.3718 -0.1198  0.0273
18083W        W34217  16.897   0.993   2.427  0.1217  0.1752  0.1592
18084W        W34218   8.445  11.068   0.724  0.0386  0.0507 -0.1467
18085W        W34219  17.569  17.614   5.743  0.4190  0.2532  0.0143
18086W        W34220  16.541   4.268  11.844  0.0085  0.3793 -0.2771
18087W        W34221  16.069   7.678   2.891 -0.1704  0.2874  0.0508
18088W        W34222  13.928   2.601  10.117 -0.1214  0.2639 -0.0966
18089W        W34223  10.822   3.402  11.302 -0.0925  0.2787  0.1331
18090W        W34224  15.376   2.086   5.353 -0.1739 -0.0516 -0.1420
18091W        W34225  10.536   3.483   1.021 -0.0847  0.1957 -0.1562
18092W        W34226   0.441  12.230   3.988 -0.0435  0.0036 -0.0138
18093W        W34227   7.057  16.969  11.779  0.1948  0.0833  0.2520
18094W        W34228  13.390   9.114   0.753 -0.1601  0.2236  0.0952
18095W        W34229  14.599   5.732  11.896  0.1061  0.1022 -0.1174
18096W        W34230  13.553   4.763   2.377  0.0792  0.0837 -0.0121
18097W        W34231   4.777  18.929   1.268 -0.0563  0.0756 -0.0206
18098W        W34232   7.516   0.406  11.040  0.0943 -0.0113  0.0087
18099W        W34233  10.024   3.174   4.059  0.0421  0.0834  0.0335
18100W        W34234   5.963  18.172  14.182 -0.4049  0.2486 -0.0145
18101W        W34235   6.521   8.700   4.115  0.1607  0.2934  0.0895
18102W        W34236  11.516   7.283  12.857  0.3043 -0.1258  0.3662
18103W        W34237   2.439  15.147   4.744  0.3110 -0.1891  0.0891
18104W        W34238   7.589  12.370  13.399  0.1991  0.0482 -0.0583
18105W        W34239  14.217   2.737   5.305  0.0865 -0.0228  0.0437
18106W        W34240   8.498   7.682  13.003 -0.0847  0.0299  0.0129
18107W        W34241   6.392   8.131   4.866 -0.0440  0.0413  0.0671
18108W        W34242  14.422  10.030  12.895  0.0018  0.0924 -0.0639
18109W        W34243   7.135  10.228  14.594 -0.0424  0.2069 -0.3258
18110W        W34244  18.632  13.381  13.133  0.1270  0.1859 -0.1090
18111W        W34245  14.898   3.372  11.253  0.1092 -0.1095  0.2838
18112W        W34246   5.031  18.806   2.972  0.2970  0.0011 -0.0702
18113W        W34247  11.489  11.142  10.837 -0.2200 -0.2546 -0.0838
18114W        W34248  15.538   4.536   0.223  0.2757 -0.1985  0.1386
18115W        W34249   3.589   8.486   4.079 -0.2644 -0.0976 -0.1635
18116W        W34250  15.239   1.011  14.558 -0.1949 -0.3171 -0.0917
18117W        W34251  10.509   3.611   9.725 -0.0826  0.1302 -0.1473
18118W        W34252  14.398   7.837   1.667 -0.0751  0.0109 -0.0131
18119W        W34253   2.836  16.189  10.270  0.0582  0.1172 -0.1568
18120W        W34254   0.359  13.618  13.854 -0.1876 -0.0714  0.1221
18121W        W34255   1.194  11.329   1.508  0.2319  0.0979  0.1597
18122W        W34256   7.926   2.875   2.670 -0.0244 -0.2611  0.1928
18123W        W34257   3.109  15.034  14.641  0.1551 -0.0751  0.1959
18124W        W34258   0.534   9.971  11.292 -0.5026 -0.2876  0.1275
18125W        W34259  16.992   6.661   2.532 -0.1450 -0.1205 -0.0620
18126W        W34260   7.612   0.252  13.903 -0.0727  0.0704  0.1915
18127W        W34261   6.864  17.840  11.949  0.1181 -0.0435 -0.2643
18128W        W34262   0.041   4.028   3.054  0.2246  0.3261  0.2108
18129W        W34263   1.748   9.568   2.775  0.0352  0.1079 -0.0207
18130W        W34264  15.542   5.879   4.479  0.0660  0.0909 -0.4178
18131W        W34265   3.013  12.946   3.045  0.2316 -0.2385 -0.0294
18132W        W34266   4.557  18.956  11.133 -0.0759  0.1569  0.0832
18133W        W34267   3.308  18.826  13.162  0.5901 -0.3808 -0.0041
18134W        W34268  14.447  17.317   9.737  0.0341  0.0282 -0.4423
18135W        W34269   0.578   1.697  13.677 -0.4492 -0.2252 -0.0780
18136W        W34270  10.187  11.251   1.931 -0.2448  0.2999 -0.4404
18137W        W34271   6.021  16.523  11.296 -0.0798 -0.2376  0.1094
18138W        W34272  12.296   5.296  13.260  0.0182 -0.2817  0.1697
18139W        W34273  14.313  18.627  14.810  0.1440 -0.2474 -0.2911
18140W        W34274   4.207  17.880   4.495  0.0104  0.2806 -0.2219
18141W        W34275  17.311  17.057  12.387 -0.0892 -0.1642 -0.0665
18142W        W34276   0.041   8.789   3.677 -0.1022  0.0231 -0.2062
18143W        W34277   7.331   4.210   1.682  0.0487  0.2015  0.0212
18144W        W34278  17.030   1.319  14.445 -0.1512  0.1522  0.3470
18145W        W34279   1.716  10.016  14.289  0.1756 -0.2030 -0.1003
18146W        W34280   5.028   8.105   3.859  0.3403 -0.1262 -0.0918
18147W        W34281  12.852  12.205   2.964 -0.0697  0.0471 -0.1247
18148W        W34282  16.683  12.181   3.623  0.1165 -0.1027  0.1094
18149W        W34283  12.127  17.820   2.721  0.1142  0.4615  0.0022
18150W        W34284  12.125   0.188   5.654  0.0391  0.3501  0.0719
18151W        W34285  14.812  13.769  12.434 -0.1021 -0.0252 -0.0558
18152W        W34286   6.709   4.345  14.932 -0.0908  0.0600  0.0089
18153W        W34287  16.050  15.834  13.280 -0.2231  0.2713 -0.1885
18154W        W34288  10.218  15.599   5.641  0.0074  0.1190 -0.2055
18155W        W34289   3.626   3.488   2.098  0.1263 -0.2708  0.1313
18156W        W34290  11.186   5.981  13.755  0.1162  0.4405  0.2398
18157W        W34291   9.055   3.304   1.579  0.0351 -0.0477 -0.3700
18158W        W34292  17.879  14.998  10.966  0.2956 -0.0891  0.3028
18159W        W34293  11.854  16.394   5.516 -0.0196 -0.2126  0.0684
18160W        W34294   8.617   8.871  12.285 -0.1491  0.1545  0.1187
18161W        W34295   7.506   3.693   8.883  0.1988  0.1994  0.0447
18162W        W34296  15.575   1.391   0.671 -0.0019 -0.2341 -0.2345
18163W        W34297  18.939  13.243   4.626 -0.1837  0.0578  0.1629
18164W        W34298   7.738  16.819  14.693  0.1123 -0.0387 -0.0003
18165W        W34299   6.526  11.232  14.548 -0.1179 -0.2122 -0.0626
18166W        W34300   4.625   1.510  12.858  0.0630  0.1721 -0.0848
18167W        W34301  15.702   3.717  14.780  0.1190 -0.1262  0.2355
18168W        W34302  11.182   4.898   0.265  0.1712  0.0301 -0.0846
18169W        W34303   5.524  17.264   2.157  0.0892  0.0965 -0.0090
18170W        W34304  15.466   0.245  11.698  0.0415 -0.4298 -0.4823
18171W        W34305  11.339  12.286   3.408  0.0431  0.0626 -0.0673
18172W        W34306  10.389   7.873   1.391 -0.1246 -0.0520 -0.1946
18173W        W34307  18.346   5.176  15.037 -0.1701 -0.0291  0.4630
18174W        W34308  11.235   5.938   2.168 -0.3440 -0.0497 -0.0219
18175W        W34309  16.578  18.173   1.441 -0.1509 -0.0247  0.1148
18176W        W34310  16.818   8.445   1.502  0.0041  0.0064  0.0815
18177W        W34311   1.261   7.926  14.336  0.2515 -0.0890  0.0546
18178W        W34312   3.217   5.346  12.963  0.0207 -0.1070 -0.2218
18179W        W34313   9.032   4.927  12.084  0.2429  0.0193 -0.2871
18180W        W34314  19.236  18.776   1.697  0.2757  0.0940 -0.0608
18181W        W34315  15.424   3.069   5.246 -0.1986  0.1165 -0.3634
18182W        W34316   4.996  11.284   3.141 -0.1396  0.1022  0.1973
18183W        W34317   0.388  15.808   5.043 -0.2359  0.1930 -0.1711
18184W        W34318  19.112   6.510  12.807  0.0942 -0.1705 -0.1176
18185W        W34319   3.446  12.473   2.442  0.0173  0.1904  0.4369
18186W        W34320  11.151  16.556  15.030  0.0673 -0.0765 -0.1348
18187W        W34321   0.150   0.154   1.199 -0.3657  0.2116 -0.1473
18188W        W34322   4.713  17.965  10.608  0.1168 -0.2296 -0.3059
18189W        W34323   6.050  13.905  13.486  0.1851 -0.1189  0.0362
18190W        W34324  12.987   7.959  12.464  0.0341 -0.0224  0.1501
18191W        W34325  14.061   9.688  11.574  0.0047 -0.1095 -0.0235
18192W        W34326   9.899   1.959  13.467 -0.1539  0.2459  0.2178
18193W        W34327   6.573  14.497   1.094 -0.2612  0.1734  0.3162
18194W        W34328   0.550  17.532  13.126  0.1682 -0.3399  0.1578
18195W        W34329   6.952   7.643   3.550 -0.4361  0.0010 -0.1021
18196W        W34330  14.619   0.414  11.129  0.2764  0.2793 -0.0517
18197W        W34331   6.214   1.412   0.084 -0.0390  0.0379 -0.2258
18198W        W34332  10.061  15.449  12.707  0.2201 -0.1121 -0.0906
18199W        W34333  14.775   2.652   5.294 -0.0778 -0.4353  0.0009
18200W        W34334  18.351   3.932  12.510  0.2422  0.0146 -0.5215
18201W        W34335   3.912  17.199  11.429  0.0382 -0.1017  0.0299
18202W        W34336  15.502   8.067   0.638  0.1298 -0.3142 -0.3208
18203W        W34337   2.959   6.626  12.529  0.2630  0.1555  0.1107
18204W        W34338  10.262   6.380  11.837 -0.1711 -0.1015 -0.0084
18205W        W34339   3.407   5.368   5.626  0.0336  0.0682  0.0933
18206W        W34340   6.110  12.155   1.472  0.0412 -0.0873  0.3243
18207W        W34341   9.127   2.799   1.317 -0.1535  0.3059  0.3275
18208W        W34342  16.637  17.846   9.799  0.0132 -0.0382 -0.2774
18209W        W34343  15.313  15.599   0.708  0.0666  0.0534 -0.0652
18210W        W34344   4.503   1.658  11.181  0.0246  0.0619 -0.3610
18211W        W34345   2.573   7.204   1.264 -0.1911 -0.1561 -0.0028
18212W        W34346  10.892   0.498  13.278 -0.0569  0.4386  0.2880
18213W        W34347  14.150  16.988  13.126  0.0135 -0.1231  0.1098
18214W        W34348   7.729  11.765   1.310 -0.1513  0.0416  0.3325
18215W        W34349   8.838  10.876  12.806  0.1138 -0.1418  0.0874
18216W        W34350   0.408   9.854  13.406 -0.2844 -0.0441 -0.0211
18217W        W34351   6.817   6.015   1.166 -0.3596 -0.2889  0.1311
18218W        W34352   0.979   8.631   4.603 -0.1592 -0.3068 -0.1636
18219W        W34353   7.701   3.122   1.041 -0.0813  0.2982 -0.3096
18220W        W34354  11.958   1.882  10.508  0.2342 -0.0034 -0.2418
18221W        W34355   5.385   7.217   3.595  0.0479 -0.2391 -0.1536
18222W        W34356  11.765  15.502   4.342  0.0439 -0.1948  0.2665
18223W        W34357   1.907  15.167  13.758  0.2220 -0.0619 -0.2286
18224W        W34358  18.045   5.859   0.192 -0.0035  0.1233  0.0096
18225W        W34359  10.858   2.187   3.518 -0.0092 -0.2509 -0.2129
18226W        W34360   4.256   5.805   1.755  0.0105 -0.0338  0.1620
18227W        W34361   3.030   1.784  11.814 -0.3839  0.1579  0.1032
18228W        W34362   8.383  13.403   1.261  0.0279  0.2822  0.0399
18229W        W34363  14.817  14.837   5.104  0.1067  0.2535  0.2458
18230W        W34364  17.311  15.318  13.935 -0.2874 -0.1432  0.1037
18231W        W34365   2.354   7.548   1.000  0.3461 -0.3059  0.2111
18232W        W34366   8.903  16.569   0.476  0.3654  0.2127  0.0152
18233W        W34367   1.280   0.770  13.385  0.0131  0.1779 -0.1378
18234W        W34368  13.473   7.823  12.212 -0.0483 -0.2762  0.3205
18235W        W34369  18.218   3.933  14.015 -0.0707 -0.1484  0.1872
18236W        W34370  17.865   6.032  11.020 -0.0203 -0.3176 -0.0351
18237W        W34371   9.729  15.859  10.319  0.1036  0.0020 -0.0721
18238W        W34372   3.082   9.461   2.128  0.2049 -0.0013  0.0061
18239W        W34373   4.594  18.430  12.436  0.1539 -0.1823 -0.3443
18240W        W34374  15.860  15.851   0.785  0.2743 -0.1332 -0.1537
18241W        W34375   9.716  10.792   9.760 -0.1401 -0.3120  0.2992
18242W        W34376   9.406  13.190   3.263 -0.1786 -0.1755  0.0680
18243W        W34377  14.882   9.861   2.213  0.0033  0.4063  0.2515
18244W        W34378  12.846  18.455   1.946 -0.2749  0.0963  0.0449
18245W        W34379   3.584   9.615   2.078 -0.0390 -0.1765 -0.0239
18246W        W34380   1.019   9.280  10.865  0.0909 -0.0731 -0.0422
18247W        W34381   8.794  12.410  14.025  0.1294 -0.1120  0.0684
18248W        W34382  11.636   6.072  14.044  0.0883 -0.2134  0.1689
18249W        W34383  15.182  15.807   2.052 -0.0629  0.0169 -0.1890
18250W        W34384   9.166   6.392  11.585  0.3831  0.0666  0.3342
18251W        W34385  18.291  16.366  10.977 -0.1658 -0.1601  0.0719
18252W        W34386   5.058   8.909  14.709  0.3347 -0.1583  0.3026
18253W        W34387   4.696   6.488   3.824  0.1996 -0.3186  0.1448
18254W        W34388  13.788   5.690   2.067 -0.0199  0.1744 -0.2447
18255W        W34389   4.139  14.196   2.410  0.3730 -0.1295 -0.1977
18256W        W34390  15.122  12.799  13.116 -0.0503 -0.0884  0.1176
18257W        W34391  17.103   4.623   0.718  0.4006  0.4650 -0.1085
18258W        W34392  18.517  11.708   3.894 -0.2224 -0.0532 -0.2147
18259W        W34393   8.143  12.910  14.372 -0.0167 -0.1018 -0.2405
18260W        W34394   1.398   7.423   2.804 -0.0425 -0.2161 -0.0204
18261W        W34395  16.516   5.772  10.845  0.1305 -0.4341  0.0089
18262W        W34396   2.969   2.375   0.960  0.2162 -0.0165  0.0473
18263W        W34397  15.192   9.654   4.669 -0.0134 -0.0221 -0.2175
18264W        W34398   1.588   3.515  14.565  0.1129  0.0248  0.1832
18265W        W34399   2.475   8.177   1.614 -0.1108  0.0507  0.0016
18266W        W34400  10.580  14.774  12.831  0.2427  0.2762 -0.1320
18267W        W34401  17.160  13.817   1.025 -0.0749  0.0191  0.3019
18268W        W34402  13.681  14.885  11.843  0.0354 -0.0386 -0.0797
18269W        W34403  13.856   2.880   0.625 -0.3617 -0.1678  0.3753
18270W        W34404   2.268  13.313   3.888 -0.3876  0.0572  0.1052
18271W        W34405  12.695  17.470   0.299 -0.2540  0.2194  0.1720
18272W        W34406  10.812  16.588   4.805 -0.3671 -0.0717 -0.5074
18273W        W34407   1.692  14.087  12.843 -0.0405  0.0045  0.0340
18274W        W34408  13.289  15.656   5.827  0.1055 -0.0631 -0.0223
18275W        W34409   1.103  18.014  12.346 -0.0840 -0.5339 -0.1901
18276W        W34410  12.685  13.664   3.050 -0.0254 -0.0548 -0.1348
18277W        W34411   4.966  14.815  13.839  0.0778  0.1584  0.2000
18278W        W34412   5.499  10.977  11.166  0.0056  0.0627  0.1834
18279W        W34413  12.513   8.053  13.386  0.3293  0.0578 -0.2628
18280W        W34414  18.007   4.582   5.088  0.0388 -0.2647  0.2389
18281W        W34415  13.792  19.144   5.194 -0.3037 -0.0844  0.3805
18282W        W34416   8.403   9.178  13.905  0.1432 -0.3355 -0.1686
18283W        W34417   1.149   6.820   4.639 -0.4967 -0.0635 -0.2869
18284W        W34418   1.137   7.123  14.161  0.1233  0.1472  0.2522
18285W        W34419   0.344  13.330   0.551  0.0575  0.0879  0.0492
18286W        W34420  16.200  18.857  12.910  0.0972 -0.1064 -0.2271
18287W        W34421  18.083   2.514   0.695  0.2231 -0.0235  0.0004
18288W        W34422   9.816   9.812  13.887 -0.1637 -0.1201 -0.0640
18289W        W34423  18.660  14.296   3.054 -0.0635  0.0307 -0.1030
18290W        W34424   0.261   0.967  14.136 -0.3190 -0.0468  0.2301
18291W        W34425  10.182  17.383   4.321 -0.2780  0.1819 -0.2212
18292W        W34426   7.932  13.173   2.475  0.2556  0.0370  0.3935
18293W        W34427   3.957   3.452   4.225  0.2823  0.1994 -0.0398
18294W        W34428   6.606   5.762   1.680  0.0962 -0.1307 -0.1529
18295W        W34429  17.193  17.467  13.179  0.1786 -0.0966 -0.0123
18296W        W34430   9.777   3.751  14.202  0.0575  0.1437  0.2370
18297W        W34431  16.149  11.418   4.185  0.1861 -0.0187 -0.1929
18298W        W34432  13.148   7.501  11.962 -0.3087 -0.0249  0.0897
18299W        W34433   1.256  11.442   4.604  0.2434  0.2721  0.1710
18300W        W34434   4.886  17.490  10.447 -0.4684  0.1920 -0.0791
18301W        W34435   2.652   4.473  10.446  0.0155 -0.3084  0.0602
18302W        W34436  15.055  15.617  14.207 -0.0058 -0.2372 -0.2238
18303W        W34437  17.170   2.144  14.184 -0.3066 -0.0672  0.4426
18304W        W34438  12.916  18.838   3.360 -0.1426  0.1094 -0.2840
18305W        W34439  15.215   6.474   1.248 -0.1276  0.3866 -0.2459
18306W        W34440   1.814  17.488  14.539  0.0262  0.0624 -0.0172
18307W        W34441  12.080  17.968   4.447  0.3110 -0.0454 -0.0194
18308W        W34442  12.706   9.457   1.993 -0.1220 -0.2733 -0.1381
18309W        W34443  14.202  17.428   3.053  0.1168 -0.2534  0.3890
18310W        W34444  18.296   8.447  11.974  0.1373  0.2121  0.1838
18311W        W34445  17.325   1.704   2.652  0.0586  0.1029 -0.1880
18312W        W34446  18.272   6.575   3.620  0.2673  0.0563  0.1543
18313W        W34447   0.955  13.789   3.843  0.1387  0.0105  0.0689
18314W        W34448   3.393   0.094   1.156  0.0173  0.0735 -0.3565
18315W        W34449   0.996   8.196  12.355  0.0128 -0.0434 -0.0130
18316W        W34450   5.895   6.695   5.466  0.2679  0.4572 -0.2915
18317W        W34451  17.319   2.568  14.580  0.0905 -0.0365  0.1782
18318W        W34452   5.251   4.166   0.573 -0.1252  0.2054 -0.1242
18319W        W34453  15.702  16.431   4.622 -0.3031  0.0910 -0.0828
18320W        W34454  14.454  12.999  12.399  0.1849 -0.0079 -0.0491
18321W        W34455  18.062  12.146   4.595 -0.1886 -0.2889 -0.1098
18322W        W34456   3.970  11.818  10.602 -0.0073  0.0324  0.0654
18323W        W34457  17.133   9.138  10.720 -0.2341  0.0869  0.2525
18324W        W34458   7.420   6.303  11.907 -0.0316 -0.3487 -0.0881
18325W        W34459  12.630  14.845  14.908 -0.0398 -0.0383 -0.1988
18326W        W34460  13.367   3.068   2.129  0.1695 -0.0693  0.3535
18327W        W34461   7.309  10.980   1.176 -0.2743 -0.0427 -0.0862
18328W        W34462  14.810   7.546  13.778  0.0278  0.0034  0.1828
18329W        W34463   3.099   2.466   9.543 -0.1459  0.0819 -0.2219
18330W        W34464   4.254   1.146   0.829 -0.0855  0.1926  0.0278
18331W        W34465   8.211   5.277   5.378  0.0386 -0.2059 -0.0537
18332W        W34466  12.849  12.279  12.443  0.1342  0.0167  0.0718
18333W        W34467   7.453  10.501  14.278  0.3020 -0.0271  0.0411
18334W        W34468   9.747  18.481  14.757 -0.3435 -0.1741 -0.3504
18335W        W34469   7.687  13.509  11.343  0.1840  0.1946  0.1181
18336W        W34470  18.526  12.357  14.361 -0.1918  0.0552  0.1307
18337W        W34471   8.303   6.965  14.544  0.1459 -0.1533  0.0313
18338W        W34472   7.675  14.853   0.845 -0.0167 -0.2463 -0.0952
18339W        W34473   3.435  12.265  10.299  0.2411  0.2027  0.3237
18340W        W34474   3.417  14.513  12.798  0.1574  0.0003 -0.0050
18341W        W34475   2.586  17.559  13.274 -0.2486  0.1047  0.0504
18342W        W34476   0.100   8.445   2.725  0.0711  0.0528 -0.4069
18343W        W34477   8.519  17.891  14.500 -0.0541  0.0679 -0.1877
18344W        W34478   5.612   5.662   2.075  0.1007  0.1305 -0.0227
18345W        W34479   8.647   8.399   1.446 -0.2043 -0.0829  0.0235
18346W        W34480   9.763   9.606   1.263  0.5246  0.2107 -0.1709
18347W        W34481  12.943  13.398   1.090  0.1316  0.0143 -0.0543
18348W        W34482   1.656   1.000   2.916 -0.0164  0.0707  0.3515
18349W        W34483  10.258   0.277  12.316 -0.4021  0.1268 -0.0819
18350W        W34484  10.872   1.006   4.241 -0.0357 -0.1831  0.3577
18351W        W34485   0.566   8.699   3.624 -0.2010  0.1578  0.0456
18352W        W34486   0.942  13.832  10.596  0.1774  0.4413  0.1832
18353W        W34487   4.729   4.119  11.835  0.1374 -0.1615  0.2947
18354W        W34488   4.396  11.111  11.092  0.0904  0.0267 -0.1664
18355W        W34489   6.070   8.302   4.285 -0.0398 -0.1628  0.1568
18356W        W34490  15.773  17.916  13.015 -0.2993 -0.2115 -0.2742
18357W        W34491   3.231   6.373  13.941  0.0580 -0.2312 -0.0390
18358W        W34492  17.097   4.074   1.532  0.0757  0.0496 -0.0847
18359W        W34493  15.161  18.222   2.615  0.1963 -0.1351  0.1109
18360W        W34494   1.075   6.745  14.458 -0.2512  0.0702 -0.1288
18361W        W34495  19.133   6.734   4.985 -0.0403 -0.1975 -0.0222
18362W        W34496   3.679   3.760  11.896 -0.2654  0.0660  0.1605
18363W        W34497   3.711   5.084   0.596 -0.1649 -0.2629  0.0865
18364W        W34498  13.018  17.299   3.017 -0.1042 -0.1950  0.0635
18365W        W34499   5.971  18.701  10.464 -0.2223 -0.0042  0.3519
18366W        W34500  18.513   4.020   3.982 -0.0172  0.1204 -0.0490
18367W        W34501   9.888  16.440  10.565  0.0341  0.0206 -0.1636
18368W        W34502   4.806  12.462   1.535  0.0382 -0.1823 -0.0578
18369W        W34503   5.695  18.736   1.264  0.1896  0.3072  0.3501
18370W        W34504   6.188  10.253  13.323  0.2205  0.0942 -0.0551
18371W        W34505  13.571  14.043   0.612 -0.0035  0.2292 -0.0702
18372W        W34506   0.361  11.408   1.739 -0.0575 -0.2041 -0.1071
18373W        W34507   9.745   8.004  14.241 -0.0772  0.1515  0.0914
18374W        W34508   0.429  17.598   3.394 -0.1564  0.2124  0.1886
18375W        W34509  11.065  13.897  14.987 -0.0942  0.4173 -0.0950
18376W        W34510  19.071   1.220   3.809  0.0562  0.2358 -0.0262
18377W        W34511  18.423  19.044   0.751  0.5162 -0.1384 -0.1023
18378W        W34512  17.117  15.342   1.951  0.2055 -0.0078 -0.0642
18379W        W34513  14.390  17.064   0.419  0.1262 -0.0060  0.2379
18380W        W34514   2.771  15.630  13.677  0.2632  0.0382 -0.0628
18381W        W34515  16.247   0.525   2.041 -0.1569  0.0639  0.2172
18382W        W34516  17.684  13.995   1.578  0.0959 -0.0326 -0.1128
18383W        W34517  16.171  16.961   2.274  0.2706  0.3436 -0.2714
18384W        W34518  13.688   9.847   5.802 -0.2663 -0.1178  0.1986
18385W        W34519  12.367  18.451  11.104 -0.1111 -0.2212  0.1253
18386W        W34520  15.615  13.288   3.174 -0.0707 -0.0316  0.3813
18387W        W34521   7.741   5.746   9.618  0.0821 -0.2188 -0.0197
18388W        W34522   9.950  11.706  11.306  0.0826  0.3692 -0.0067
18389W        W34523  14.722  14.761   1.835 -0.2810 -0.3120 -0.1805
18390W        W34524  14.537   8.013   2.163 -0.1776  0.0363 -0.0440
18391W        W34525  11.854   8.026   1.593 -0.1206  0.0253  0.1615
18392W        W34526   3.880   5.026  13.654 -0.3211  0.0098 -0.2603
18393W        W34527   7.116  13.091  13.046 -0.1121 -0.0477  0.2174
18394W        W34528  18.687  11.816  10.881 -0.1364  0.1961  0.0781
18395W        W34529   9.265   0.558   3.418 -0.2992  0.1571  0.0233
18396W        W34530  13.135  13.756   2.799 -0.0296 -0.1278  0.2864
18397W        W34531   7.121   6.058   0.489  0.1232  0.1124  0.1808
18398W        W34532  15.986   0.318   4.373  0.1960  0.0494 -0.0119
18399W        W34533  18.119   1.702   1.826  0.0127  0.1164  0.1021
18400W        W34534  12.950   3.937  14.810  0.3741  0.0144 -0.0207
18401W        W34535  15.305  16.605  10.515 -0.3579 -0.1606 -0.0201
18402W        W34536  18.965   7.574   0.725 -0.2470  0.1333 -0.2874
18403W        W34537  13.972  12.745  10.800 -0.2218 -0.1493  0.0815
18404W        W34538   5.786   5.697  13.815 -0.2009  0.1648 -0.1720
18405W        W34539  15.532  16.005   4.970  0.1320 -0.2132  0.3642
18406W        W34540  11.782   9.321   5.118 -0.2959  0.1025  0.0354
18407W        W34541   1.842  10.951  10.886 -0.1841  0.0874  0.0688
18408W        W34542   7.191   5.413   3.373  0.0808  0.0456 -0.1806
18409W        W34543   1.310  18.669   0.994 -0.0106 -0.0690 -0.1067
18410W        W34544  12.727  10.822   5.619 -0.1286 -0.0640 -0.2928
18411W        W34545  11.403   9.702   2.929  0.2469  0.2192 -0.0698
18412W        W34546  10.808  18.087  14.991 -0.1168 -0.2199 -0.0307
18413W        W34547   0.893  18.534   5.158 -0.0482 -0.3160  0.0028
18414W        W34548   2.680  12.236  14.612 -0.2112 -0.0709 -0.0589
18415W        W34549   3.737  15.523   1.386  0.0066 -0.1685 -0.2363
18416W        W34550  16.787  17.614   2.082  0.0573  0.0504  0.1655
18417W        W34551  15.350   3.569   0.127  0.2259  0.1444  0.1679
18418W        W34552   1.771   2.064   0.413  0.1630 -0.0041 -0.0393
18419W        W34553   9.463  10.086   1.998 -0.1385  0.0826  0.0062
18420W        W34554   5.845  18.236   3.053  0.0733  0.2366  0.0234
18421W        W34555   9.263   7.549  14.140  0.0433 -0.1080 -0.0720
18422W        W34556  16.008  14.225  12.047 -0.0225 -0.0386  0.0873
18423W        W34557   3.762  12.885  13.425  0.3223 -0.0863  0.0816
18424W        W34558   4.248  18.856   2.934  0.0931  0.2081 -0.0295
18425W        W34559  17.424  10.671  12.061 -0.1158  0.0944 -0.0423
18426W        W34560   2.135   3.076   1.118  0.1934  0.2711 -0.0255
18427W        W34561   5.177  13.450   4.883  0.0441 -0.0629 -0.2696
18428W        W34562   9.268  19.077  14.602 -0.0556 -0.1126 -0.2806
18429W        W34563   0.673   4.295  14.383 -0.2961  0.2882  0.0330
18430W        W34564  11.298  19.070  12.271  0.2943 -0.2358 -0.0716
18431W        W34565   4.058  13.455   0.637  0.0977 -0.3614 -0.4660
18432W        W34566   3.709   6.472  13.282  0.0149 -0.1318  0.0360
18433W        W34567   9.830  13.257   0.672 -0.2117 -0.0306  0.0316
18434W        W34568   7.328   3.362   0.525  0.2436 -0.1307 -0.1581
18435W        W34569   3.605   4.768  14.592  0.1312 -0.0089 -0.4261
18436W        W34570  18.263  11.781  14.952  0.1572  0.2836  0.1675
18437W        W34571  16.127  10.035  11.631  0.1200  0.1391  0.2998
18438W        W34572  16.277  17.326   2.801 -0.0228  0.0071 -0.1761
18439W        W34573  12.654   9.215   5.108  0.0751  0.1049 -0.1257
18440W        W34574  14.658   9.007   4.638  0.2486 -0.1250  0.1056
18441W        W34575  18.035  15.525  14.514 -0.1858  0.1245 -0.0661
18442W        W34576  13.081   4.828   0.256  0.0847  0.2129  0.1186
18443W        W34577  16.803   0.006  10.832  0.0305 -0.1516 -0.2005
18444W        W34578   6.262   7.377   0.254  0.0097  0.0995 -0.2514
18445W        W34579  12.899   2.192  10.441 -0.0250 -0.4480  0.0357
18446W        W34580  17.470  18.108  12.290 -0.1950 -0.1255  0.0231
18447W        W34581  14.232   4.960  12.663 -0.0224 -0.0184  0.0815
18448W        W34582  15.350   3.581   1.901  0.3004 -0.3326 -0.2587
18449W        W34583  17.405  13.091   2.702  0.0304 -0.0805 -0.1165
18450W        W34584   8.124   0.159  12.369 -0.2802  0.5325 -0.1267
18451W        W34585  11.777  12.621  12.333 -0.0363 -0.0117  0.0510
18452W        W34586   0.194  15.075  11.170  0.3147 -0.1247  0.3198
18453W        W34587   5.953  18.992  14.014  0.2706  0.1586  0.2736
18454W        W34588   3.679   0.552   4.380  0.3061  0.0212 -0.2329
18455W        W34589  10.436  14.463  11.623  0.1543 -0.0918  0.3165
18456W        W34590   8.427   3.366   4.716 -0.0377  0.2215  0.0647
18457W        W34591   5.998  11.037  10.962  0.1995  0.1085  0.0016
18458W        W34592  18.216  17.529  14.017  0.1648 -0.1079 -0.0773
18459W        W34593   5.040   3.840   0.923 -0.1119 -0.0723  0.0981
18460W        W34594  14.511  17.792  11.977  0.1565  0.1889 -0.2531
18461W        W34595   0.596   6.070  12.762 -0.0772  0.0122 -0.3951
18462W        W34596  12.939   8.077   4.219  0.0738  0.0907 -0.1645
18463W        W34597  15.969  18.055   5.120 -0.2800 -0.1038  0.2082
18464W        W34598   3.074  15.966  12.100  0.0621  0.0982  0.2092
18465W        W34599   2.426  15.508  10.738 -0.1071  0.0687 -0.0006
18466W        W34600   5.270   3.312  11.351 -0.2666  0.1235 -0.3768
18467W        W34601  13.167   5.081   2.144 -0.0259 -0.1334  0.2130
18468W        W34602   1.861  18.187  12.806 -0.0112  0.4057  0.2758
18469W        W34603   1.372   4.048   2.561 -0.2060  0.1123  0.1344
18470W        W34604   5.289   9.096  12.198  0.3556  0.0364  0.0414
18471W        W34605  14.727  15.084  11.150  0.2246  0.0759  0.2374
18472W        W34606   6.267   8.179  14.870  0.1560  0.1349  0.0364
18473W        W34607  15.411   5.473   2.702  0.7409  0.2430  0.2047
18474W        W34608   7.911   5.459  10.364  0.0702 -0.0203 -0.1269
18475W        W34609  10.815   4.108  14.325  0.0215  0.2317  0.0100
18476W        W34610   0.688   6.628   2.162  0.0485  0.0596  0.2478
18477W        W34611  15.870  15.211  13.359 -0.0743 -0.1194 -0.4880
18478W        W34612  17.163   8.538   2.871 -0.0359 -0.5272  0.0982
18479W        W34613  16.750   5.398  12.588 -0.2448  0.3336 -0.0593
18480W        W34614   5.874   0.594  12.575 -0.0143  0.0746 -0.0134
18481W        W34615   9.369   8.286  13.954 -0.1485  0.0128  0.0114
18482W        W34616   0.086   5.876   2.374  0.3405 -0.0375  0.3090
18483W        W34617  13.415   8.038   3.536 -0.0826 -0.0478 -0.1497
18484W        W34618  17.136   3.425   4.923  0.0723 -0.2497  0.2469
18485W        W34619   7.870  16.920  12.770  0.3240  0.1524  0.0205
18486W        W34620   4.506   0.670  14.530 -0.1362 -0.0972 -0.0802
18487W        W34621   5.340  15.724   3.758 -0.1824 -0.1488  0.1570
18488W        W34622  12.285   5.750   0.570  0.3474 -0.0369 -0.0747
18489W        W34623   8.698  18.886   0.847  0.1689  0.1672  0.0805
18490W        W34624  13.682   8.221   2.168 -0.0646  0.1267  0.0040
18491W        W34625  14.816  18.893   1.860 -0.0971 -0.1759 -0.0517
18492W        W34626   2.291  10.424   4.803  0.1149  0.0495 -0.1777
18493W        W34627   2.082  10.286   3.786 -0.3414 -0.1786 -0.0715
18494W        W34628   3.047   0.089   2.410 -0.2969 -0.0456 -0.3893
18495W        W34629   1.269   3.617  11.282  0.0932 -0.2836  0.0030
18496W        W34630  15.357  13.765  11.511  0.1708  0.0568  0.1540
18497W        W34631  17.370  11.794   4.636 -0.1672 -0.1234  0.2950
18498W        W34632  13.726   4.672   5.127 -0.0422 -0.0956  0.0796
18499W        W34633   5.118   7.077   3.018 -0.2229  0.1435 -0.4139
18500W        W34634  19.047   1.662   4.124 -0.0671 -0.2468  0.0113
18501W        W34635   8.672  18.373   4.294 -0.2340 -0.1504 -0.0891
18502W        W34636   4.963   5.300   4.575 -0.2562  0.2666  0.1619
18503W        W34637  17.649   4.724  14.652 -0.2689  0.3320  0.0268
18504W        W34638  13.946  11.347   2.569 -0.0528 -0.1695 -0.4489
18505W        W34639   9.954   4.666  14.360  0.1691 -0.3035 -0.1851
18506W        W34640  14.292   2.478   4.095 -0.0621  0.0897 -0.0777
18507W        W34641   6.292   6.312   4.111 -0.0081  0.2216  0.0278
18508W        W34642  15.986   5.670  13.953 -0.1122 -0.0090  0.1044
18509W        W34643   8.390   2.104  12.446  0.2159 -0.0112  0.0892
18510W        W34644  17.770   6.352   1.381  0.0284  0.1803  0.3389
18511W        W34645  11.951  14.697   1.884 -0.1724 -0.2005 -0.2693
18512W        W34646  12.790  13.694   2.066  0.0013 -0.0646  0.0911
18513W        W34647  15.993  17.185  11.337 -0.0098 -0.3440  0.0310
18514W        W34648  10.603  13.252   4.061 -0.1649 -0.0323 -0.0391
18515W        W34649  13.882  18.804   2.871  0.1678 -0.0044 -0.0444
18516W        W34650   4.191   4.323  10.521  0.2366  0.2467  0.0766
18517W        W34651  18.863  14.409  13.950 -0.1764 -0.2206  0.1865
18518W        W34652  18.456  17.129  14.312  0.0235 -0.3961 -0.1133
18519W        W34653  15.261   3.903  14.695  0.0620 -0.0081 -0.0117
18520W        W34654   4.855   1.864   3.966  0.3742  0.0791 -0.1166
18521W        W34655   6.137  17.575  12.508 -0.0782 -0.0080  0.2477
18522W        W34656   4.892  10.086   4.122 -0.1688 -0.3928  0.0014
18523W        W34657  18.457   8.404   0.635  0.1299  0.0255  0.0484
18524W        W34658  15.237   6.873  13.226 -0.2578  0.0578 -0.0378
18525W        W34659  16.479  14.338   5.427  0.2365  0.1272  0.1552
18526W        W34660  14.909  15.621  13.228  0.1310 -0.0422  0.1950
18527W        W34661  15.784  15.581   4.707  0.1542 -0.1311  0.3157
18528W        W34662  14.377  13.427   0.660  0.2571 -0.0598 -0.2191
18529W        W34663  13.074  12.800   4.252  0.3961  0.3535  0.1459
18530W        W34664  18.415   4.732   2.028  0.0376 -0.0517 -0.0838
18531W        W34665  15.298   2.672  11.953 -0.0435  0.3815 -0.0132
18532W        W34666   8.372  10.574  11.976 -0.0937  0.0333 -0.0893
18533W        W34667   5.869  16.236  13.521  0.1816 -0.0816  0.2653
18534W        W34668   8.845   4.546   1.172  0.0111 -0.3232 -0.1555
18535W        W34669   6.102  16.868  12.013  0.1649  0.3356  0.1425
18536W        W34670  10.867  10.916   2.055 -0.2213 -0.1087  0.0743
18537W        W34671   6.836   0.300   1.202 -0.1595 -0.0078 -0.1236
18538W        W34672  17.738   4.092  11.403 -0.3690  0.1302  0.0463
18539W        W34673   5.561   6.510   1.532  0.2948  0.1329  0.2821
18540W        W34674   8.635   5.174  14.416  0.1614 -0.1526  0.0223
18541W        W34675   1.284  11.268  11.733  0.0297 -0.1612 -0.0742
18542W        W34676  10.478  14.902  11.376  0.1721  0.3412  0.0692
18543W        W34677  11.489  12.617  11.366 -0.0133 -0.0172 -0.0517
18544W        W34678   6.049  18.291   1.586 -0.2835 -0.5672  0.3499
18545W        W34679  11.314  10.336   1.203 -0.0384 -0.0818 -0.1943
18546W        W34680  15.916   4.734   0.029  0.0893 -0.2764  0.2146
18547W        W34681   8.170   0.294  12.854  0.0113  0.1770  0.1542
18548W        W34682  15.642  12.671  10.796 -0.0228 -0.0334 -0.0864
18549W        W34683   2.753   7.666   0.529  0.1867 -0.2562  0.3494
18550W        W34684  15.578   9.367   2.484  0.0915  0.1479  0.1912
18551W        W34685   1.228   5.896  11.037 -0.1665 -0.0151  0.4066
18552W        W34686  12.529   6.563   0.583  0.0924 -0.2935  0.0414
18553W        W34687   1.735   8.675   0.336 -0.2751 -0.0512  0.2557
18554W        W34688  10.586   2.251   3.120  0.2487  0.4301 -0.0778
18555W        W34689   8.887  13.700   0.703  0.1643 -0.3563 -0.0555
18556W        W34690   7.445  13.970   2.580  0.0779  0.5354  0.0375
18557W        W34691   8.559   7.168  13.059  0.2437 -0.2708 -0.1747
18558W        W34692   0.654  16.785   5.162  0.1955  0.1133 -0.1582
18559W        W34693   9.319  14.000   0.564  0.1186  0.1861 -0.0056
18560W        W34694  13.640   5.677   9.899 -0.0213  0.2450 -0.3173
18561W        W34695   6.347   4.100   2.913 -0.1636  0.0922  0.1516
18562W        W34696   0.259  16.136   2.157  0.0442 -0.1087 -0.2604
18563W        W34697   6.550  18.372  14.287  0.1894 -0.4796  0.0645
18564W        W34698  19.121   7.451   3.700  0.1450 -0.4439  0.3351
18565W        W34699   4.293   4.908   3.980  0.1934 -0.0128  0.0913
18566W        W34700  18.811  13.965   0.669  0.0837  0.1993 -0.2272
18567W        W34701  17.941   5.523   2.568 -0.0803  0.0028 -0.0330
18568W        W34702   7.417  16.534   1.918  0.1063 -0.0239  0.1285
18569W        W34703   3.669  17.180  14.410  0.0368  0.0104 -0.1052
18570W        W34704  18.469   3.886  10.847  0.6781  0.0370  0.0332
18571W        W34705   1.563  10.420   1.264 -0.1372  0.0396  0.0337
18572W        W34706   9.733  18.119   5.842  0.1952 -0.3650  0.3638
18573W        W34707  16.268   7.415  13.870  0.0818  0.2464  0.0131
18574W        W34708   3.149   4.436  12.729 -0.4284 -0.0999  0.4934
18575W        W34709  17.905   2.068   2.061 -0.3066 -0.0470  0.0618
18576W        W34710  13.669  17.396   3.110  0.1551 -0.2324  0.0807
18577W        W34711   9.704   5.285   2.713 -0.0203 -0.1927  0.2668
18578W        W34712  17.047   2.918  11.190  0.1163  0.2168 -0.0657
18579W        W34713  15.310   1.763  10.276 -0.0754 -0.1221  0.1744
18580W        W34714   1.981   4.819   0.829 -0.0262 -0.0527  0.2451
18581W        W34715   8.166  18.209  13.753 -0.3084  0.4585  0.0887
18582W        W34716  17.406  15.230   1.535 -0.0367  0.1886  0.1054
18583W        W34717  14.075   2.913  14.667  0.1155 -0.2052 -0.0764
18584W        W34718  14.399  11.312  11.615 -0.1769  0.2842  0.1866
18585W        W34719   9.788  18.880  13.883  0.2540  0.0307  0.2052
18586W        W34720  13.323   6.075  12.830 -0.0235 -0.1593  0.1161
18587W        W34721  18.418  12.778   1.920  0.4137 -0.0359 -0.1404
18588W        W34722  13.769   6.720  13.390 -0.0128 -0.2216  0.0580
18589W        W34723   7.208   7.622   4.771  0.0926  0.2000  0.0563
18590W        W34724  17.370   1.880  10.864  0.0431  0.1007 -0.2007
18591W        W34725   1.198  12.822   2.746 -0.1283  0.1087 -0.3267
18592W        W34726   1.962   4.111   1.039 -0.0979  0.0634 -0.2562
18593W        W34727   9.270   9.978  12.855 -0.3954 -0.4392 -0.1836
18594W        W34728  11.897   1.656   2.290  0.6013 -0.1439 -0.0325
18595W        W34729  15.790  10.148   3.446 -0.4313 -0.1888  0.2857
18596W        W34730  14.455  15.122   2.129  0.2573 -0.3421  0.2807
18597W        W34731   9.531   1.358   2.755 -0.1546 -0.1403 -0.0010
18598W        W34732  11.568   1.986  12.531 -0.0529 -0.1014  0.1093
18599W        W34733  17.996  18.349  12.367 -0.0030 -0.2768  0.3727
18600W        W34734  17.200  17.800   1.902  0.0617  0.1890 -0.0272
18601W        W34735   9.568  12.720  13.464 -0.2806 -0.0572  0.1269
18602W        W34736   9.431   3.539  14.989 -0.2600  0.3228  0.1868
18603W        W34737  13.808  11.781   5.529 -0.3208  0.0609  0.0346
18604W        W34738   4.415   7.339   0.380  0.2146 -0.2633  0.0867
18605W        W34739   2.406  10.942   1.010  0.1312  0.0424 -0.0531
18606W        W34740   9.694   0.169   3.686  0.1847 -0.0320 -0.2890
18607W        W34741  17.454   9.093  11.135 -0.1168 -0.1921 -0.0996
18608W        W34742  18.178   9.188   3.062 -0.0963  0.0164 -0.3662
18609W        W34743   5.037   1.522  11.150  0.2355 -0.0747  0.0913
18610W        W34744  14.334   5.506  12.444 -0.2368 -0.3819  0.0478
18611W        W34745   1.497  11.881   4.335  0.0118 -0.0880  0.1570
18612W        W34746  14.793   9.836  14.041  0.2294  0.0130 -0.1338
18613W        W34747  14.940  12.137  13.167 -0.0134  0.0468  0.1977
18614W        W34748   2.898   9.799   0.306 -0.0643 -0.2910 -0.0612
18615W        W34749  14.760  19.155  13.598 -0.1824 -0.0769  0.1462
18616W        W34750  17.628  18.099   9.639  0.5470  0.3173  0.1308
18617W        W34751   9.750   0.803   3.604  0.2462 -0.1368  0.1547
18618W        W34752  11.520   9.948  14.658 -0.1731  0.1065 -0.0669
18619W        W34753   5.142  18.404   5.475 -0.1733 -0.0207  0.0693
18620W        W34754  18.091   6.834  14.154  0.2760 -0.0804  0.1062
18621W        W34755  18.820   3.213   9.315 -0.1910  0.2769  0.0805
18622W        W34756  10.524   1.458   4.044 -0.2190 -0.0684  0.1313
18623W        W34757   8.554  10.767   3.500  0.1210 -0.0661 -0.0546
18624W        W34758  12.816  18.600  10.607  0.0751 -0.0780  0.0226
18625W        W34759   0.662   5.580  14.300  0.5149  0.2302 -0.2412
18626W        W34760  12.522  11.297   0.308  0.3109 -0.1985 -0.0739
18627W        W34761  13.984   6.775   0.934 -0.1067  0.0425  0.3309
18628W        W34762   6.663  11.072  12.359 -0.3384 -0.2635  0.0062
18629W        W34763   6.498   7.268  13.183 -0.0861 -0.0358 -0.0367
18630W        W34764   9.672   7.389  11.588  0.1372  0.1101  0.0178
18631W        W34765  12.380  14.279   4.662 -0.1338 -0.0561 -0.1913
18632W        W34766   7.047   1.415  14.493 -0.0294  0.1703  0.3580
18633W        W34767   6.502  14.033   3.473  0.0766 -0.0429  0.1188
18634W        W34768  10.036  16.981  14.180  0.1210 -0.0848  0.2677
18635W        W34769  18.369  10.565  12.561  0.0825 -0.2167  0.2479
18636W        W34770   8.012  17.210   4.662 -0.3238  0.0422  0.1292
18637W        W34771   7.330  15.075  14.375  0.1089  0.0998  0.1760
18638W        W34772   9.109   8.112  11.890 -0.0225 -0.0597  0.0244
18639W        W34773  17.780   1.759   1.108 -0.0313 -0.1534 -0.1710
18640W        W34774  18.519  16.901   2.727 -0.0511 -0.1497 -0.0546
18641W        W34775   9.099   4.716   2.249  0.3165 -0.0524  0.3416
18642W        W34776   3.702  11.501  11.887  0.1353 -0.1806  0.3903
18643W        W34777  16.640  13.006  12.417 -0.1697  0.1890 -0.1719
18644W        W34778   2.375   2.218   3.805  0.1598  0.0778 -0.1773
18645W        W34779   7.657  10.243   5.238 -0.1771 -0.0896 -0.0726
18646W        W34780  10.494   7.277   0.214  0.3623  0.1189  0.0476
18647W        W34781   9.705  14.049  13.825 -0.1400 -0.1765 -0.2067
18648W        W34782   7.345   1.637   0.300  0.2439  0.0773 -0.2357
18649W        W34783  10.489   3.771   3.256 -0.0816 -0.0378  0.3771
18650W        W34784  11.718   6.114   3.267  0.4065  0.2098  0.1102
18651W        W34785   9.678  16.340  12.494 -0.3231 -0.0721 -0.2317
18652W        W34786  17.677  16.785   3.250 -0.0190  0.1336  0.1449
18653W        W34787   5.820  19.132   9.802 -0.2056 -0.0225 -0.0675
18654W        W34788   6.417   9.272   0.661 -0.0985  0.2483  0.2219
18655W        W34789   1.454   8.294   5.268  0.2398 -0.2148 -0.3519
18656W        W34790  16.474   6.431   0.554 -0.2511 -0.0423 -0.0821
18657W        W34791   7.356  12.145   5.040 -0.2523  0.2690 -0.0293
18658W        W34792   0.211   8.087  13.470 -0.0146  0.2393  0.1799
18659W        W34793  11.967  13.082   0.162  0.0160  0.1119 -0.3173
18660W        W34794   8.364   0.034   1.336  0.1634 -0.1566  0.2810
18661W        W34795  10.538   1.412  11.556  0.2149  0.0965 -0.2719
18662W        W34796  11.987   3.370  14.387 -0.1246  0.3969  0.0251
18663W        W34797   1.504   1.135   2.495 -0.2921 -0.0415  0.2485
18664W        W34798  18.260  13.724   4.434 -0.1672 -0.0467 -0.2284
18665W        W34799  16.509   9.323  11.372 -0.3005  0.2263  0.0764
18666W        W34800  11.343   3.767  11.358 -0.1882  0.1542  0.1007
18667W        W34801  14.456  10.697   2.287  0.0574  0.0929 -0.0880
18668W        W34802   3.339   3.106  14.079 -0.0335 -0.0671  0.1293
18669W        W34803   8.904  12.864  15.014 -0.2363  0.0588  0.1549
18670W        W34804  13.797   5.583  10.927  0.1859 -0.2295 -0.3635
18671W        W34805  14.609  15.062  12.180  0.1387  0.0074  0.2572
18672W        W34806   1.084  10.138   4.146  0.4053 -0.0688  0.1386
18673W        W34807  11.749   7.649   4.005  0.2009  0.0201 -0.2153
18674W        W34808  18.439  14.154   4.279 -0.1060 -0.0518  0.1012
18675W        W34809  13.764   8.880  11.145  0.1341  0.0201  0.1842
18676W        W34810  17.277  12.521   2.353  0.0938 -0.1425 -0.0607
18677W        W34811  16.712   4.824  14.584  0.1929  0.0150 -0.0833
18678W        W34812   7.676   6.112  10.684  0.1595  0.0831 -0.0563
18679W        W34813   4.492   5.232  10.940 -0.1565  0.0625 -0.1666
18680W        W34814  12.699   9.118  13.460 -0.1326  0.2325  0.1828
18681W        W34815   8.666   8.357  11.756 -0.2860 -0.0712  0.0829
18682W        W34816   5.341   3.807  10.150 -0.0346  0.0755 -0.0755
18683W        W34817  11.991   4.781  12.441  0.1518 -0.0019 -0.0412
18684W        W34818   3.588  15.982   1.743 -0.0892 -0.0365 -0.0993
18685W        W34819   0.708  13.556   5.576  0.2988 -0.2052 -0.3168
18686W        W34820   8.077   5.909   4.286 -0.3208 -0.0658  0.0674
18687W        W34821  18.385   5.422  13.390 -0.1428  0.1596  0.3733
18688W        W34822   2.047   4.495   4.922  0.1005  0.2178 -0.0763
18689W        W34823  10.435  11.333   9.485  0.0115  0.3985  0.1914
18690W        W34824   8.490  11.109  14.301  0.0015 -0.0016  0.1798
18691W        W34825   4.459  11.002  13.862 -0.0462  0.0262  0.1697
18692W        W34826  10.675   4.195  10.735  0.1095 -0.0351  0.2458
18693W        W34827   5.198  17.324  12.410  0.0617  0.3285  0.1752
18694W        W34828   1.053   7.284  10.484 -0.1970  0.1479 -0.1751
18695W        W34829   7.128   1.303   1.051 -0.0661 -0.0108 -0.1466
18696W        W34830   9.510  16.275  14.063  0.0763  0.3703 -0.0406
18697W        W34831   8.286   0.482   3.249  0.3628 -0.0806 -0.0580
18698W        W34832   6.425  16.165   3.582  0.0451 -0.0307 -0.0792
18699W        W34833  12.116  14.631   4.375 -0.0971 -0.1024 -0.1468
18700W        W34834  12.140   4.674  12.918  0.3412  0.3471  0.2700
18701W        W34835  16.954  18.096   4.572 -0.4038 -0.1913  0.5248
18702W        W34836  18.784   7.526  11.697 -0.2965  0.1753  0.0536
18703W        W34837   7.657  11.805   9.481 -0.2560 -0.1563  0.2402
18704W        W34838   0.791  11.797   3.884  0.1310 -0.3063  0.1995
18705W        W34839   1.394  12.089   1.106  0.2376  0.3570  0.1869
18706W        W34840   0.027  16.920  12.635  0.0733  0.1288 -0.0322
18707W        W34841  18.979   4.047   4.976 -0.1213 -0.3655 -0.1741
18708W        W34842   0.818  13.004  10.788  0.1827  0.0330 -0.2748
18709W        W34843  12.704  15.937   4.246 -0.0216 -0.2125  0.0043
18710W        W34844   3.693  16.446   3.335  0.1557 -0.0758  0.1006
18711W        W34845  10.473  11.311   2.380  0.0838  0.1144 -0.0178
18712W        W34846  11.962   0.439   3.520 -0.0229 -0.0065 -0.1103
18713W        W34847   3.223  17.716  14.007 -0.1699 -0.0888  0.1639
18714W        W34848   1.854   9.117  10.519  0.2883  0.1123 -0.0655
18715W        W34849   7.005  10.494  11.522  0.1851 -0.0442 -0.3132
18716W        W34850  13.504   0.861  12.098 -0.1641 -0.2233 -0.1002
18717W        W34851   9.699   7.213   3.557  0.0007 -0.1603 -0.0804
18718W        W34852   2.400   0.290   0.969 -0.2158  0.1089  0.2800
18719W        W34853  10.644   6.088  14.517  0.0239  0.1230 -0.3733
18720W        W34854  15.888  11.350   4.593  0.0145  0.0647  0.0156
18721W        W34855  13.245   5.388  14.793  0.1640  0.2786  0.1024
18722W        W34856  16.523   8.397   3.782 -0.0630 -0.1191 -0.3083
18723W        W34857   1.749  19.066   2.110 -0.0022 -0.0446 -0.0643
18724W        W34858  12.349   1.936  11.370 -0.0856 -0.0093  0.3433
18725W        W34859  15.232  13.081   2.866 -0.2934 -0.2610  0.3471
18726W        W34860  15.961  12.286  15.000  0.2742 -0.0272 -0.2266
18727W        W34861  12.558   9.665   9.960  0.3841  0.0286  0.0120
18728W        W34862   6.850  17.334  13.391 -0.1276  0.1525  0.1473
18729W        W34863  14.715  13.332  12.654  0.0108  0.1020  0.2021
18730W        W34864  15.846   3.662  11.741  0.4317  0.1210  0.1477
18731W        W34865   7.169   5.137  13.113 -0.1608 -0.2230  0.2827
18732W        W34866  17.725   4.624   1.937 -0.0834  0.0754 -0.0526
18733W        W34867  15.934   3.339  13.701  0.0792  0.1259  0.1216
18734W        W34868  13.642  16.660   5.985  0.1042  0.1015 -0.1146
18735W        W34869  14.314   3.080  13.292  0.1039  0.0905  0.0470
18736W        W34870   1.937  16.388  10.810  0.0852  0.1331  0.2220
18737W        W34871  11.722  16.436  13.461  0.1088 -0.1032 -0.0257
18738W        W34872  12.691   4.514   4.866 -0.3305  0.1173 -0.1089
18739W        W34873   7.708  15.626  11.482  0.0186  0.0348  0.1778
18740W        W34874   3.153   4.872   2.318 -0.0689 -0.2048 -0.2741
18741W        W34875   6.790   5.314   0.024 -0.1778 -0.1756  0.0642
18742W        W34876   8.169  16.412  14.154 -0.0811 -0.0265 -0.3366
18743W        W34877   8.002  17.223   3.596  0.1639  0.3042  0.0518
18744W        W34878   5.057   5.101   9.321  0.2809  0.4426 -0.0775
18745W        W34879  14.240   3.155   1.346 -0.0066  0.1218 -0.0232
18746W        W34880   5.372  11.943   2.136 -0.0295  0.1426 -0.0487
18747W        W34881  12.342   1.868   3.175 -0.2717  0.1647 -0.5053
18748W        W34882   6.716   5.102   4.045 -0.1175  0.0229 -0.3030
18749W        W34883  13.520   5.214  11.820 -0.0528  0.0450  0.0783
18750W        W34884  14.833   5.000   3.287 -0.3423  0.3286 -0.2891
18751W        W34885   5.393   8.623  12.078 -0.6582 -0.0963 -0.1531
18752W        W34886  13.247   4.482   3.981  0.0303 -0.1936 -0.0482
18753W        W34887  15.700   5.048  14.626 -0.1760  0.3831  0.0394
18754W        W34888  16.201   3.948   1.428 -0.3816 -0.1198 -0.1336
18755W        W34889   5.423  10.282   9.576 -0.3112 -0.0201 -0.1315
18756W        W34890  16.754   9.960   3.363  0.1321  0.2070  0.3238
18757W        W34891   2.302  12.373  13.526  0.1608  0.3017  0.1648
18758W        W34892  16.126  13.059  12.716  0.1721  0.1592  0.2656
18759W        W34893   7.931   1.774  14.853 -0.1185 -0.3377  0.0833
18760W        W34894  16.552  10.813   2.373 -0.1164 -0.0856  0.2161
18761W        W34895   9.060  12.848   3.425 -0.0521 -0.1122 -0.1397
18762W        W34896  16.132  14.103   3.465 -0.3270 -0.1115  0.2862
18763W        W34897  17.593   8.824  12.693 -0.3013  0.0688 -0.0661
18764W        W34898   8.725   8.039   0.911  0.3006 -0.0784 -0.3359
18765W        W34899  16.279   6.424  11.372  0.0117  0.1975 -0.0956
18766W        W34900  12.026   0.482   1.890 -0.2702  0.3715 -0.2471
18767W        W34901  15.043  15.052  11.913 -0.2927 -0.0279 -0.0611
18768W        W34902   2.865  15.304   3.627 -0.2238 -0.1459  0.0049
18769W        W34903   0.061  16.413   3.020 -0.1908  0.2507 -0.3235
18770W        W34904  13.592   1.820  10.644 -0.2684 -0.1485  0.0763
18771W        W34905  13.579   5.087   4.903  0.1726  0.1096 -0.1750
18772W        W34906   1.663  12.822  11.349 -0.2170 -0.0833  0.0261
18773W        W34907   1.518   7.987   3.540  0.0802  0.3502 -0.5571
18774W        W34908  11.762  18.486  14.138  0.1151  0.1548  0.1071
18775W        W34909   1.631   8.228  14.495  0.2458 -0.0159 -0.1605
18776W        W34910   2.592   1.486  14.892  0.4177 -0.3450  0.1981
18777W        W34911   2.592   9.329  11.717 -0.0084 -0.0904  0.2648
18778W        W34912   9.738   8.557   1.352 -0.2348 -0.1278 -0.2579
18779W        W34913   7.210  12.416  14.256  0.0821  0.0979 -0.1129
18780W        W34914  12.750  13.890   0.865 -0.0016  0.1716 -0.1118
18781W        W34915  18.145   6.743   1.439  0.1015 -0.1315 -0.0466
18782W        W34916  12.010  11.232  11.692 -0.0824  0.1425 -0.2465
18783W        W34917   1.425   9.389  11.782  0.0258 -0.4579  0.0875
18784W        W34918  14.684  15.935  11.654 -0.1520  0.2722 -0.0546
18785W        W34919  16.393   0.116   0.634  0.2123 -0.1346  0.3669
18786W        W34920  18.206   0.222   0.976 -0.2748 -0.2313 -0.0544
18787W        W34921   2.905   1.912  14.235 -0.3832  0.5215  0.2970
18788W        W34922  14.531  15.262  13.123  0.0217  0.1820 -0.0283
18789W        W34923   7.466  15.650  13.000 -0.1343 -0.0076 -0.2726
18790W        W34924   5.224   7.301  14.244 -0.0149  0.1205  0.0804
18791W        W34925   1.895   0.206   4.533  0.3442 -0.2766  0.2367
18792W        W34926   9.962  16.804   5.119 -0.0637 -0.2134 -0.5428
18793W        W34927  14.198   4.869  10.492  0.0668 -0.2598  0.3084
18794W        W34928  12.068   3.820   2.094  0.1443  0.1803  0.0244
18795W        W34929   5.862   3.023  10.554  0.0342  0.2665 -0.2809
18796W        W34930  16.765  14.489   0.207  0.1896  0.1490  0.2571
18797W        W34931  15.504  15.226   1.935 -0.0794 -0.1067 -0.0672
18798W        W34932  18.412   0.961   1.304 -0.1866  0.0197  0.0073
18799W        W34933   0.840   9.188  14.795 -0.0237  0.1048  0.1954
18800W        W34934  15.732   3.438   5.422 -0.1919  0.3642 -0.0880
18801W        W34935  12.574  18.820   2.268  0.0141  0.2184  0.0678
18802W        W34936  13.951   1.636  14.919 -0.2588 -0.3282  0.0542
18803W        W34937  11.952  10.613   1.951 -0.0493  0.0435 -0.0815
18804W        W34938  12.686  16.765  14.989  0.1613  0.0481 -0.3255
18805W        W34939   1.688  15.690   4.273  0.3737 -0.0685 -0.3342
18806W        W34940  14.616   1.062   1.194 -0.0969  0.0581 -0.0881
18807W        W34941   3.729   5.106  13.175  0.1409 -0.0703 -0.2200
18808W        W34942   0.539   3.984  14.007 -0.0643  0.0881 -0.3468
18809W        W34943   7.958   1.257  10.303  0.1117  0.2505 -0.2006
18810W        W34944  19.079  14.244   2.747 -0.1449 -0.0985  0.2373
18811W        W34945  12.576  14.121  14.652  0.1694 -0.0933 -0.2485
18812W        W34946  17.906  10.493   1.641 -0.1150  0.0329 -0.1884
18813W        W34947   9.860   5.338  13.602 -0.0235 -0.1450  0.2999
18814W        W34948  11.015  12.495   2.703 -0.1373 -0.3530  0.0220
18815W        W34949  17.129  14.506  13.274 -0.1454  0.2020  0.3421
18816W        W34950   8.474  10.723  14.616 -0.1489  0.0589  0.1651
18817W        W34951  18.128  10.993  14.378 -0.0650 -0.1622 -0.0579
18818W        W34952   4.330  15.528   2.112 -0.5781 -0.0162  0.1989
18819W        W34953   6.715  18.585   3.709  0.2238  0.3793 -0.2540
18820W        W34954  12.157   9.528  11.587 -0.1612 -0.2382  0.1220
18821W        W34955  10.479  12.647   4.026 -0.1858 -0.1431  0.0898
18822W        W34956  17.918  16.498   0.931  0.0553 -0.1554 -0.0653
18823W        W34957  16.925   3.365   4.003  0.0201  0.0052 -0.1471
18824W        W34958  11.808  11.173  13.962 -0.1066 -0.1472 -0.2421
18825W        W34959   3.435  14.896  10.446  0.0003 -0.0095 -0.1915
18826W        W34960  17.100  12.728   4.293 -0.2538 -0.4029  0.1237
18827W        W34961  12.698   1.395  11.206  0.0927 -0.1308 -0.0378
18828W        W34962  17.281  14.700   1.516  0.3688 -0.1544  0.3902
18829W        W34963   6.245   9.467   4.525 -0.2879 -0.2994 -0.0933
18830W        W34964  15.165   2.154   9.066 -0.3522 -0.0009  0.2689
18831W        W34965   4.117   3.959   2.778  0.0135 -0.1465  0.0435
18832W        W34966   2.729  10.791  14.922 -0.1072 -0.2954  0.1046
18833W        W34967   3.237  11.453  13.887  0.0241  0.2868  0.1749
18834W        W34968  12.007  11.104  13.454 -0.0631 -0.0243 -0.1326
18835W        W34969   9.252  15.107  11.065  0.1246 -0.0676  0.1571
18836W        W34970   6.156  15.986  13.060  0.0964 -0.3483 -0.1832
18837W        W34971  11.941  15.418   1.695 -0.0375  0.3096 -0.1389
18838W        W34972   6.352   3.783   0.683  0.0374  0.3197  0.1831
18839W        W34973   8.205  15.572   1.091  0.1111 -0.1489 -0.1559
18840W        W34974  13.375   6.932   3.886  0.1538  0.2427  0.1026
18841W        W34975   4.121   3.217   0.806  0.2446 -0.0575  0.2537
18842W        W34976  15.769   4.339  13.548  0.1981 -0.0448 -0.2814
18843W        W34977   7.611   3.367  13.997  0.1632  0.2804  0.2191
18844W        W34978  12.757   2.830  13.407 -0.2501 -0.2088  0.2064
18845W        W34979  15.509   8.333  11.907 -0.2455  0.2843 -0.0024
18846W        W34980   0.549  18.378  11.805  0.1280  0.1654  0.1491
18847W        W34981  11.303   8.375   3.498 -0.1658 -0.0885  0.0442
18848W        W34982   9.470   5.892   1.398  0.2931 -0.0753  0.3649
18849W        W34983   1.952  13.905  11.436 -0.1952 -0.0002 -0.0110
18850W        W34984  12.430  13.789   0.008 -0.3050 -0.1816  0.1197
18851W        W34985  14.761   2.540   4.400  0.1830  0.1496  0.3832
18852W        W34986   6.723   8.298   0.513  0.0530  0.0679  0.1661
18853W        W34987  11.293   9.771  10.931 -0.2029 -0.0813 -0.1509
18854W        W34988   9.652  10.629  10.284 -0.0624 -0.0264 -0.0254
18855W        W34989   7.595   7.728   3.711  0.0698 -0.3220 -0.0574
18856W        W34990  15.059   0.026   0.131 -0.2153 -0.1541 -0.1844
18857W        W34991   4.560   3.455  12.914  0.0657 -0.2027 -0.1913
18858W        W34992   2.111   1.312  10.809 -0.0972  0.2662  0.0777
18859W        W34993   1.607  13.335  10.711 -0.1343  0.0657  0.1719
18860W        W34994  18.538   7.993  14.584  0.1102  0.1408  0.3660
18861W        W34995   7.801  12.116  10.782  0.0375  0.2904 -0.1820
18862W        W34996  19.112   0.070   4.107 -0.0498 -0.3044  0.2638
18863W        W34997  18.229  16.932  12.260 -0.1470 -0.3338 -0.2169
18864W        W34998   0.306   3.559  12.871 -0.0867 -0.0951  0.3035
18865W        W34999  11.331   9.335  11.204  0.2632 -0.0092 -0.1087
18866W        W35000  11.584   0.926   3.494 -0.0506  0.2249  0.0242
18867W        W35001   6.081  13.814   3.873  0.1996 -0.0215 -0.4390
18868W        W35002   9.893  17.565   4.641  0.0299  0.0772 -0.1358
18869W        W35003   8.627  10.618  14.169 -0.0100 -0.0048 -0.0824
18870W        W35004   6.748  16.856  13.447  0.0845  0.3085  0.1106
18871W        W35005   8.072   0.480  10.967 -0.1604  0.0319 -0.0220
18872W        W35006  17.161   3.012  11.747  0.0443  0.2395 -0.0389
18873W        W35007  11.677   5.615  10.622 -0.3364 -0.2004 -0.2903
18874W        W35008   6.113   6.317  14.940 -0.1372  0.0149 -0.0535
18875W        W35009  16.337  11.547  12.548  0.0160 -0.1078  0.2721
18876W        W35010  16.204   6.147   2.593  0.3733 -0.0267  0.0557
18877W        W35011  11.536  17.415  12.897  0.2593  0.0465  0.1303
18878W        W35012   2.359  18.249  14.368 -0.1506  0.3127 -0.1682
18879W        W35013   8.033  12.622  12.119 -0.2035  0.2000  0.2358
18880W        W35014  18.977   8.649  13.086  0.0531  0.1593  0.1269
18881W        W35015   4.685   9.761  13.957 -0.0855 -0.1760  0.0063
18882W        W35016   3.595  11.234   2.946 -0.3169  0.0096 -0.4628
18883W        W35017   0.626  17.192   5.423 -0.0643 -0.0160 -0.0404
18884W        W35018   9.754   9.319  14.131 -0.1736 -0.2127 -0.0957
18885W        W35019  18.654  11.927   4.721  0.0860 -0.0284 -0.1961
18886W        W35020   6.840   8.605  13.458 -0.1725 -0.1208 -0.2567
18887W        W35021   7.714   0.427  13.150 -0.1039  0.1102 -0.0043
18888W        W35022   8.005  10.252  12.720 -0.0069 -0.0146 -0.1044
18889W        W35023  15.148   6.309   0.531  0.1645 -0.0581  0.0497
18890W        W35024   9.915  10.442   2.340 -0.1172 -0.1420  0.1854
18891W        W35025  14.433   4.829  10.918 -0.1116 -0.3282 -0.2941
18892W        W35026   5.756   7.717  11.403 -0.0061 -0.2953  0.2455
18893W        W35027  12.657   2.918   1.030 -0.0201 -0.2406  0.1203
18894W        W35028   3.714   5.981   0.494 -0.1233  0.3468  0.0372
18895W        W35029   5.982  14.078   4.635 -0.2679 -0.3042  0.0696
18896W        W35030   4.166   9.003  10.856 -0.0292  0.0960 -0.1068
18897W        W35031  15.527  18.059  12.459  0.2451 -0.4447 -0.1544
18898W        W35032   3.423  13.493  12.982  0.1863 -0.1504 -0.1846
18899W        W35033  17.129   6.837   4.144 -0.1066  0.3158  0.1862
18900W        W35034  14.191  17.621  10.183  0.2936  0.4560 -0.2050
18901W        W35035  12.009  17.210   4.972 -0.0599 -0.0460 -0.1707
18902W        W35036   3.931  16.696  14.559  0.0571  0.3420 -0.2824
18903W        W35037  14.619   4.354   1.342  0.0832  0.3765  0.1282
18904W        W35038   0.871   3.645  11.669  0.1046  0.0489  0.0641
18905W        W35039  16.872  14.934   1.834  0.2975  0.0320  0.0600
18906W        W35040   8.815   7.965   4.393  0.0298 -0.1693  0.0230
18907W        W35041  12.406   1.955   2.663 -0.0112 -0.0937 -0.0491
18908W        W35042   4.777  16.442   1.567  0.0309  0.0421 -0.0346
18909W        W35043  12.994  14.327  13.022 -0.5496 -0.0100  0.0741
18910W        W35044   5.601   3.832   2.686  0.2236  0.0691  0.1613
18911W        W35045  16.474  14.401   3.150  0.0297 -0.3034 -0.0735
18912W        W35046   0.121   5.739  14.175 -0.0936  0.0167 -0.2311
18913W        W35047   4.712   5.023  11.614 -0.1831  0.0592 -0.1502
18914W        W35048   4.933  12.951   0.452 -0.0038  0.2019 -0.1570
18915W        W35049  13.440   6.031   1.982 -0.0396 -0.1956 -0.2145
18916W        W35050  16.326  17.554   4.032 -0.2296 -0.1323 -0.0564
18917W        W35051   4.371   7.209  14.924  0.0931 -0.0677  0.1709
18918W        W35052   2.724  16.350  12.121 -0.1361 -0.1149  0.0185
18919W        W35053  12.310  15.140  13.117 -0.1802 -0.6233 -0.2467
18920W        W35054   2.510  18.312  11.672 -0.3186  0.0144 -0.0557
18921W        W35055  13.476   1.474  12.016 -0.1022  0.0144  0.0819
18922W        W35056  13.441   9.687   4.559 -0.0819 -0.0573 -0.0299
18923W        W35057  16.761  18.068  14.268  0.3132  0.0941 -0.1350
18924W        W35058   3.658  13.275   0.931 -0.4381 -0.3999  0.4405
18925W        W35059   0.284  11.398  13.792  0.0588 -0.2532  0.0528
18926W        W35060   9.059  12.499   2.730  0.2282 -0.1155 -0.0147
18927W        W35061   3.643  14.754   5.611 -0.0411 -0.0390 -0.1129
18928W        W35062   2.773   9.763  11.312 -0.0343 -0.1804  0.1411
18929W        W35063  18.518   5.322  14.383  0.1276  0.1874  0.2037
18930W        W35064  15.063  13.447  10.996  0.2158  0.3201  0.0047
18931W        W35065   6.251   2.217  10.284 -0.3517  0.0376  0.0511
18932W        W35066   3.532  11.591   1.124 -0.4396 -0.4164 -0.0614
18933W        W35067  12.808   0.720   1.759  0.1053  0.2766  0.0449
18934W        W35068   4.515   2.058  14.967 -0.2331 -0.0294 -0.0779
18935W        W35069  10.425   8.371  10.915 -0.2378 -0.2347  0.0519
18936W        W35070   6.287  11.175  11.376  0.2125 -0.0422  0.0675
18937W        W35071   5.823   7.714   2.816 -0.1261  0.0647  0.3229
18938W        W35072   0.678   2.476  12.259 -0.1551  0.0381 -0.2389
18939W        W35073   9.428   6.146  14.636 -0.0728  0.2141 -0.1416
18940W        W35074  15.019  14.837  11.481  0.2331 -0.1656 -0.0478
18941W        W35075  11.923   0.064  10.739  0.1460  0.3089 -0.0231
18942W        W35076  10.825  18.818  13.974  0.2137 -0.0396 -0.1345
18943W        W35077  13.409  10.609   2.847 -0.0803  0.3953 -0.1656
18944W        W35078  10.218  15.152  11.025  0.1937  0.1121  0.1437
18945W        W35079   5.843  10.668   3.059 -0.0865 -0.0477  0.2481
18946W        W35080   6.179   3.359  12.420 -0.1605  0.0167  0.2040
18947W        W35081  16.244   1.918  11.613 -0.3782 -0.1715  0.0869
18948W        W35082   2.304  14.045   5.286 -0.2948 -0.2213  0.0375
18949W        W35083  14.909   6.700   2.328 -0.1046 -0.0851  0.2055
18950W        W35084  18.238   3.271   2.938  0.0972  0.0704  0.3224
18951W        W35085  13.869  10.383   3.048 -0.0269  0.0296 -0.1260
18952W        W35086   2.731   5.760   0.669  0.0776  0.2303 -0.4163
18953W        W35087  16.880  16.149   2.885  0.0637  0.0281  0.0241
18954W        W35088  12.425  14.446   3.894  0.0672 -0.1076 -0.3010
18955W        W35089   2.673  16.402   1.351  0.2632 -0.0900  0.3576
18956W        W35090   2.067  11.300   4.714 -0.0267 -0.1434  0.0597
18957W        W35091  14.750   2.791   0.442  0.1323  0.1270 -0.0636
18958W        W35092   2.906   1.035   0.854 -0.2251 -0.0481  0.4432
18959W        W35093   1.596   3.000  13.274 -0.0006  0.1838  0.2314
18960W        W35094  17.342  10.386  14.572 -0.3334  0.0813  0.2760
18961W        W35095  18.042   9.530   3.859 -0.1701 -0.0919  0.1996
18962W        W35096   0.339   4.434  11.828  0.0769  0.3558 -0.0973
18963W        W35097   6.970  16.328  14.127  0.3708 -0.0911  0.1691
18964W        W35098  13.510   7.788  10.759 -0.1664 -0.0696  0.0182
18965W        W35099   9.394   1.004   3.106  0.2997 -0.2253 -0.1866
18966W        W35100   2.373  16.258   5.599  0.2407 -0.1328  0.0073
18967W        W35101  19.128   9.193   9.386 -0.1964 -0.0647 -0.0820
18968W        W35102   9.684  17.978   2.756 -0.2007 -0.0589 -0.2325
18969W        W35103  11.901  11.423   4.692 -0.0533  0.1896 -0.0666
18970W        W35104   6.736   9.772   9.962  0.1378 -0.0872 -0.1288
18971W        W35105  18.958   1.660  14.532 -0.0194 -0.1210  0.1995
18972W        W35106   9.555   1.262  14.790  0.0909 -0.0472  0.0961
18973W        W35107   8.229  18.366   1.517  0.0515  0.1278 -0.4673
18974W        W35108   7.232   9.343   1.748  0.0293  0.2678  0.0049
18975W        W35109  10.381  11.864  10.516  0.3317 -0.2305  0.1737
18976W        W35110   2.927  13.084  14.449 -0.0615  0.0666 -0.0481
18977W        W35111   7.691  12.342   3.905  0.0640 -0.1972  0.1793
18978W        W35112   8.497   4.154   2.714  0.0614  0.0507  0.0467
18979W        W35113   5.195   6.779   2.403  0.1612 -0.1977 -0.2690
18980W        W35114  13.765  16.315   0.050  0.3104  0.0387 -0.2285
18981W        W35115   6.940   3.301  10.294 -0.0131 -0.2078 -0.0573
18982W        W35116   1.390  18.851  13.416 -0.2082 -0.1298 -0.1594
18983W        W35117   2.315   0.028   0.306 -0.1608 -0.0185  0.3500
18984W        W35118  17.065   9.326  13.685  0.1157  0.0550  0.1051
18985W        W35119   1.368   1.084   1.445  0.0006  0.0176  0.0033
18986W        W35120  10.140  19.132   4.562  0.0580  0.0783 -0.0823
18987W        W35121  15.135   3.866   4.925 -0.1380 -0.1393 -0.0956
18988W        W35122  14.651  13.929   4.358  0.0168  0.0138 -0.2794
18989W        W35123  12.894  10.894  12.016 -0.2298 -0.1147 -0.0729
18990W        W35124   2.062   2.692  13.525  0.4642 -0.3144 -0.1022
18991W        W35125  13.503  17.872  12.953 -0.4043  0.2599 -0.2232
18992W        W35126   6.363   8.599  13.670 -0.0788  0.1189 -0.1270
18993W        W35127  15.940   2.959  14.580  0.1735 -0.1098 -0.1235
18994W        W35128   6.122   8.467   9.771  0.0240 -0.4368  0.1229
18995W        W35129  17.597   6.568  13.443  0.1093  0.0693 -0.0442
18996W        W35130  12.507  15.823   3.201  0.1087  0.1126 -0.0336
18997W        W35131  10.244   7.823  10.726 -0.1272 -0.3669 -0.4502
18998W        W35132  15.778   7.200  13.929  0.1479  0.0774 -0.5226
18999W        W35133   4.351   0.163   3.044  0.3810 -0.2720 -0.3923
19000W        W35134  17.137  16.186   1.572  0.3411 -0.2367 -0.0918
19001W        W35135   2.955   4.774   1.857  0.1506  0.0760 -0.1584
19002W        W35136   9.454   3.954   2.845 -0.0092  0.1404 -0.1598
19003W        W35137  19.040   2.767  10.544  0.4177  0.3524 -0.0215
19004W        W35138  11.444   8.926  14.744  0.3342  0.2054 -0.3006
19005W        W35139  12.938  14.446  12.032  0.2051 -0.1172 -0.0156
19006W        W35140  14.808  10.263  13.866  0.1637  0.1522  0.0531
19007W        W35141   0.202  11.708  10.871 -0.1965  0.0268 -0.0595
19008W        W35142   8.543   9.420   1.470  0.1119 -0.1573  0.1003
19009W        W35143  14.536  12.399  12.975 -0.0049 -0.1646 -0.2644
19010W        W35144   6.841  18.939   4.085 -0.2173  0.0469  0.1916
19011W        W35145  11.501  18.073  10.696  0.0636 -0.1870 -0.1173
19012W        W35146   1.173  10.617  13.161  0.1808  0.0004 -0.1467
19013W        W35147  18.441   9.297  10.248 -0.0156 -0.1197  0.0314
19014W        W35148   7.476   5.756  10.397 -0.2252  0.1455 -0.0875
19015W        W35149  17.703  13.505   2.703 -0.0802  0.4424  0.0576
19016W        W35150  11.865   4.126   4.329 -0.0501 -0.0465  0.0009
19017W        W35151  14.144   3.346  12.298 -0.2055 -0.0823  0.2950
19018W        W35152  11.153   9.388   0.072  0.0706  0.0194  0.2522
19019W        W35153  16.042   0.722   4.698  0.2211  0.1926 -0.3387
19020W        W35154  11.859   7.770  11.218  0.2800  0.3678  0.1222
19021W        W35155   8.207  13.013   1.664  0.0290 -0.0230  0.1901
19022W        W35156  13.504   4.025  10.508  0.3250  0.5639 -0.0705
19023W        W35157   9.724   4.693   0.933  0.7219  0.4425  0.0624
19024W        W35158  12.181  17.850  11.170  0.0312  0.1496  0.0424
19025W        W35159   6.856  17.874  13.251 -0.0586  0.2299 -0.2497
19026W        W35160   2.160  11.698  13.944  0.0532  0.1004  0.2544
19027W        W35161   0.864  11.793   4.477  0.1842  0.0520  0.1119
19028W        W35162  16.158  14.690  11.319 -0.2525 -0.1108  0.1435
19029W        W35163   2.027  14.703  13.864  0.3591  0.2067 -0.0103
19030W        W35164   5.300   4.132   4.153 -0.0049  0.5431 -0.0627
19031W        W35165  15.086  19.108  12.338  0.1185 -0.1236 -0.3454
19032W        W35166  17.887  11.727  11.744 -0.2876  0.0189  0.1299
19033W        W35167   5.477  13.302  14.868 -0.0258  0.2472  0.0029
19034W        W35168  14.369   6.612  10.876 -0.0854 -0.1130  0.1980
19035W        W35169   9.319  16.521   3.780  0.1698  0.1235  0.4469
19036W        W35170   5.900   6.538   4.611  0.0839 -0.0293 -0.2103
19037W        W35171   8.214  15.610   5.419  0.3285 -0.1479  0.2236
19038W        W35172  11.780   9.214   0.077  0.0577 -0.0966  0.2270
19039W        W35173   5.230   1.949   3.729 -0.0877 -0.1848  0.1322
19040W        W35174   3.217  18.520  14.199  0.0347  0.1537 -0.0671
19041W        W35175   7.196  15.864  11.111  0.2238 -0.1759  0.0718
19042W        W35176  11.260  14.283  14.775  0.1785 -0.1844  0.0803
19043W        W35177  10.740   8.734  13.490 -0.1642  0.0432 -0.0098
19044W        W35178   4.628   9.048  13.381 -0.1881 -0.0067 -0.2171
19045W        W35179   6.529  10.986   0.005 -0.2503 -0.1807  0.1339
19046W        W35180  12.202   1.883  12.907 -0.0987  0.2847 -0.2407
19047W        W35181   0.515   7.581  14.822 -0.3426 -0.1828  0.2154
19048W        W35182  14.587  17.724   3.089 -0.2540 -0.0076 -0.1221
19049W        W35183   0.914  18.445  12.184  0.4493  0.3094 -0.1159
19050W        W35184   0.672   4.742   1.405  0.1611 -0.0413 -0.2060
19051W        W35185   6.019   7.193   1.471  0.1513 -0.2271 -0.2295
19052W        W35186   2.996   2.297   2.641 -0.0946 -0.3109 -0.0311
19053W        W35187  14.849  14.073  10.530 -0.4022  0.2316 -0.0774
19054W        W35188  14.341   6.364   3.030 -0.1540 -0.1329 -0.3839
19055W        W35189  15.944   8.414  13.779 -0.0491 -0.0513 -0.1093
19056W        W35190   5.183   7.156   1.277 -0.2321  0.1575  0.1251
19057W        W35191  10.218   6.221   0.692  0.0941 -0.1880 -0.1270
19058W        W35192  11.835   8.496   1.432  0.0923 -0.0904  0.0470
19059W        W35193  15.196  17.407  14.268  0.1653 -0.0923 -0.0096
19060W        W35194  12.433   8.729   3.155  0.1512 -0.1807  0.1227
19061W        W35195   0.440  12.509   3.142 -0.2464  0.1445 -0.3193
19062W        W35196   4.797   7.572   2.983 -0.0913 -0.3509 -0.2889
19063W        W35197   0.684   2.607   2.849 -0.2186 -0.3085 -0.1915
19064W        W35198   7.052  18.878  11.333 -0.1177 -0.0712 -0.0846
19065W        W35199  17.466   8.348   3.403 -0.0414 -0.0417 -0.2272
19066W        W35200  14.303  12.794   4.362 -0.1978  0.0622  0.1652
19067W        W35201   3.096   9.780   2.971 -0.3296 -0.2210  0.1851
19068W        W35202   4.355   5.924  10.050  0.1065  0.2107 -0.1409
19069W        W35203  11.901   5.059  11.991  0.3501 -0.0271  0.0681
19070W        W35204  13.804   8.647   4.309  0.0782  0.0011  0.0043
19071W        W35205  16.126   1.592   2.539 -0.0705  0.1343  0.2348
19072W        W35206   7.353  18.087  13.353 -0.0798 -0.2302 -0.0373
19073W        W35207  17.439   9.413  14.582 -0.0050 -0.2072 -0.1990
19074W        W35208   5.497  11.268  13.551  0.0055  0.1555 -0.1043
19075W        W35209   4.218  18.089  12.360 -0.0875 -0.5745  0.1290
19076W        W35210   5.578  19.186   3.003 -0.0044 -0.0245 -0.0115
19077W        W35211  17.378  19.209   0.803  0.0984  0.1400  0.1201
19078W        W35212   9.864   8.552   1.969  0.0158  0.1572  0.1178
19079W        W35213   8.977   0.825  13.571 -0.1301 -0.2010  0.0611
19080W        W35214  14.327  11.292  13.313 -0.1372  0.0035  0.1014
19081W        W35215  17.991   9.916   0.200 -0.2668 -0.1318 -0.1872
19082W        W35216  14.958   2.314  12.836 -0.2411  0.1772  0.3324
19083W        W35217  16.830   9.573   4.754 -0.2871 -0.0052 -0.2842
19084W        W35218  19.195  16.569  11.865 -0.2439 -0.0981  0.1011
19085W        W35219  13.168   9.741  14.909 -0.2818 -0.0180  0.0452
19086W        W35220  14.777  10.856  14.164  0.4587 -0.2279  0.0963
19087W        W35221  10.297  15.958  15.007 -0.2047 -0.1942 -0.0334
19088W        W35222  13.982   8.006  13.641  0.1256 -0.2168  0.0281
19089W        W35223  15.372   4.499   2.376  0.0804  0.0663 -0.2714
19090W        W35224   3.429  11.932  13.600 -0.3530 -0.2286 -0.1759
19091W        W35225  17.765  15.488   4.355 -0.0773  0.2207  0.0937
19092W        W35226   8.697  11.453   0.282  0.4456  0.1917 -0.0985
19093W        W35227  13.474   9.187   2.959  0.0625 -0.0611  0.2488
19094W        W35228   6.299   9.913  11.744 -0.1788 -0.2561  0.3385
19095W        W35229   8.032  13.865  11.496  0.0894  0.0193  0.1408
19096W        W35230  13.654  18.895  14.038  0.0030  0.1352 -0.2667
19097W        W35231   3.596  14.568  11.018 -0.0958  0.1456  0.1355
19098W        W35232  11.642   6.907   4.524  0.0486  0.0273  0.3299
19099W        W35233  15.176   8.785   1.112 -0.2034  0.0115  0.0648
19100W        W35234  12.400  13.140  14.275 -0.1361 -0.0450 -0.0980
19101W        W35235  15.681  10.147  10.335  0.0610 -0.2107  0.0461
19102W        W35236  14.017   3.985  12.001  0.2856  0.0583  0.0433
19103W        W35237  14.750   6.895   3.835 -0.3650  0.3232  0.0160
19104W        W35238  18.939   4.659   1.163  0.0921  0.1867  0.1438
19105W        W35239   1.598  16.549   9.726  0.0111 -0.3354 -0.0031
19106W        W35240   2.276   6.665   5.167 -0.0461 -0.3674 -0.0686
19107W        W35241   8.365  14.478   0.678 -0.1407  0.2712  0.1697
19108W        W35242  11.116  11.811   3.079  0.0256  0.2858  0.2193
19109W        W35243   3.285   1.398   4.519  0.1491 -0.1057 -0.2062
19110W        W35244  15.195   9.448  11.804  0.0867 -0.1447  0.3801
19111W        W35245   5.663   4.412  12.708  0.0368  0.0132 -0.4035
19112W        W35246   3.777   1.435  12.358 -0.2376 -0.0342  0.0477
19113W        W35247  18.777  11.184   2.465  0.0646 -0.0237 -0.2337
19114W        W35248   1.582   3.255  11.801  0.2722 -0.0425 -0.2359
19115W        W35249  13.048  17.230   2.521 -0.0720  0.1654 -0.2299
19116W        W35250   5.303   3.636   0.519 -0.2627  0.0945  0.2476
19117W        W35251   2.224   7.437   0.411  0.0676 -0.1178 -0.0882
19118W        W35252   8.726   1.840  13.905 -0.1528 -0.0292 -0.2633
19119W        W35253  11.272  11.865   2.173 -0.2582 -0.2223  0.0249
19120W        W35254   8.013  10.276  14.924 -0.0291  0.2372 -0.3506
19121W        W35255   1.181  12.040   3.673 -0.4117 -0.4793 -0.2404
19122W        W35256  15.407   9.139   3.910 -0.0007 -0.4659 -0.1277
19123W        W35257  18.778  13.227   5.125 -0.3457  0.1316 -0.0364
19124W        W35258  18.595  10.899   0.454  0.0509 -0.1079 -0.2356
19125W        W35259  19.211   2.346  14.337  0.0133  0.0113 -0.2390
19126W        W35260   3.227   2.882  11.656  0.2334  0.1300 -0.2361
19127W        W35261  16.788  12.283   1.940 -0.1929  0.2667 -0.2570
19128W        W35262   4.616   3.021   2.938 -0.1966  0.0335 -0.1430
19129W        W35263  11.398  16.072   5.400  0.1030 -0.2278 -0.0911
19130W        W35264  19.220   8.413   4.388  0.2033  0.0830  0.1037
19131W        W35265   1.663  17.925   5.064 -0.3299  0.1294 -0.0965
19132W        W35266  13.820   0.582   3.082 -0.1569 -0.5992 -0.2490
19133W        W35267   3.883   7.598  13.963 -0.2021 -0.3089  0.0053
19134W        W35268   8.902   7.699   3.979  0.1628 -0.1909  0.0369
19135W        W35269   8.560   4.794   9.408 -0.0506  0.1878 -0.2483
19136W        W35270   9.906   9.618   3.513 -0.2987  0.0825  0.1939
19137W        W35271   6.206   5.876  14.717 -0.1329  0.1564  0.0455
19138W        W35272   9.566  17.317  11.099 -0.3889  0.1227 -0.1525
19139W        W35273  13.067  16.306   0.841 -0.3429 -0.0167 -0.0007
19140W        W35274   7.208   3.313  11.299 -0.1616 -0.0228 -0.2438
19141W        W35275  12.489  17.710   3.169  0.0468 -0.2340  0.1907
19142W        W35276   1.077  18.904   9.964  0.5009 -0.5701 -0.1433
19143W        W35277   0.127   6.785   2.505 -0.2980 -0.2318 -0.4025
19144W        W35278  14.784  11.449   4.538  0.0592  0.0907 -0.1166
19145W        W35279  12.356   3.039  10.684 -0.4310  0.1084  0.0826
19146W        W35280   6.835  16.862   0.341 -0.1867  0.0748 -0.2324
19147W        W35281   8.096  12.596   0.332  0.1495 -0.2678 -0.0676
19148W        W35282   1.245  13.664  14.362 -0.1784 -0.0136  0.1975
19149W        W35283   4.196  10.327   1.322  0.0067  0.0123 -0.0635
19150W        W35284  13.294   7.175   1.675 -0.0948  0.2417  0.1187
19151W        W35285   4.781   0.878  10.752 -0.3070  0.0814 -0.1520
19152W        W35286  10.531   1.964   4.505  0.0154  0.2864  0.5129
19153W        W35287   9.944   3.646  10.042  0.0945 -0.4314  0.1200
19154W        W35288   6.050  10.440  12.876 -0.3020  0.2761 -0.3075
19155W        W35289   1.026  15.525   2.719  0.0981  0.4201  0.1806
19156W        W35290   1.569   5.148   0.922  0.0604  0.3685 -0.3507
19157W        W35291  18.032   6.802  11.090 -0.0276 -0.2489 -0.2601
19158W        W35292  14.234  13.185  14.936  0.2041  0.3058  0.3213
19159W        W35293  16.395   8.742   4.070 -0.1486  0.1504  0.0293
19160W        W35294   7.591  13.909   0.846  0.1137 -0.2770 -0.2025
19161W        W35295   4.506   5.429  11.993 -0.1359 -0.1396  0.1721
19162W        W35296   7.141   4.537  14.636  0.2484  0.1550  0.0844
19163W        W35297   6.257  10.656   3.810  0.0642 -0.0515  0.2284
19164W        W35298   2.288  19.015   1.303  0.3737  0.2483  0.0282
19165W        W35299   5.290   1.969  14.960  0.1677 -0.2284 -0.1173
19166W        W35300   2.603   9.175   0.802  0.3435  0.3100  0.0214
19167W        W35301   3.521  17.956  10.795 -0.0556 -0.3950  0.2281
19168W        W35302  17.596  14.102   2.986 -0.2427 -0.3101  0.0902
19169W        W35303   3.195   4.812   0.547 -0.3178  0.3090  0.2062
19170W        W35304  11.106  15.157   4.550 -0.1469 -0.0990  0.0258
19171W        W35305   4.651  10.772  13.427 -0.0226  0.1022 -0.1729
19172W        W35306  11.848   3.721  11.176  0.4387  0.1420  0.0724
19173W        W35307   8.488   9.346  11.454  0.0181 -0.1962 -0.1539
19174W        W35308   1.551  11.222   1.163 -0.1109 -0.0775  0.2246
19175W        W35309  15.983  15.462   4.246  0.1572 -0.3617 -0.1202
19176W        W35310  16.991  10.751  12.983 -0.0911  0.0478 -0.1049
19177W        W35311   7.915  19.086   2.664  0.2806  0.1983  0.0484
19178W        W35312   0.242  13.945  13.488 -0.0457 -0.0473  0.0952
19179W        W35313   4.068  13.343   4.832  0.0111 -0.2425 -0.1335
19180W        W35314  13.424  14.478   4.028  0.3080  0.1644  0.1429
19181W        W35315  15.821   7.876  10.974 -0.1744  0.2412  0.3789
19182W        W35316  10.801  15.032  14.237  0.2686  0.0996  0.1269
19183W        W35317   3.189   2.562   4.584  0.2671 -0.2165  0.0668
19184W        W35318   6.730   8.212  11.959 -0.1821  0.2312  0.1616
19185W        W35319   0.867   2.313   4.090 -0.2868 -0.4000 -0.0702
19186W        W35320  16.250  12.776   0.711 -0.0313 -0.3329  0.2147
19187W        W35321   1.993  14.466   3.124  0.2095  0.1815 -0.0182
19188W        W35322  18.076  14.427  11.107 -0.2172  0.3305  0.0450
19189W        W35323  16.749   8.007   3.507  0.0759  0.3387 -0.0549
19190W        W35324  13.617   5.179   0.069  0.2934 -0.0383  0.0537
19191W        W35325  16.181   9.464  13.501  0.0072 -0.0267  0.1274
19192W        W35326  18.010   1.099   3.001  0.0335 -0.1882  0.0921
19193W        W35327  14.414  15.807   3.025  0.3318 -0.1291 -0.0078
19194W        W35328  18.008  13.694  12.793 -0.0558 -0.5643  0.3787
19195W        W35329   8.600   6.148   2.506 -0.0787  0.1798  0.1531
19196W        W35330  14.899  15.057  13.518  0.3134 -0.0631  0.1183
19197W        W35331  18.690   5.796   2.013 -0.0402  0.0920 -0.3112
19198W        W35332   4.656  15.262  13.845  0.2909  0.2819  0.0392
19199W        W35333   4.732   2.586  13.305  0.0750 -0.0166 -0.0593
19200W        W35334  15.748   9.322  13.844 -0.0373 -0.2957 -0.0572
19201W        W35335   7.649  17.520   3.916  0.0041 -0.3380 -0.1600
19202W        W35336   2.667   6.186  11.205 -0.0883  0.1300 -0.0373
19203W        W35337  15.668  14.524   4.333  0.0805 -0.2606  0.2372
19204W        W35338   8.513   6.005   2.955  0.2016 -0.0110  0.1096
19205W        W35339   1.091   2.733  11.383  0.4012 -0.1942  0.2473
19206W        W35340   5.429  17.116   4.089  0.0029 -0.0642  0.2749
19207W        W35341  13.926  16.378   1.073 -0.0901 -0.1066  0.4411
19208W        W35342   3.139  11.840   0.822  0.1330 -0.0968 -0.2060
19209W        W35343  16.917   0.067   5.234 -0.1782 -0.0429  0.2089
19210W        W35344   5.444   0.370   5.346 -0.1565  0.3915 -0.1107
19211W        W35345   4.339  13.212  14.315 -0.3168  0.3118 -0.0555
19212W        W35346   0.771   1.410   0.110  0.1530 -0.0405  0.0410
19213W        W35347   7.353   6.949  11.054  0.0753  0.0831  0.0697
19214W        W35348   7.461  14.400   0.628 -0.0042  0.1241  0.1287
19215W        W35349  14.216  17.991   3.025 -0.0685  0.1926  0.1175
19216W        W35350  13.748   2.943   4.845 -0.2502  0.3286 -0.3400
19217W        W35351   1.246  17.927   3.325 -0.0493  0.2118 -0.1367
19218W        W35352  10.916   2.407  15.003 -0.0793 -0.0759  0.3192
19219W        W35353  11.861  14.471  14.827 -0.0039 -0.0697  0.4062
19220W        W35354   2.583  17.793  12.230  0.3321 -0.1717  0.0159
19221W        W35355  17.779   8.606   2.062 -0.1193 -0.2057  0.1350
19222W        W35356   4.670  12.658   2.898  0.0500 -0.0460 -0.0140
19223W        W35357   5.943  13.711  13.907  0.0559  0.0297  0.0955
19224W        W35358  14.428  10.470   0.418  0.1343  0.0880 -0.1011
19225W        W35359   1.564  10.173   3.880  0.3248 -0.1915  0.1979
19226W        W35360  19.198   6.201  11.660 -0.1378  0.0450 -0.1939
19227W        W35361  12.585  15.454   0.540 -0.2282 -0.0429 -0.0162
19228W        W35362  10.965   3.591  13.342 -0.1417  0.0374  0.0196
19229W        W35363  16.209   0.350  14.219 -0.0392  0.1780 -0.3604
19230W        W35364  10.850   9.590   4.725  0.2656  0.0406  0.0913
19231W        W35365  17.135  13.789  14.581 -0.1674  0.0832  0.3388
19232W        W35366  13.018   7.130   4.276 -0.1920 -0.0233 -0.0755
19233W        W35367  11.362   7.164   0.729  0.3086 -0.0201  0.1034
19234W        W35368   9.652  12.054   3.862 -0.0955  0.1632 -0.2725
19235W        W35369  12.213  11.773   2.534  0.2966  0.2495  0.0458
19236W        W35370  10.424   5.315   3.992 -0.1553  0.1399  0.1911
19237W        W35371   3.066  11.201   9.970  0.2366  0.4480 -0.1743
19238W        W35372  10.913   5.871   0.008 -0.0062 -0.0836 -0.0730
19239W        W35373  17.860   6.518  11.523 -0.1662  0.1325  0.0778
19240W        W35374   5.902   4.763   2.870  0.1742  0.0130 -0.3433
19241W        W35375   9.756  14.098   1.025 -0.0070 -0.0533  0.2649
19242W        W35376   1.914  12.017   1.660 -0.1783 -0.0124  0.3251
19243W        W35377   3.296  17.913  13.459  0.0311  0.0709  0.0800
19244W        W35378   7.360  13.124  11.067 -0.3571 -0.0912  0.1819
19245W        W35379   0.525   6.383   1.165 -0.2540 -0.0467  0.2345
19246W        W35380   7.742  15.028  12.260 -0.1787 -0.0734  0.2034
19247W        W35381  18.188   3.763   0.828  0.3840  0.0205  0.2029
19248W        W35382   6.924  18.215  12.342 -0.4055 -0.5651 -0.0629
19249W        W35383   9.454  18.438   0.789 -0.2252  0.0196  0.1329
19250W        W35384   2.738   3.553  12.306  0.1459  0.1469 -0.2480
19251W        W35385   0.288   4.681  12.310 -0.1062  0.2264 -0.1951
19252W        W35386   9.089   3.293  10.195 -0.0131 -0.1768  0.2786
19253W        W35387  18.931   2.364   2.985  0.1785  0.1053  0.1679
19254W        W35388  18.345  17.884  10.258  0.0803 -0.0270  0.0230
19255W        W35389   6.168   3.419   0.437  0.0987  0.1478  0.0708
19256W        W35390  14.222   9.585  12.658  0.2437 -0.0819 -0.1416
19257W        W35391   6.503   7.629   2.145 -0.1897 -0.0718 -0.1627
19258W        W35392  11.895   0.627  13.126  0.1670  0.1224 -0.1010
19259W        W35393   0.879   8.134  10.266 -0.1153  0.3285  0.1276
19260W        W35394  18.768   6.044  10.365  0.3430 -0.1653  0.0673
19261W        W35395   3.421  14.546   0.918  0.0268  0.1271  0.1635
19262W        W35396  17.436   5.492  13.549  0.1356 -0.2084  0.2625
19263W        W35397  17.026   9.171  13.124 -0.2487  0.0238  0.1183
19264W        W35398   6.667  15.468   1.308 -0.0139 -0.0848 -0.3498
19265W        W35399  17.392   6.358  11.849 -0.2712  0.0365  0.0519
19266W        W35400   5.716  14.450   5.857  0.0263 -0.3991 -0.2335
19267W        W35401  18.129  15.116   4.234  0.0619 -0.1400  0.0787
19268W        W35402  16.669   0.473  12.046 -0.1678 -0.2048  0.1075
19269W        W35403  10.748   9.558   0.877  0.0531  0.0661  0.2722
19270W        W35404  10.848  15.224  11.470 -0.0494  0.2075 -0.2836
19271W        W35405  16.958  13.570   3.406 -0.1591  0.0633  0.3716
19272W        W35406   5.688   8.124   1.899 -0.0625  0.1848 -0.2489
19273W        W35407   8.068  13.879   1.021  0.1463 -0.0174  0.2281
19274W        W35408  18.047  10.094   2.745 -0.0835 -0.0533  0.1552
19275W        W35409   5.856  17.212  12.373  0.5781 -0.0280  0.0292
19276W        W35410   9.959   9.459  14.579  0.1781  0.0228 -0.2129
19277W        W35411   5.135   5.899  15.011 -0.2372  0.3243 -0.3844
19278W        W35412  10.114  17.802  13.011 -0.1110  0.2877  0.0660
19279W        W35413  12.750  17.991   0.336 -0.0050  0.0188  0.0551
19280W        W35414   3.910   2.452  14.369  0.0003 -0.0048 -0.0334
19281W        W35415   8.335  18.380  14.927  0.0474  0.3576 -0.0578
19282W        W35416  15.119  18.126   3.100  0.1385  0.1700  0.1246
19283W        W35417   1.413  17.124   1.496  0.0456 -0.1701  0.1449
19284W        W35418   7.972  12.148  13.716 -0.2415 -0.0858  0.0938
19285W        W35419  14.987   7.314  14.225  0.2765 -0.2153 -0.1460
19286W        W35420  17.857  12.996  11.217 -0.1306 -0.0406  0.1402
19287W        W35421   7.804   1.372  12.976 -0.0048 -0.1060 -0.1674
19288W        W35422   1.795   1.088   4.915  0.0754 -0.2859  0.0929
19289W        W35423   3.750  18.254   0.300  0.0985 -0.2281  0.0848
19290W        W35424   3.593   5.476   9.770 -0.2726  0.3346 -0.0868
19291W        W35425   2.163  18.330   1.909 -0.3216  0.0986  0.2650
19292W        W35426   5.428   0.694   2.502  0.2363  0.1204  0.1210
19293W        W35427  18.851  18.098  12.627 -0.2012 -0.4565 -0.3385
19294W        W35428  11.119   5.717  11.890 -0.3272 -0.0022 -0.0029
19295W        W35429  12.475   8.970  10.931  0.0537  0.0606 -0.0950
19296W        W35430  17.747  14.026  12.383 -0.1655 -0.1420  0.0935
19297W        W35431   7.944  15.136  11.542 -0.0351 -0.0860  0.0103
19298W        W35432   4.741   7.275  14.124 -0.3300  0.0119  0.1602
19299W        W35433   3.055   5.167   1.359  0.1452 -0.0496 -0.0164
19300W        W35434  12.982   6.769  10.287 -0.1582  0.0039 -0.2656
19301W        W35435  10.237   3.127   1.144  0.0985 -0.1609  0.0587
19302W        W35436  15.779   2.660  12.796 -0.3059 -0.1754 -0.2335
19303W        W35437  18.462   7.383  13.005  0.0293  0.0919  0.0021
19304W        W35438   4.643   4.343   4.783  0.1570  0.0537  0.2543
19305W        W35439   2.240   5.646   0.627  0.0694 -0.2442 -0.1326
19306W        W35440   0.199   1.919  14.441  0.3117 -0.0618 -0.0791
19307W        W35441   9.154  16.074   2.755 -0.2756  0.1549 -0.1198
19308W        W35442   3.597   6.987   4.044 -0.1829  0.2947  0.3266
19309W        W35443   8.619  16.277   2.522  0.0080  0.1285  0.2483
19310W        W35444   8.340  12.774  14.918 -0.0007 -0.0272 -0.0243
19311W        W35445  18.999   4.201  13.791  0.0798 -0.2256  0.0358
19312W        W35446  11.345   5.658   9.982 -0.0783  0.2319  0.2306
19313W        W35447  11.822   7.156   0.372  0.0781  0.0701 -0.3395
19314W        W35448  10.821  17.507   3.396 -0.0824  0.0452  0.1424
19315W        W35449   2.665   4.401  13.343 -0.1251 -0.1358  0.1160
19316W        W35450  17.917  18.246  10.084 -0.0773  0.0502  0.0282
19317W        W35451  18.869   4.348  14.845  0.5431  0.0694 -0.1656
19318W        W35452   6.667   9.675  12.689  0.0698 -0.1460  0.1029
19319W        W35453  17.073  17.846   5.868 -0.4053  0.0970  0.1930
19320W        W35454  11.633  17.801  13.448  0.0015  0.3352 -0.1236
19321W        W35455  14.879   4.816   0.974 -0.0650 -0.1226 -0.3641
19322W        W35456   6.401   9.773   4.087  0.2693  0.2268 -0.0109
19323W        W35457  18.541   1.429  12.889 -0.2468 -0.1068 -0.0236
19324W        W35458   3.516   2.042   1.856 -0.1235 -0.0739 -0.0458
19325W        W35459   5.429   8.319  14.463  0.0766  0.0681 -0.0767
19326W        W35460  12.642   8.895   2.221 -0.0797  0.0443 -0.3337
19327W        W35461   5.550   1.043   0.946 -0.1317  0.3577 -0.0622
19328W        W35462   2.548  11.329  14.166  0.0875  0.1236  0.1443
19329W        W35463  16.874  16.393   5.773 -0.0204 -0.2093 -0.0836
19330W        W35464  13.826  16.889   0.968 -0.2451  0.0541  0.1501
19331W        W35465   8.204  17.853  11.191  0.0364  0.0724  0.0203
19332W        W35466   2.204  10.756   9.495  0.0338  0.1035  0.0641
19333W        W35467   7.186   8.743  13.065 -0.1596  0.0068  0.1942
19334W        W35468   0.098   9.327   1.714  0.1432 -0.1169  0.0991
19335W        W35469  12.918  13.836  10.354 -0.0175  0.0256  0.0380
19336W        W35470  14.544  15.433   0.213 -0.0502  0.0312 -0.1715
19337W        W35471   8.360   3.159   2.919  0.1521  0.0040  0.1777
19338W        W35472  11.817   6.319   9.762  0.0478 -0.0650  0.3368
19339W        W35473   0.518   3.489  13.759 -0.1917  0.0555 -0.0201
19340W        W35474   5.761   5.551   1.071 -0.1824 -0.0422  0.1970
19341W        W35475   7.496   4.498  13.992 -0.1320 -0.2584  0.1369
19342W        W35476   0.202  15.472  12.729  0.0560 -0.0497  0.3674
19343W        W35477  12.227  13.646   5.094 -0.0226  0.0892  0.0768
19344W        W35478  15.062  12.904   1.260  0.0267 -0.0197  0.0237
19345W        W35479   7.255  14.581  14.573  0.3040  0.0975  0.1128
19346W        W35480   0.858   1.744  13.214 -0.0740 -0.3158  0.0335
19347W        W35481   3.759   4.566   5.682  0.0627  0.0033  0.1891
19348W        W35482  12.494  16.928   4.316  0.1572 -0.2445  0.4086
19349W        W35483   8.503   0.714  13.922  0.4950 -0.2499 -0.0925
19350W        W35484  17.395  14.699  14.234  0.2861  0.0613 -0.0254
19351W        W35485   3.191   0.893   0.049  0.0675  0.3161  0.0319
19352W        W35486   9.042  10.777   1.389  0.1864  0.0877  0.0035
19353W        W35487   5.091  12.621   4.346 -0.0628  0.1156 -0.2590
19354W        W35488   5.651   3.584   4.703  0.0569  0.2797 -0.2343
19355W        W35489   6.202  10.299   0.728  0.1049 -0.0417 -0.1693
19356W        W35490  16.361  18.177   0.929 -0.1097  0.1087 -0.2285
19357W        W35491  14.624  10.635  12.279  0.0723 -0.0597 -0.0036
19358W        W35492   8.423  15.088   2.909  0.3252 -0.1233  0.0896
19359W        W35493  15.412  10.988  10.787 -0.1156  0.2943  0.0769
19360W        W35494   9.201  15.305   1.805 -0.1812 -0.2399 -0.1258
19361W        W35495   3.994  17.134   4.806 -0.2102 -0.4742  0.4627
19362W        W35496   1.592   6.957  14.574  0.0012  0.3138  0.1942
19363W        W35497  10.340   0.923   2.800 -0.4120  0.0487  0.2331
19364W        W35498  18.956  14.494   0.902  0.1166  0.1783  0.0597
19365W        W35499   0.660   3.622  13.203 -0.0472  0.1330  0.2319
19366W        W35500  15.559   1.242   2.414  0.2096  0.1004  0.2075
19367W        W35501   6.693  17.644  12.428 -0.0687  0.1785  0.1039
19368W        W35502  11.711  10.155   2.201  0.2314 -0.1844 -0.0076
19369W        W35503  10.983  10.459  14.123 -0.1673 -0.3244 -0.1762
19370W        W35504   6.103   0.623  13.674  0.0982  0.0881  0.0988
19371W        W35505   0.820   6.540   5.148  0.0155  0.1921 -0.1132
19372W        W35506   8.492   8.988  11.163  0.0491  0.1076  0.2609
19373W        W35507  10.305  14.783   1.608  0.1211  0.0581  0.0518
19374W        W35508  10.701   3.380   9.306  0.0243 -0.2139  0.0395
19375W        W35509  15.320   9.352  14.400 -0.0915 -0.1381 -0.0275
19376W        W35510  12.427   2.197  12.540  0.1384 -0.1747 -0.0656
19377W        W35511   2.415  16.680   5.088 -0.0856 -0.0683  0.3050
19378W        W35512  11.013  10.911   0.203 -0.0104 -0.3353  0.0541
19379W        W35513  15.545   6.032   0.398 -0.1172  0.1326 -0.1113
19380W        W35514   9.264  16.238   0.257  0.0939 -0.0335  0.0315
19381W        W35515   8.033  11.205   2.365 -0.0637  0.1990  0.2122
19382W        W35516   0.220   7.139   4.591  0.1075 -0.1212  0.1384
19383W        W35517   2.956   0.644   2.158 -0.0091 -0.0858  0.2059
19384W        W35518   9.206   7.355  11.473 -0.0381 -0.1199 -0.1961
19385W        W35519  10.305   7.411  13.324  0.2877 -0.0603  0.1118
19386W        W35520  11.810   6.026  11.843 -0.1100  0.2464  0.0553
19387W        W35521   9.059   0.219   1.112  0.0415 -0.1539  0.0359
19388W        W35522  16.467  11.618   5.202  0.1804  0.2493 -0.3928
19389W        W35523   6.511   1.680   1.121  0.0351 -0.1561  0.0171
19390W        W35524  18.755  15.711   4.365  0.0160 -0.2182  0.0828
19391W        W35525  11.350  14.216   4.866  0.3429 -0.0540 -0.1963
19392W        W35526  11.930   0.975  10.729 -0.2399  0.1327  0.2600
19393W        W35527  14.285   0.643   4.246 -0.4482  0.1580  0.2006
19394W        W35528   6.917  14.734   1.797  0.0577  0.0732  0.1545
19395W        W35529  13.513   1.320  10.766 -0.0784  0.3009  0.0383
19396W        W35530  14.185  15.951   2.309 -0.0766 -0.0058  0.1704
19397W        W35531  13.310  17.009  11.938 -0.0971 -0.0187 -0.0525
19398W        W35532   9.069  13.842  12.434 -0.0693 -0.3068 -0.0051
19399W        W35533   8.982   8.209   4.760 -0.0092  0.2852 -0.3320
19400W        W35534  16.170  11.814   0.952  0.2164  0.0752  0.0439
19401W        W35535  14.066  12.603  14.210  0.0395 -0.0242  0.0882
19402W        W35536  18.463   6.188   1.914 -0.2330 -0.3534 -0.2471
19403W        W35537  19.158  10.468  12.590 -0.0987  0.0035  0.3096
19404W        W35538   7.240  11.974   3.070  0.1055 -0.0754 -0.1966
19405W        W35539  18.347   0.563   3.860  0.2473 -0.0377  0.0634
19406W        W35540  17.990   7.801  14.709  0.0649 -0.0650 -0.1935
19407W        W35541  16.401   7.808   3.217 -0.0933 -0.0142  0.0000
19408W        W35542  19.148  16.020  12.634  0.0966  0.1094  0.2716
19409W        W35543  11.997   0.950  11.881 -0.0754 -0.1778  0.2031
19410W        W35544  12.654   7.466  11.372 -0.0094  0.1351 -0.0776
19411W        W35545   9.190   0.334   2.588  0.2192  0.1250 -0.3397
19412W        W35546   3.219  10.010  11.250 -0.5450  0.2266 -0.0325
19413W        W35547   8.446  16.695  10.680 -0.0814 -0.1382 -0.1132
19414W        W35548   4.754   7.011   2.185  0.2617 -0.0472  0.0350
19415W        W35549  10.209   1.857   0.302  0.4376 -0.0252  0.0587
19416W        W35550  10.429   4.146   1.978 -0.0310 -0.1888  0.1922
19417W        W35551   9.401  11.085   4.334 -0.1471 -0.1298 -0.3593
19418W        W35552  10.785   3.694   0.166 -0.1513 -0.1115 -0.0505
19419W        W35553   6.841   5.615   4.162  0.2887  0.0054  0.1024
19420W        W35554   9.442   7.041  12.759 -0.0614  0.0728  0.1045
19421W        W35555  13.790   5.980   1.635  0.0687  0.2133  0.0848
19422W        W35556   8.276   8.149  11.068 -0.2261 -0.3757 -0.0947
19423W        W35557   7.117  12.070   2.234  0.2061 -0.2769  0.1508
19424W        W35558  15.287   0.537  12.385 -0.1309 -0.4690 -0.2593
19425W        W35559   0.690  17.756   5.593  0.2746  0.2742  0.0951
19426W        W35560   6.618   6.322   9.967 -0.2661 -0.2232 -0.2674
19427W        W35561   8.561   5.265   2.236  0.0323 -0.1462 -0.2537
19428W        W35562  15.642   8.790   2.020  0.3041  0.2137  0.0677
19429W        W35563  10.521  15.762   2.645 -0.1539 -0.1349  0.1022
19430W        W35564  10.230  10.868  14.668 -0.3498 -0.1396  0.1079
19431W        W35565   3.781  17.201   0.250 -0.1053  0.5959 -0.0479
19432W        W35566   9.305   3.581   3.445  0.1653  0.0995  0.0580
19433W        W35567   0.093   4.891  11.527  0.2365  0.0192  0.1909
19434W        W35568   0.599   0.878   0.701  0.2406 -0.0387 -0.0753
19435W        W35569   5.228   9.896   5.051 -0.2440  0.2667 -0.0966
19436W        W35570   0.663   3.380  10.902  0.3010  0.2397 -0.0573
19437W        W35571  11.539  18.780  14.805  0.3743 -0.1304  0.1726
19438W        W35572  13.610  15.020   4.765 -0.2911  0.0946  0.2128
19439W        W35573   8.710   7.939  14.570  0.1695  0.1366  0.1193
19440W        W35574  16.614   1.727   2.058  0.0126  0.0698 -0.2877
19441W        W35575   2.552  14.157  13.818  0.0907  0.2218 -0.1955
19442W        W35576   6.692  10.132   4.627  0.0503  0.0635  0.3094
19443W        W35577  13.671   4.532  14.662  0.2154  0.2455  0.4163
19444W        W35578   6.456   3.320  10.443  0.1432 -0.1594 -0.0529
19445W        W35579  17.904  16.340  13.187 -0.3152  0.2538  0.0807
19446W        W35580   3.783  18.004  13.676 -0.1458 -0.0719 -0.1614
19447W        W35581   3.994   5.855   3.952 -0.0881  0.3511  0.1869
19448W        W35582   5.122   7.487   3.924 -0.0906  0.2873 -0.1626
19449W        W35583   2.666  12.722  11.123 -0.3351 -0.0660 -0.0062
19450W        W35584   3.250  12.523   1.434 -0.3333  0.1102 -0.0944
19451W        W35585  16.635   9.511   0.577 -0.3014  0.0581 -0.1518
19452W        W35586   7.506   0.047  13.358  0.0020 -0.0694 -0.1574
19453W        W35587   1.886   1.795   0.842  0.1282 -0.0308  0.2623
19454W        W35588   6.694   5.214  10.118 -0.0602 -0.0347  0.0378
19455W        W35589   4.245   6.120  13.811 -0.1000 -0.1505  0.0848
19456W        W35590   7.798  10.300   2.030 -0.1423  0.1172  0.4643
19457W        W35591  16.791   5.856   3.957 -0.0116 -0.0216 -0.2272
19458W        W35592  12.050   6.335  14.441  0.2638 -0.1416 -0.0037
19459W        W35593   6.848   7.700  11.187 -0.0583 -0.0788  0.1277
19460W        W35594   4.879  10.160  14.276  0.2198  0.1109 -0.1569
19461W        W35595   3.191   6.536   1.086  0.3497 -0.4016 -0.1283
19462W        W35596  18.081   5.921   4.910  0.2433  0.1135 -0.2944
19463W        W35597  16.988   5.335  13.244 -0.2157 -0.1880 -0.1768
19464W        W35598   8.986  13.457   3.315  0.0616  0.1967  0.2967
19465W        W35599   6.111  18.623  14.408  0.3322  0.0838  0.0854
19466W        W35600  17.089  10.304  12.736 -0.2881 -0.1144  0.1254
19467W        W35601  16.512  14.275   5.953  0.1446 -0.0293  0.3863
19468W        W35602  14.444   8.286   2.628 -0.1071 -0.3792 -0.0008
19469W        W35603  11.941  11.963  11.980 -0.0590  0.2835 -0.0003
19470W        W35604  18.868  12.989  13.523  0.1186  0.1194 -0.0151
19471W        W35605   2.227  19.038   2.046  0.1139  0.3619  0.0629
19472W        W35606  12.605   1.482   3.418 -0.4078  0.0891 -0.0369
19473W        W35607  13.091   0.282  14.199  0.0604 -0.0798  0.0256
19474W        W35608  11.196   3.592  10.173  0.0633 -0.0242 -0.0581
19475W        W35609  17.001  15.644  13.151  0.2188 -0.1521  0.1506
19476W        W35610   1.314   3.052   1.204  0.0295  0.1243  0.1561
19477W        W35611  17.925  12.848   1.713 -0.1566 -0.3930 -0.2504
19478W        W35612  13.414   6.970  11.749  0.0404 -0.1012 -0.0220
19479W        W35613   3.427   6.744   3.144  0.2273  0.0866  0.4322
19480W        W35614   4.893   2.300  12.924  0.1537 -0.2707 -0.2791
19481W        W35615  18.857  10.178   4.516 -0.2240 -0.1730  0.2286
19482W        W35616  13.926   4.248  12.474  0.2549  0.0953 -0.2629
19483W        W35617   1.079   8.968  13.422 -0.2829  0.1171  0.4331
19484W        W35618   9.030  14.104   0.153  0.2281 -0.1354 -0.1844
19485W        W35619  13.631   8.548   0.413 -0.1007 -0.2398  0.2159
19486W        W35620   1.378   9.790   2.335  0.1054  0.1654 -0.0635
19487W        W35621  12.838  18.872  12.030 -0.0316 -0.2814 -0.1960
19488W        W35622   0.345  16.637   1.176 -0.0258  0.1209 -0.0574
19489W        W35623   7.486  12.937   4.441  0.0903 -0.0306 -0.0759
19490W        W35624   6.927  10.469   2.068  0.0107  0.2926 -0.1469
19491W        W35625   4.921  18.698  14.859 -0.2300 -0.1232 -0.0525
19492W        W35626   1.490  17.170   2.473 -0.2716 -0.0989  0.0969
19493W        W35627   1.265   9.938   1.027  0.3946  0.2705 -0.2800
19494W        W35628  14.776   0.703  12.149 -0.0691 -0.1272 -0.0525
19495W        W35629   4.003   4.982   1.030 -0.0567  0.0748 -0.2552
19496W        W35630   6.067  12.941  12.614  0.0806 -0.0473 -0.1550
19497W        W35631   9.445  11.860   1.769 -0.0775 -0.3498 -0.0401
19498W        W35632   1.763   4.736   5.377 -0.0395  0.0258 -0.2802
19499W        W35633   0.196   4.666   1.447  0.1851  0.0191 -0.1047
19500W        W35634   0.163  13.460   1.275 -0.0710 -0.1506 -0.0209
19501W        W35635  11.998  18.712   3.094 -0.0372 -0.1377 -0.2710
19502W        W35636   4.376   5.137   2.956  0.1926  0.0375  0.3730
19503W        W35637   8.851  10.076   4.442 -0.1311  0.1404 -0.1748
19504W        W35638   2.606   9.141   3.605 -0.1502  0.0809  0.0134
19505W        W35639   0.556  16.933   0.732  0.1477  0.2042 -0.1005
19506W        W35640   5.944  13.069   0.051 -0.1147  0.2211 -0.0090
19507W        W35641   5.007  18.803  13.631  0.2576 -0.1088 -0.1128
19508W        W35642   7.852  15.203  10.634 -0.3251 -0.1099 -0.2604
19509W        W35643  17.852   5.907   4.082  0.2369  0.1396  0.0341
19510W        W35644   6.171  11.641  14.487 -0.2271  0.2483 -0.0372
19511W        W35645  13.508   1.638  14.709 -0.0150 -0.1366 -0.0668
19512W        W35646  18.828   7.410   1.648  0.0266 -0.1339  0.4645
19513W        W35647   4.910   7.303   0.009  0.0191  0.2074 -0.1728
19514W        W35648  16.227   5.892  11.307  0.0419  0.1291  0.1796
19515W        W35649   9.298  15.003  13.367 -0.0530  0.3555  0.3571
19516W        W35650   9.110   0.295  14.352 -0.2660 -0.1721 -0.2022
19517W        W35651   1.153   3.484   4.842  0.2536 -0.1784 -0.0960
19518W        W35652   2.511   6.278   5.042 -0.2996  0.3937 -0.0256
19519W        W35653  16.776  17.772   5.389 -0.0846  0.1707 -0.0363
19520W        W35654   1.337  19.069   3.888  0.3662  0.2123 -0.0541
19521W        W35655   9.693  17.081   4.746  0.4373 -0.0671 -0.0153
19522W        W35656   9.772  10.909   3.178  0.1845  0.0182  0.0932
19523W        W35657   0.692  14.005  11.110 -0.1115  0.2645  0.1797
19524W        W35658   6.840  18.772  13.636  0.3857  0.1442  0.0075
19525W        W35659  12.889   2.791   9.702 -0.2518  0.2357 -0.1533
19526W        W35660  12.253   0.027   0.254  0.1451 -0.2290 -0.0231
19527W        W35661   4.846  16.480  13.372  0.0658  0.1394  0.0961
19528W        W35662   8.203   7.041   0.066  0.2331 -0.1455  0.1544
19529W        W35663   8.462   6.117   1.205 -0.1115  0.3343 -0.0176
19530W        W35664   5.863   3.432   2.399  0.1500  0.0025  0.1466
19531W        W35665  12.090   5.958   9.983  0.1926 -0.1515  0.1121
19532W        W35666  17.084  17.810   4.072  0.3889  0.1105 -0.2668
19533W        W35667  15.146   8.428  12.354  0.2592 -0.0948 -0.2490
19534W        W35668   4.807   9.087   4.227 -0.0240 -0.4275  0.1313
19535W        W35669  10.674   4.906  10.991  0.1266 -0.2208  0.0802
19536W        W35670   1.221  10.169   1.467 -0.0087  0.1250  0.1466
19537W        W35671   4.936   3.950   3.237  0.0664  0.0519 -0.1524
19538W        W35672  17.275   0.399   5.291  0.3748 -0.2655 -0.4263
19539W        W35673   1.435   7.135   4.831 -0.0263 -0.1146 -0.1316
19540W        W35674   8.217   4.141  12.611  0.1415 -0.2397  0.0503
19541W        W35675  13.973  16.781   4.666 -0.0727 -0.0978 -0.1734
19542W        W35676  10.129   5.329   4.798  0.2033  0.0519  0.0924
19543W        W35677   1.543   1.440  12.166  0.2412 -0.2164 -0.3128
19544W        W35678   5.907  10.359   3.461  0.2392  0.0016  0.1577
19545W        W35679  15.268   8.193  11.482  0.0185 -0.0404  0.0123
19546W        W35680  10.347  14.106  12.083  0.2982  0.1379  0.0253
19547W        W35681   4.028   3.287  14.559  0.3031 -0.2676 -0.0581
19548W        W35682  10.598  14.011  10.331  0.2800  0.1419  0.0452
19549W        W35683   4.661  12.002  12.719  0.0819  0.1504 -0.5304
19550W        W35684  12.174  12.121   0.475  0.0554  0.0878 -0.1779
19551W        W35685  10.239   1.379  10.631  0.0050  0.1122 -0.0554
19552W        W35686   2.039  10.159   0.170 -0.3217  0.2644  0.0769
19553W        W35687   3.098   8.202  13.459  0.0611  0.1590 -0.0448
19554W        W35688   9.368   9.658   9.534 -0.1128  0.1945 -0.3521
19555W        W35689   9.743   7.794  11.145  0.0879  0.2769 -0.0961
19556W        W35690  13.980   4.114   3.023  0.0600 -0.1857 -0.0225
19557W        W35691  16.838  16.968  12.413  0.1599  0.2104  0.0062
19558W        W35692  13.502   7.793   3.013  0.2693 -0.0531  0.0244
19559W        W35693   9.946  16.416  12.027 -0.2411  0.1365 -0.1100
19560W        W35694   1.984  13.993  14.532  0.2812 -0.2925 -0.0158
19561W        W35695   3.562  15.446   3.795  0.0522  0.2422  0.2594
19562W        W35696   6.456   2.358  13.668 -0.0908 -0.1166  0.0636
19563W        W35697  10.593   5.031   0.251  0.2741 -0.2136 -0.0853
19564W        W35698  18.570   7.095   2.936 -0.2438  0.0224  0.0954
19565W        W35699  10.780   1.620   1.028 -0.0636  0.1989 -0.0706
19566W        W35700  18.751   4.735   0.213  0.0634  0.2285  0.2572
19567W        W35701   5.364  17.222  10.489 -0.1967 -0.3813  0.1331
19568W        W35702   4.272  10.794   1.476 -0.0999 -0.1490  0.1148
19569W        W35703  10.367   5.390   1.423 -0.4183  0.0654 -0.0759
19570W        W35704  13.848  12.543   4.873  0.2768  0.2001 -0.0079
19571W        W35705  10.090   7.337  11.350 -0.1138 -0.0294  0.0478
19572W        W35706   8.500  13.671   3.890  0.2065  0.2726 -0.1436
19573W        W35707  14.060  19.203  14.044  0.5023 -0.2735 -0.0952
19574W        W35708  16.147   1.091   0.470 -0.0623 -0.1951  0.1649
19575W        W35709   2.752   7.772   2.209  0.1401 -0.0115  0.2537
19576W        W35710  11.523   7.387   4.366  0.0307  0.2814 -0.2747
19577W        W35711  14.627   4.121   0.262  0.2343 -0.4034 -0.0774
19578W        W35712  12.812   4.968   0.684 -0.3987  0.0093  0.1639
19579W        W35713   5.385   8.533   9.641 -0.0341  0.2436  0.0285
19580W        W35714  14.816   1.614   5.275  0.1197  0.2960 -0.1269
19581W        W35715   8.314  14.684   4.871 -0.0609 -0.1346 -0.2181
19582W        W35716  11.371   6.092  13.314  0.2160 -0.1048 -0.0679
19583W        W35717  17.508   0.702   4.744 -0.1231 -0.3859  0.1301
19584W        W35718   7.525   9.652   0.758  0.2325 -0.1773  0.3010
19585W        W35719  16.689  10.014  10.387  0.0043  0.0628  0.0517
19586W        W35720   9.431   3.617  13.212  0.1378  0.2059 -0.1101
19587W        W35721   5.316  11.273  12.638 -0.1324 -0.1538 -0.1773
19588W        W35722   4.435   2.236  13.387  0.2283 -0.0901 -0.2834
19589W        W35723  10.745  10.633  11.906 -0.2340  0.2445 -0.2405
19590W        W35724   5.915   0.131   5.457  0.2571 -0.2541 -0.0594
19591W        W35725   1.081  19.197  12.694  0.1700  0.0947  0.0621
19592W        W35726  13.638   2.046   1.142  0.0750  0.1086 -0.0114
19593W        W35727  15.557   7.480  10.793 -0.2862 -0.0233 -0.2867
19594W        W35728   0.535   9.024   4.464  0.0251  0.2581  0.1860
19595W        W35729  12.935   6.719   1.007 -0.0192 -0.1241 -0.0720
19596W        W35730   0.481   9.269   0.179  0.1222  0.0616  0.1281
19597W        W35731  13.467  10.664  13.615 -0.2744  0.0216 -0.0546
19598W        W35732  18.267   1.832   3.030 -0.2266  0.1163 -0.0647
19599W        W35733   5.141   4.682   2.472  0.0874  0.4492 -0.0330
19600W        W35734  18.994  10.117   3.922  0.3675 -0.3907 -0.0539
19601W        W35735  18.758   9.222   3.083 -0.0390 -0.1442  0.0201
19602W        W35736   9.214  17.181  12.838  0.1941 -0.0350  0.0083
19603W        W35737   9.553   0.986  11.417 -0.0663  0.0477  0.1410
19604W        W35738  12.625   0.005   3.899 -0.2166 -0.1174  0.1509
19605W        W35739  11.586   8.630   4.313 -0.0105  0.0195 -0.1103
19606W        W35740   7.329   3.640  10.125  0.0454 -0.2516 -0.0060
19607W        W35741  14.279   7.979   9.710  0.0023 -0.1092  0.1216
19608W        W35742   0.619   5.233  12.976 -0.0457 -0.1834 -0.0350
19609W        W35743  17.622  17.320   0.253  0.0430 -0.3139  0.1972
19610W        W35744   7.998   4.977   9.943 -0.0386 -0.0186 -0.4229
19611W        W35745   6.239  15.556  12.635 -0.3664 -0.1033  0.1803
19612W        W35746   6.986  14.857  12.665 -0.0064  0.1260  0.0143
19613W        W35747   2.969   5.793  12.958 -0.0090  0.1401  0.0758
19614W        W35748   2.331  18.607  14.034 -0.1655  0.0806 -0.1789
19615W        W35749   9.896  18.234  12.890  0.3339 -0.0325  0.5469
19616W        W35750  11.698   5.170   2.901 -0.3545 -0.0696  0.3669
19617W        W35751  15.068  10.703  11.309 -0.0363  0.0380  0.1314
19618W        W35752  12.503   4.778   1.028  0.1408  0.2879  0.1219
19619W        W35753  19.167  16.132  13.138  0.1858  0.0170  0.3720
19620W        W35754  12.891  14.691   9.754  0.2201  0.3312  0.1414
19621W        W35755  14.993   6.459  13.416 -0.2594  0.3138 -0.2993
19622W        W35756  10.876  17.755  14.072  0.0058 -0.1817 -0.0685
19623W        W35757   1.412   5.559   1.235  0.0444  0.0158  0.0612
19624W        W35758   4.254  16.401   1.447 -0.6123  0.0118 -0.4329
19625W        W35759  13.915   2.428  12.733 -0.2344 -0.0474 -0.2530
19626W        W35760   2.081   3.882  13.887 -0.4374  0.1714 -0.0861
19627W        W35761   6.521   2.990  12.225  0.3388  0.0973  0.0734
19628W        W35762   6.722  18.982   0.618 -0.1302  0.0144  0.4159
19629W        W35763   4.226   5.821   5.538 -0.0780 -0.0023  0.2649
19630W        W35764   4.456  18.722  13.403  0.3235 -0.1441 -0.0141
19631W        W35765  11.337   6.910  10.006  0.4394  0.2828  0.0003
19632W        W35766   1.273   8.312   4.324 -0.0387 -0.0373  0.0244
19633W        W35767   9.841   0.987   4.576  0.0312 -0.3009  0.0534
19634W        W35768  17.686  12.546   5.003 -0.2063  0.1154  0.0918
19635W        W35769   3.419   9.107  11.945  0.1229 -0.4504 -0.0291
19636W        W35770  12.189   7.781   1.207 -0.2327 -0.1685  0.1412
19637W        W35771  11.520  11.144   0.352  0.0398  0.1961  0.3118
19638W        W35772   5.432   1.881   3.293 -0.1259 -0.0000  0.1196
19639W        W35773   4.593  18.207   4.369 -0.1757  0.3840  0.1622
19640W        W35774   8.825   2.460  11.265 -0.2751  0.2199 -0.0858
19641W        W35775  12.281   7.978   0.755  0.1781 -0.0628 -0.2136
19642W        W35776   2.835   0.060   4.736  0.0879 -0.2164 -0.0490
19643W        W35777  13.374  14.126   0.047  0.0325  0.5379  0.0284
19644W        W35778  18.864  12.130   1.647  0.1803  0.0297 -0.1215
19645W        W35779   4.044  11.754   0.374  0.3088  0.1039  0.1544
19646W        W35780  14.447   7.696   0.772  0.1700 -0.2219 -0.1314
19647W        W35781  16.098  16.343   0.940  0.3147 -0.0211  0.4933
19648W        W35782   1.669   9.396   3.539  0.1163  0.2348  0.0388
19649W        W35783  11.216   7.043  10.478 -0.2692  0.0321  0.2386
19650W        W35784  17.444   4.122  10.988  0.0543  0.0821  0.3225
19651W        W35785   2.631   4.397  12.824 -0.0285 -0.0425  0.1471
19652W        W35786   3.163  13.955  13.981 -0.1812  0.0891  0.4071
19653W        W35787   7.925  15.895  11.882 -0.0525  0.0439 -0.0095
19654W        W35788  16.326  14.028  13.969 -0.3268 -0.0305  0.1807
19655W        W35789   6.680   3.935   2.557  0.1799  0.0525  0.2815
19656W        W35790   5.584  18.675   0.655  0.0938  0.0834  0.1978
19657W        W35791  13.505  19.070   1.109  0.2981 -0.0327  0.1854
19658W        W35792  10.477  13.857   1.518  0.2029 -0.2871  0.0288
19659W        W35793   2.597   4.157   2.667  0.0777 -0.1372 -0.0422
19660W        W35794  16.638  11.036  11.822  0.0264 -0.1514 -0.1427
19661W        W35795   5.241   1.007  13.330 -0.0122  0.1896  0.1500
19662W        W35796   0.631  15.799   2.501  0.3820  0.0039  0.2037
19663W        W35797   5.297   6.392   0.026 -0.0968  0.0581  0.1309
19664W        W35798  18.939  16.290   0.507  0.1203  0.1700 -0.0540
19665W        W35799   0.364   1.938  10.851 -0.0402 -0.2127 -0.0530
19666W        W35800  16.593   8.443   2.613  0.3525  0.3144 -0.0305
19667W        W35801  14.814  12.495   1.086  0.0568  0.2307 -0.1058
19668W        W35802   7.684  16.525  13.969 -0.1958  0.2966 -0.2351
19669W        W35803  17.250   3.201  10.430 -0.1711  0.0742 -0.0229
19670W        W35804  12.021   6.110   1.913  0.0063  0.1465 -0.0315
19671W        W35805  17.917  13.489  13.526 -0.0135 -0.2005  0.0043
19672W        W35806   2.973   2.172  10.671 -0.3092 -0.1295 -0.3603
19673W        W35807   9.954   1.486   3.757  0.2367  0.3342  0.3982
19674W        W35808  18.756  15.990  14.412 -0.1799 -0.0336 -0.0532
19675W        W35809   7.376   4.327  12.462  0.1124 -0.3864  0.2371
19676W        W35810   8.983   0.494  12.183  0.1139  0.1338  0.0647
19677W        W35811   9.488   9.950  11.461 -0.1530  0.0144  0.0041
19678W        W35812   4.092   1.940   4.357 -0.4958  0.0853  0.0849
19679W        W35813  10.753   5.515  10.675  0.2724 -0.0720 -0.0064
19680W        W35814  13.700  16.677  11.080  0.1946 -0.1781  0.2361
19681W        W35815  17.146  12.344  12.149  0.2042  0.1912  0.0268
19682W        W35816  17.803   7.593   4.264 -0.0885 -0.1030  0.1332
19683W        W35817  14.409   8.431   5.358  0.1718  0.2660 -0.2390
19684W        W35818   2.235   5.241  13.030  0.0071  0.0943 -0.0365
19685W        W35819  11.377  16.015  11.122 -0.0277  0.0902 -0.2822
19686W        W35820  12.085   2.140   3.589  0.0754 -0.1430  0.1106
19687W        W35821   8.489  13.591   0.384  0.1030  0.2081  0.4287
19688W        W35822  17.461  10.310   1.811 -0.0059  0.2729 -0.0528
19689W        W35823  16.885   7.638   1.368 -0.2227 -0.0227 -0.2712
19690W        W35824   7.862  12.324   4.852 -0.1208 -0.0516 -0.0545
19691W        W35825   2.453  12.008   3.173  0.0253 -0.3226  0.0706
19692W        W35826   5.773  15.346  14.731  0.1538 -0.0935 -0.2321
19693W        W35827   1.444   8.565   4.765 -0.2730  0.0808 -0.0206
19694W        W35828  10.595   7.188   1.956 -0.0585  0.1776  0.1897
19695W        W35829   0.827  11.918  12.765 -0.2184  0.0640 -0.0911
19696W        W35830  16.527   6.741   1.093  0.0345 -0.0442 -0.0610
19697W        W35831   5.276  11.485  11.153 -0.0113  0.0199  0.2862
19698W        W35832   4.487  19.234  12.825 -0.0854  0.0018  0.1083
19699W        W35833  18.810   8.897  13.617 -0.0344 -0.2096 -0.0256
19700W        W35834   1.289   3.292   0.022  0.1680  0.1859 -0.0720
19701W        W35835   1.299   9.307  11.303 -0.0020  0.0190  0.3302
19702W        W35836   7.105  17.455  11.563  0.2515 -0.1617  0.0987
19703W        W35837   1.298   9.790   3.697 -0.2068  0.0268  0.1566
19704W        W35838  18.822   5.158  14.855  0.1538  0.0210 -0.1319
19705W        W35839  14.242   8.732   1.063  0.2237 -0.0203  0.0568
19706W        W35840  13.841   7.753   4.338 -0.0042  0.3773 -0.1912
19707W        W35841  16.013   0.934   2.054  0.1338 -0.1894 -0.0951
19708W        W35842   2.473   1.003   0.633  0.2858  0.2695 -0.1967
19709W        W35843   7.677   2.349  13.010 -0.0707  0.1044  0.1474
19710W        W35844   8.944  17.702  13.658  0.0386 -0.1517  0.2697
19711W        W35845  11.526   5.453  13.082 -0.3584 -0.2297  0.0710
19712W        W35846   7.427  10.575   2.851  0.0014  0.0238 -0.2149
19713W        W35847   9.764  15.221   4.191  0.2587 -0.1883  0.0198
19714W        W35848  18.140   1.831   2.487 -0.0721 -0.0070 -0.1961
19715W        W35849   1.091   8.384  11.845  0.0223  0.1872 -0.1009
19716W        W35850  16.099   6.217   4.916  0.3557 -0.0964  0.3629
19717W        W35851  15.295  13.543  11.963 -0.0264  0.1864 -0.2462
19718W        W35852  11.518   1.350  14.899 -0.1531  0.3445  0.3640
19719W        W35853  17.985   1.602  12.241  0.1098  0.0758 -0.0437
19720W        W35854  17.450   9.524   2.745  0.0406  0.1495  0.1368
19721W        W35855   7.480   3.992   3.684  0.1261 -0.2057  0.0475
19722W        W35856  17.506   4.823  12.781 -0.2485 -0.0619 -0.1057
19723W        W35857   6.543  18.444  12.864  0.1330  0.0922 -0.0157
19724W        W35858   1.355   2.767  15.039 -0.0945  0.0062 -0.3086
19725W        W35859   6.558   8.368  14.530  0.2249  0.1692  0.0914
19726W        W35860   2.570  18.228   1.403 -0.0816  0.3523 -0.1929
19727W        W35861   7.777  15.258   0.336 -0.0844 -0.0796 -0.0566
19728W        W35862  13.962   4.410  14.220 -0.4109 -0.0633 -0.3059
19729W        W35863  18.548  15.285   2.991 -0.1743  0.1600 -0.2009
19730W        W35864   2.382  18.961  11.064 -0.2240  0.0032  0.0775
19731W        W35865   0.705  11.978  12.242 -0.2102 -0.0261  0.2948
19732W        W35866   8.935   5.624  11.185  0.0452  0.0089 -0.3543
19733W        W35867  16.664   6.819  12.928  0.1881 -0.0298  0.1772
19734W        W35868   1.977  17.822  10.478 -0.1137  0.1500  0.0789
19735W        W35869   3.564   3.475  13.663  0.3932 -0.0017  0.2047
19736W        W35870  16.915  15.348  11.766  0.0507 -0.5036  0.2494
19737W        W35871  13.762   1.126   1.963  0.2368  0.2384 -0.1029
19738W        W35872  16.828   4.047  10.470  0.1403 -0.0931  0.1530
19739W        W35873   7.902   1.502  10.728 -0.0386  0.1917  0.1889
19740W        W35874   6.421  12.034   3.250  0.2091  0.3572  0.2177
19741W        W35875  11.172  11.652   0.965  0.3670 -0.2962 -0.0371
19742W        W35876  16.350   8.458   1.296 -0.0591  0.2141  0.1627
19743W        W35877  16.940  13.264  14.809  0.2386  0.2701  0.1421
19744W        W35878   5.102  15.345  14.703  0.2669  0.1026  0.2619
19745W        W35879  13.969  14.867   0.489 -0.1635  0.0578 -0.0694
19746W        W35880   3.690  18.883  12.350 -0.1813  0.1708 -0.0950
19747W        W35881  11.049  17.717  14.820 -0.2050  0.0316 -0.3205
19748W        W35882   3.996  15.251   0.621  0.0495  0.0428  0.5469
19749W        W35883  10.978   3.505   9.654 -0.1536  0.0170  0.1070
19750W        W35884   5.011   2.910  14.737  0.1049 -0.1519 -0.0403
19751W        W35885  15.342   1.753  10.885 -0.0638  0.3130 -0.1512
19752W        W35886   3.107  16.570  14.920 -0.1433  0.1978  0.2619
19753W        W35887   0.249  18.147  13.278  0.0836 -0.0699  0.0411
19754W        W35888   8.781   5.531   3.148 -0.0946 -0.0102 -0.3657
19755W        W35889  13.248  12.023  14.767  0.1889 -0.0222 -0.0068
19756W        W35890   9.083  11.497  14.144  0.0932 -0.2839 -0.2444
19757W        W35891   8.151   9.889  13.160 -0.2489  0.1159 -0.3526
19758W        W35892  14.908  18.760  15.005  0.0378  0.2194 -0.2311
19759W        W35893   9.491   0.555  12.221 -0.0688  0.3798 -0.1671
19760W        W35894   8.541  15.601  12.979  0.0363  0.3379 -0.0851
19761W        W35895  15.769  10.885  13.311 -0.3347 -0.0747 -0.1781
19762W        W35896   6.569  11.529  14.137 -0.3700 -0.2011  0.1552
19763W        W35897  14.461  11.689   4.790  0.0370 -0.0559 -0.4788
19764W        W35898  15.403   1.112   3.866  0.3200  0.0564 -0.2848
19765W        W35899  10.486  11.379  14.582  0.1519 -0.1848  0.1963
19766W        W35900   8.117  12.020  10.321 -0.0566  0.1008  0.2449
19767W        W35901   5.700  13.986   0.909  0.1110 -0.2048 -0.0050
19768W        W35902   7.841  11.865   3.782  0.0838 -0.0870  0.1035
19769W        W35903  10.767  10.177   1.873 -0.1407 -0.2124  0.3056
19770W        W35904  10.042   4.867   1.262  0.0023 -0.2462  0.1695
19771W        W35905  14.260  18.665  11.904 -0.0518 -0.2228  0.0157
19772W        W35906   5.101   5.621  14.475  0.0280 -0.0497 -0.2380
19773W        W35907  14.940   6.881  12.209  0.0868 -0.0746  0.1038
19774W        W35908   7.205   3.190   4.583  0.1286 -0.3053 -0.3801
19775W        W35909   9.754  11.648  14.926  0.4847 -0.0950 -0.1020
19776W        W35910   6.268   1.330  10.529  0.0311  0.0495 -0.0261
19777W        W35911   8.852   5.571  12.697  0.2906 -0.1893 -0.1008
19778W        W35912  18.254  13.808  14.549 -0.1909 -0.0056  0.2904
19779W        W35913  17.590   5.114   9.810  0.1072 -0.1176 -0.0224
19780W        W35914  14.396  13.611   0.172  0.2803 -0.1869  0.0207
19781W        W35915  16.823   1.311   1.738 -0.0992 -0.0414  0.1633
19782W        W35916  15.455   2.149  12.815  0.0959  0.0847  0.1138
19783W        W35917   5.011   7.690  13.866 -0.2149  0.0922 -0.0293
19784W        W35918   8.079  10.307  10.144 -0.1952  0.2511  0.1268
19785W        W35919   0.163  12.460  11.484 -0.2351 -0.0670 -0.2025
19786W        W35920  15.539  17.203   3.177  0.0509 -0.1787  0.0337
19787W        W35921   9.092  14.694   3.176  0.2649 -0.0289 -0.0157
19788W        W35922   8.039   4.997   2.518 -0.4436  0.0975  0.0167
19789W        W35923  10.427   9.611   3.362 -0.1173 -0.1239 -0.3739
19790W        W35924  10.436   8.816   2.482 -0.1840  0.3125 -0.0003
19791W        W35925   8.350   5.772  12.706 -0.2399  0.5273 -0.2672
19792W        W35926  15.684  13.596   1.135 -0.1482 -0.0977 -0.2197
19793W        W35927  15.265   1.447  12.374 -0.1045  0.0542  0.3734
19794W        W35928   2.005   3.480   1.357 -0.0147  0.1367  0.0035
19795W        W35929  16.772   1.631   1.287  0.1501 -0.0190  0.4008
19796W        W35930   1.873  18.772   0.874 -0.1072  0.1491 -0.0728
19797W        W35931   0.637   1.070  10.699  0.0569 -0.1265 -0.0997
19798W        W35932   5.635   5.113  13.751 -0.2116  0.1594 -0.1458
19799W        W35933  15.981   4.768   3.616 -0.2097 -0.0062  0.2547
19800W        W35934  17.343  10.202  10.895  0.1925  0.1561  0.2154
19801W        W35935  13.011  15.943   1.763  0.0317  0.4128 -0.0577
19802W        W35936  18.405  15.913   2.422 -0.1507 -0.0304  0.1364
19803W        W35937  16.626  18.846  11.219 -0.1697 -0.0794 -0.1924
19804W        W35938   7.110   3.162  14.776  0.1958  0.0601  0.2514
19805W        W35939  12.877  15.565  12.160 -0.1328  0.0581  0.0596
19806W        W35940  12.443   4.135   5.025  0.1546 -0.0677  0.0303
19807W        W35941   9.833   3.459   0.352 -0.0864  0.0252  0.2392
19808W        W35942   2.672   3.738   3.512 -0.2574 -0.0574 -0.2899
19809W        W35943   1.198  16.081  11.783 -0.5298  0.0665  0.1020
19810W        W35944   1.176  18.213  13.494  0.2745  0.0358  0.2072
19811W        W35945   6.265   3.326  14.462 -0.2022 -0.0178  0.0657
19812W        W35946  10.426  12.760  11.881  0.3354  0.1761  0.2046
19813W        W35947  18.820  10.125   0.843 -0.1585  0.1535  0.0392
19814W        W35948   4.396  10.551  10.556  0.0855  0.0741 -0.2903
19815W        W35949   8.631   0.935   1.313 -0.0142 -0.4152  0.2201
19816W        W35950  14.638  18.123   4.418 -0.0640  0.3325  0.0198
19817W        W35951  10.457  13.062  14.551  0.0556  0.0701 -0.2395
19818W        W35952   6.987   8.934   3.982  0.3287  0.3980  0.1560
19819W        W35953  18.787   3.552  11.048 -0.0020  0.3336 -0.1642
19820W        W35954  18.174   6.441  12.270 -0.1482  0.4017 -0.0949
19821W        W35955  14.945   4.097  13.431  0.0003  0.0420  0.0900
19822W        W35956  17.834  12.376   0.212 -0.0248 -0.1277 -0.2282
19823W        W35957   5.641  15.178   2.909  0.0952  0.3017  0.2124
19824W        W35958  17.131   5.835  12.005 -0.1085  0.1251  0.0530
19825W        W35959  13.095   9.818  14.332  0.1258 -0.0939  0.3967
19826W        W35960  10.162  12.206  14.070  0.1733 -0.0125 -0.2673
19827W        W35961   0.984  18.566  13.154  0.0153 -0.3009 -0.0177
19828W        W35962   3.445   6.019  12.239 -0.1257  0.3219 -0.2081
19829W        W35963   2.462  11.551   2.268  0.2837 -0.0394  0.2482
19830W        W35964   9.801   7.430   2.605  0.3071  0.0617  0.0446
19831W        W35965  10.246   2.492  10.790  0.1148 -0.0492 -0.2031
19832W        W35966   0.812   6.928   0.325 -0.2670 -0.0998  0.1926
19833W        W35967   7.248  18.687   0.714  0.0351  0.0379 -0.1629
19834W        W35968   0.752   2.581  10.219 -0.2121 -0.2311  0.0092
19835W        W35969  10.748   1.138  14.376 -0.2563 -0.1114  0.1147
19836W        W35970   9.802   0.527  11.731 -0.0474 -0.1012 -0.0602
19837W        W35971   7.232   4.852  13.766  0.1721  0.1541  0.3164
19838W        W35972   8.492   3.539  14.122  0.2757  0.1801 -0.1858
19839W        W35973  10.399   9.135   1.944  0.2556 -0.0604  0.0432
19840W        W35974  17.588  12.065   2.403 -0.1232  0.0645  0.1079
19841W        W35975  10.453   5.234  12.322 -0.2433  0.0779 -0.3408
19842W        W35976  12.336  17.257  14.241  0.1646  0.1305 -0.0652
19843W        W35977  17.825   2.923   2.063 -0.1636 -0.1861 -0.3305
19844W        W35978  14.100   1.486   4.262  0.1732  0.0488 -0.0705
19845W        W35979   5.994  11.031   2.114  0.2937 -0.1146 -0.2041
19846W        W35980  16.502   0.036  13.118  0.0919 -0.4087  0.0105
19847W        W35981   3.874   4.571  13.286  0.0308 -0.0424  0.0936
19848W        W35982  10.756  12.074   2.799 -0.1551  0.1088  0.0801
19849W        W35983  10.728  18.022   2.782  0.2951  0.1746 -0.0937
19850W        W35984  11.426  16.215  13.128  0.0163 -0.3391 -0.1936
19851W        W35985   3.703   5.474   0.234 -0.0250 -0.0893  0.0186
19852W        W35986   3.962  14.019  14.476 -0.1835  0.2353  0.2150
19853W        W35987  12.544  18.646  14.597 -0.4754  0.0652  0.4134
19854W        W35988   8.224  17.296   5.177 -0.1444 -0.0750  0.2824
19855W        W35989  16.588  17.273   5.455  0.3252  0.0702 -0.0372
19856W        W35990   9.027   2.577  10.242  0.0378 -0.0579  0.2153
19857W        W35991  10.171   0.548  11.113 -0.0345  0.0383 -0.0940
19858W        W35992   5.919  12.464  13.401 -0.1446 -0.0045  0.1181
19859W        W35993   4.281   3.954  11.688 -0.1100 -0.2170  0.2400
19860W        W35994  12.651   8.936  12.212 -0.2886  0.6659 -0.0973
19861W        W35995  15.316   9.466  12.380  0.1060  0.2303 -0.0341
19862W        W35996   1.857  10.420  11.521 -0.1180  0.1641  0.0162
19863W        W35997   7.640   9.834   3.841 -0.2588  0.1074 -0.1012
19864W        W35998   8.766  13.272   3.711 -0.2562  0.3604  0.1309
19865W        W35999  14.348   8.358  13.435 -0.3907 -0.0480  0.1627
19866W        W36000  10.964   2.817   1.641 -0.0908 -0.1001 -0.3479
19867W        W36001   6.327  16.947   1.338  0.0322 -0.1631 -0.0664
19868W        W36002  19.136   3.608  10.215  0.3445  0.0193  0.2037
19869W        W36003  17.146   9.447   5.157  0.1467  0.2351  0.1104
19870W        W36004   7.150  19.163   0.992  0.2342 -0.0508 -0.0190
19871W        W36005  11.770  18.731   1.024  0.1021  0.3376 -0.2838
19872W        W36006  11.778   3.338   0.192  0.0097 -0.2356  0.3192
19873W        W36007  18.237  10.858   4.806 -0.1117 -0.0759  0.1615
19874W        W36008  11.374   4.487   0.460  0.1014 -0.1422  0.0037
19875W        W36009   1.464  12.393  11.711 -0.1492  0.0124 -0.1886
19876W        W36010  13.342   9.010  10.826 -0.5101  0.0260  0.1792
19877W        W36011   3.729   7.459   1.932  0.1226  0.0896 -0.1691
19878W        W36012  10.346   9.172   3.769 -0.3013  0.0419  0.2893
19879W        W36013   8.772   3.446   2.558  0.0491 -0.2749 -0.2218
19880W        W36014   2.504  18.186  13.389 -0.2919  0.0173 -0.1916
19881W        W36015   4.026   9.945  14.595  0.1128 -0.1597 -0.0747
19882W        W36016  18.723  17.301  14.750 -0.0118 -0.0673 -0.3205
19883W        W36017  10.302   5.879  11.858 -0.0427  0.0418 -0.3049
19884W        W36018   9.328   4.251  12.619 -0.1699 -0.3201  0.1374
19885W        W36019   0.075  17.794  14.816 -0.0311 -0.0218 -0.2410
19886W        W36020   7.561   0.440  12.174  0.3028  0.0230  0.2744
19887W        W36021  18.202  12.795  10.939 -0.0578  0.1742 -0.0243
19888W        W36022   4.652  15.805  13.053  0.0825  0.1716 -0.0506
19889W        W36023   8.764  17.594   3.829 -0.0891 -0.1974  0.2043
19890W        W36024   9.586  15.804   2.552  0.2665 -0.1144  0.0017
19891W        W36025  15.191  14.933  13.950 -0.1017  0.2944 -0.0908
19892W        W36026  18.918  17.216   4.499 -0.2821 -0.0785  0.4748
19893W        W36027   4.758  17.613   1.754  0.1720 -0.2161  0.2372
19894W        W36028  14.709   8.458  10.424  0.0508 -0.3965  0.1051
19895W        W36029  15.722   3.944  11.373  0.1389 -0.1176 -0.1330
19896W        W36030   6.282  18.702   1.054 -0.0927 -0.0050  0.2230
19897W        W36031  18.633  11.761  14.347  0.4995 -0.0177 -0.2771
19898W        W36032  12.492   4.703   2.291  0.0514 -0.1087 -0.0710
19899W        W36033  14.270   4.248   3.408 -0.2221 -0.0464  0.2267
19900W        W36034  10.866  16.371   1.170 -0.0916 -0.0148  0.2085
19901W        W36035  12.391  13.722  11.966 -0.2343 -0.0430 -0.2262
19902W        W36036   1.014   3.851   1.136  0.1395 -0.4558 -0.0399
19903W        W36037  12.384   2.132  10.359  0.4247  0.3703  0.0827
19904W        W36038   7.882   9.246   9.976  0.0142 -0.1247 -0.2359
19905W        W36039   8.547   4.079  12.094 -0.0531  0.0678 -0.0099
19906W        W36040   0.977  10.222   4.668  0.2786 -0.3705 -0.1080
19907W        W36041   4.238  18.911   1.288  0.2423  0.3452  0.2183
19908W        W36042  13.829   4.551   4.070 -0.0421 -0.0517  0.2498
19909W        W36043   2.754  17.849  11.617  0.1083  0.0705 -0.0213
19910W        W36044   3.393  13.719   1.691 -0.1518  0.1663 -0.0772
19911W        W36045   2.495   0.520   5.931  0.0142  0.1456  0.1561
19912W        W36046   2.943   2.013   4.554  0.1400  0.0301 -0.2127
19913W        W36047  16.613  10.572   3.010 -0.1873 -0.2124  0.3035
19914W        W36048   3.349  18.009   4.459 -0.2610  0.4404  0.0721
19915W        W36049   5.095   5.031  14.926 -0.3206 -0.0458 -0.1758
19916W        W36050   8.124  16.072   1.874 -0.0628  0.2125 -0.0042
19917W        W36051  14.412   2.320  12.630 -0.0640 -0.0210 -0.0232
19918W        W36052  18.201  11.510   3.193 -0.3995 -0.2247  0.3800
19919W        W36053   6.442  12.746   4.296 -0.2475  0.2586 -0.1930
19920W        W36054   6.144  18.794   1.524 -0.5239 -0.0746  0.4290
19921W        W36055   6.153  19.076   2.783  0.1899 -0.0233  0.0305
19922W        W36056   0.314   9.925  10.663 -0.3625  0.1577 -0.1538
19923W        W36057  13.417  18.021   2.519  0.0376 -0.2860  0.0464
19924W        W36058   5.020   8.440  11.458 -0.2036  0.0173 -0.1418
19925W        W36059   9.597   6.102  10.155  0.0749 -0.4216 -0.1738
19926W        W36060  13.242   7.048  12.244  0.1863 -0.1774  0.2135
19927W        W36061   6.587   7.938  14.116  0.3974  0.5446  0.0587
19928W        W36062   2.519   3.192  14.234  0.2414 -0.0611 -0.0681
19929W        W36063   6.338   7.823   2.651  0.3335 -0.3274  0.2187
19930W        W36064  12.225   7.227  10.467  0.2838  0.0221 -0.0217
19931W        W36065   7.128  18.112  11.021 -0.5699 -0.0637  0.1640
19932W        W36066   9.285  15.598   3.013 -0.1077 -0.2039  0.3673
19933W        W36067   8.861   8.517   1.006 -0.1496 -0.0852  0.0118
19934W        W36068   5.977  11.627  13.391 -0.1714 -0.1271 -0.0439
19935W        W36069  18.723  18.701  13.404  0.1585 -0.1575 -0.1332
19936W        W36070   4.094  17.641  13.419  0.0025 -0.0872 -0.0268
19937W        W36071  12.112   7.194   1.928  0.1818  0.2167 -0.0856
19938W        W36072   5.332   5.703   3.078 -0.0464  0.1896 -0.1338
19939W        W36073  14.261  17.247   1.927  0.2813  0.1238  0.1173
19940W        W36074   6.926  15.860   0.948 -0.0980 -0.0005  0.0524
19941W        W36075  15.292   5.445  14.808 -0.1079  0.0774 -0.0152
19942W        W36076   9.955  13.865   4.943 -0.1508  0.0146 -0.0011
19943W        W36077  11.215  15.717   0.237 -0.1152 -0.0252 -0.0004
19944W        W36078   6.722  10.233  10.324 -0.4501  0.4539 -0.3456
19945W        W36079   7.319  17.004  10.186 -0.0808 -0.0112 -0.0012
19946W        W36080   8.267   3.296  12.827 -0.0180 -0.0348 -0.0424
19947W        W36081  18.874   4.019  11.114  0.0456  0.1589  0.1147
19948W        W36082   9.702  14.376  12.939  0.0849  0.3565  0.3471
19949W        W36083  12.546   3.762   0.104 -0.2716 -0.1156  0.1605
19950W        W36084   4.377  14.562   2.136 -0.0035 -0.0104 -0.3436
19951W        W36085   6.181   5.444  11.821  0.1705 -0.1067  0.0110
19952W        W36086  19.089  11.132  14.780  0.0327  0.1406  0.3105
19953W        W36087   3.044  18.235   1.420 -0.3957 -0.0245 -0.0671
19954W        W36088  15.522  11.350   2.838 -0.1104 -0.3337  0.0695
19955W        W36089  12.761  16.459   5.575 -0.0128 -0.0945  0.1491
19956W        W36090  17.495  12.742   0.333 -0.2131 -0.2712  0.1597
19957W        W36091  17.866   8.354  12.293 -0.2817  0.1674 -0.2785
19958W        W36092  10.901  13.530   3.004 -0.0307 -0.0664 -0.2949
19959W        W36093   2.778   2.323   4.910  0.1479  0.0508  0.1145
19960W        W36094   6.504  13.613  14.660  0.0245 -0.1152 -0.1193
19961W        W36095   9.695   4.926   0.509  0.0378 -0.2283 -0.4536
19962W        W36096   0.050   0.623  13.722 -0.0958  0.0841  0.0397
19963W        W36097   7.760   9.291   5.021  0.2133  0.2078  0.1655
19964W        W36098   6.151   9.362  10.953  0.0119  0.3612 -0.0949
19965W        W36099   6.888   0.853   0.779 -0.3111 -0.2709 -0.2373
19966W        W36100  17.890  11.886  13.122 -0.3876  0.3533  0.0720
19967W        W36101   9.565   2.609   3.573 -0.0421  0.1971  0.0798
19968W        W36102  17.444  18.649   2.291  0.2287 -0.0705 -0.0120
19969W        W36103   7.508   8.514  10.276  0.2628 -0.0442 -0.0137
19970W        W36104   5.802   6.989   0.629  0.1900 -0.1188  0.0401
19971W        W36105   3.731   5.615  14.590  0.2048 -0.4528  0.2055
19972W        W36106   8.051   5.768  11.613 -0.0971 -0.1209  0.0604
19973W        W36107  12.746   0.474  12.448 -0.0073 -0.1639 -0.2717
19974W        W36108   1.355  14.615  12.049  0.0120 -0.0170  0.0811
19975W        W36109  11.950   1.815   0.462  0.3610 -0.0301 -0.1928
19976W        W36110  13.618  15.088  11.400 -0.1651  0.0365 -0.0181
19977W        W36111   6.087   0.744  11.602  0.1077 -0.2572 -0.0802
19978W        W36112  17.225   5.824   2.188 -0.1468 -0.0448  0.3837
19979W        W36113   3.731   5.731   5.549 -0.2481 -0.2046 -0.0552
19980W        W36114  18.473  10.411   3.090 -0.0197  0.1548 -0.0321
19981W        W36115   9.033  15.041  14.683  0.1038 -0.0850 -0.1880
19982W        W36116  14.878  17.997   1.517  0.0630 -0.0251  0.1661
19983W        W36117   9.299  15.895  14.958 -0.2861 -0.1018  0.0765
19984W        W36118   6.135   2.112   1.848 -0.4508  0.0887 -0.0066
19985W        W36119  15.021  18.538   0.413 -0.0018  0.2277 -0.1714
19986W        W36120   4.097   2.438  10.584  0.0142 -0.0793  0.2150
19987W        W36121   5.877  16.451  13.004 -0.3733  0.1953 -0.0469
19988W        W36122  16.849   8.371   4.780 -0.1540 -0.2206  0.4571
19989W        W36123  14.309  16.101   1.836 -0.0591 -0.0610 -0.3005
19990W        W36124   8.851  13.275  10.933  0.2003 -0.2295 -0.1514
19991W        W36125  13.062  17.334   0.048 -0.3498 -0.1737 -0.1837
19992W        W36126  11.711   5.558  14.030 -0.2180 -0.1223  0.1521
19993W        W36127   0.752   5.381  12.534 -0.2907  0.3382  0.0506
19994W        W36128  19.084   8.011  10.080 -0.0930  0.0704 -0.0702
19995W        W36129  16.711   6.460  13.797  0.1907 -0.0377 -0.1892
19996W        W36130  18.312  18.431   2.248 -0.4726  0.1437  0.0711
19997W        W36131   9.986   0.228  13.149  0.1301 -0.1214 -0.0050
19998W        W36132   1.379  13.694   0.624 -0.2891 -0.2373  0.0549
19999W        W36133   2.599   1.430  10.877  0.0814 -0.0037  0.1065
20000W        W36134   1.182  14.267  10.855  0.2157 -0.3536 -0.0306
20001W        W36135  10.690   1.192  13.413  0.2164  0.3663  0.0368
20002W        W36136  10.806   5.010  11.985  0.1975  0.2548  0.2636
20003W        W36137   0.829  14.660   1.580  0.0082  0.0016  0.1193
20004W        W36138  15.248   2.837  14.939  0.1054 -0.0073  0.1775
20005W        W36139   3.435  13.223   3.385 -0.0819 -0.0290 -0.1292
20006W        W36140  12.897   3.163   2.933 -0.4013  0.1328  0.1349
20007W        W36141   7.686   9.944  12.357  0.0829  0.0322 -0.2019
20008W        W36142   0.808   8.571  10.629 -0.0579  0.2367 -0.2448
20009W        W36143  18.746   0.767   0.818  0.2402  0.1592  0.0128
20010W        W36144  11.957  13.401   1.564 -0.3995  0.0765  0.0363
20011W        W36145   2.619   0.001   3.170 -0.1924 -0.0721 -0.0164
20012W        W36146  17.064  15.473   4.676 -0.1505  0.1237 -0.0779
20013W        W36147   5.947   5.201   1.818  0.0331 -0.1516 -0.0840
20014W        W36148  11.022  12.403  11.239 -0.1403 -0.1082  0.0917
20015W        W36149   6.774  18.217   2.810 -0.1692 -0.0877 -0.2876
20016W        W36150  14.473  18.717   0.235 -0.4413 -0.0963 -0.2776
20017W        W36151   0.861  12.318   1.664 -0.2504 -0.2302  0.2775
20018W        W36152  12.461   8.995   1.682  0.0237 -0.0727 -0.1858
20019W        W36153   9.659  17.795   4.212  0.0311  0.0684  0.2625
20020W        W36154  18.001   3.818   3.647 -0.1039  0.1338  0.2493
20021W        W36155   6.741  19.127  11.646  0.1469 -0.0084  0.2512
20022W        W36156  12.685   2.509   2.020  0.0993 -0.1459  0.0699
20023W        W36157  16.636  13.073   0.144 -0.0372  0.0757  0.1984
20024W        W36158  14.103  10.328   0.943  0.4313  0.3940  0.0905
20025W        W36159  11.024   4.390  10.300 -0.0028  0.0236  0.0881
20026W        W36160  14.063   4.984   1.564  0.0328 -0.0070 -0.0553
20027W        W36161   7.528  16.966   4.491  0.0988 -0.2657  0.0859
20028W        W36162  11.368  16.995   1.402  0.1583  0.1026  0.1135
20029W        W36163   2.956  13.451   0.304  0.1994 -0.1526 -0.0719
20030W        W36164   2.946  11.981  11.692 -0.1984 -0.1217  0.0835
20031W        W36165  12.743  15.323   3.198 -0.0361  0.2992  0.1956
20032W        W36166   7.809   3.184   0.331  0.6162  0.2542  0.5586
20033W        W36167   7.596  11.088  10.409 -0.4457 -0.0722 -0.1267
20034W        W36168   8.818  18.487   2.556  0.1881 -0.2099  0.2343
20035W        W36169   8.393  17.228  14.351 -0.0949  0.4783  0.0429
20036W        W36170  14.766   3.246  11.779 -0.0381  0.0804 -0.1219
20037W        W36171  11.361   1.859   2.141  0.0284  0.2145  0.0619
20038W        W36172  18.972  16.524   3.931 -0.0487  0.2155  0.0223
20039W        W36173   9.966   7.139  13.076  0.0373  0.0514 -0.0264
20040W        W36174   0.908  15.353  12.128  0.0580 -0.2518 -0.4466
20041W        W36175   0.577   6.819   2.709 -0.0517  0.2536 -0.1473
20042W        W36176   7.100  18.078   4.467 -0.1518 -0.0604  0.2932
20043W        W36177   2.661  19.107  14.535  0.1643 -0.1638  0.0913
20044W        W36178  10.528  15.618   0.726  0.1536 -0.0664  0.1407
20045W        W36179  17.642  11.571   0.565 -0.0740  0.2482  0.0802
20046W        W36180   8.612  17.512  11.251  0.2042 -0.2447 -0.0090
20047W        W36181  13.802   6.245  12.578 -0.1364 -0.0127  0.1255
20048W        W36182  16.117   5.807   0.293  0.0527  0.0568  0.0901
20049W        W36183  10.135  12.798  14.256 -0.1412  0.1455  0.0479
20050W        W36184  16.652   0.811   3.337 -0.2342 -0.1096 -0.1640
20051W        W36185   6.526   7.111   4.587 -0.3479 -0.2416  0.2100
20052W        W36186   7.738  17.971   4.714  0.0974  0.1499  0.1790
20053W        W36187   3.738   2.780  11.755  0.2071  0.0839  0.1069
20054W        W36188  17.263   3.693   1.936  0.0245 -0.1968  0.1170
20055W        W36189   9.826   0.953   1.119 -0.1222  0.2252  0.1447
20056W        W36190   2.880   2.231  13.031 -0.4440 -0.2326  0.0119
20057W        W36191  11.671  12.518   5.602 -0.2914 -0.1101  0.1273
20058W        W36192  12.374   0.015   4.399 -0.0222 -0.2526 -0.0495
20059W        W36193   4.589   3.646   2.743  0.1358  0.0508  0.1174
20060W        W36194  11.072  11.907   3.592  0.1307 -0.0066  0.2710
20061W        W36195  14.692  17.508   2.242  0.1531 -0.2995 -0.0933
20062W        W36196  18.080  18.898  14.195  0.2737 -0.1623 -0.2827
20063W        W36197   8.883  18.413   3.343  0.0484 -0.0630 -0.0849
20064W        W36198  19.044   0.535  11.860  0.1071 -0.2216 -0.1212
20065W        W36199   5.853  12.582   1.561  0.1845  0.1363  0.0706
20066W        W36200   9.061  18.363  13.121 -0.0040  0.2337  0.0779
20067W        W36201  10.273  13.634  14.095 -0.2764  0.0669  0.1224
20068W        W36202   4.172   7.291  13.193  0.1555 -0.2269 -0.1436
20069W        W36203  15.154   5.306   0.261  0.4511  0.1291  0.3542
20070W        W36204   3.519   8.834   3.305 -0.2311 -0.0213  0.0321
20071W        W36205  17.589   0.171  13.232 -0.1539  0.0409  0.1944
20072W        W36206   1.255   3.356   9.581 -0.0570 -0.0131  0.0597
20073W        W36207   4.307   0.171  13.910  0.0142 -0.0077  0.0355
20074W        W36208   1.548   2.059   1.765 -0.0477 -0.2736 -0.1074
20075W        W36209  10.501   3.361  13.040 -0.2244  0.1964  0.0155
20076W        W36210   7.075   1.298   1.753 -0.2461  0.1715  0.1529
20077W        W36211   3.801   6.562   5.027 -0.1340 -0.1580  0.0965
20078W        W36212   0.195  17.341   2.588 -0.0406  0.3900 -0.1032
20079W        W36213  11.974   2.385   0.093  0.1635  0.2368  0.2437
20080W        W36214  13.912   1.089  12.449 -0.1626  0.0265 -0.1512
20081W        W36215  15.340   7.582   2.233  0.2407  0.0594 -0.1120
20082W        W36216  14.525  11.908   2.487 -0.2242  0.0922  0.1151
20083W        W36217  11.089   6.141   4.143  0.1990 -0.2056 -0.2825
20084W        W36218  18.173   6.982   5.296 -0.0551 -0.2733  0.2294
20085W        W36219  18.740   8.478   5.323  0.1667 -0.0351 -0.0564
20086W        W36220   5.554   5.511   2.592 -0.1989  0.2609  0.0695
20087W        W36221  17.055   4.992   5.196 -0.0343  0.1992  0.0980
20088W        W36222   5.103   6.809  10.995 -0.2486  0.2080  0.1074
20089W        W36223   2.592  10.738   2.478  0.0402 -0.4684  0.0949
20090W        W36224   3.117  16.638  11.881  0.0952 -0.1597  0.0971
20091W        W36225  15.057   0.641  11.323  0.1634  0.0682 -0.1842
20092W        W36226  17.862  12.309   1.706  0.1397 -0.2355 -0.2093
20093W        W36227   9.370  18.138  11.156 -0.3726 -0.1713 -0.2539
20094W        W36228  15.923  18.423   2.920 -0.1744  0.1225 -0.0968
20095W        W36229  12.795   0.060   2.218 -0.1240 -0.1787  0.1888
20096W        W36230   4.162   2.865  14.832  0.1682  0.3972 -0.2374
20097W        W36231  14.822   6.094  10.242  0.1684  0.3002  0.4073
20098W        W36232  11.982   7.591   9.924 -0.0087  0.1369  0.2230
20099W        W36233  13.973  15.853  12.842 -0.3158 -0.2152 -0.3949
20100W        W36234   5.015  14.345  12.495 -0.0843  0.2606  0.3556
20101W        W36235   9.207   9.026   1.278 -0.0442 -0.4356  0.0290
20102W        W36236   6.568  13.367  13.706  0.1749  0.3341  0.2543
20103W        W36237  10.727  15.046   2.341 -0.2538 -0.1303 -0.2439
20104W        W36238   8.380  10.125   4.255  0.0499  0.0088 -0.2444
20105W        W36239  16.498   7.870   0.491  0.0140 -0.0362  0.1872
20106W        W36240   7.628   7.297   0.247 -0.2701 -0.1616 -0.0909
20107W        W36241  18.196   9.029  11.818 -0.2761  0.1246 -0.0783
20108W        W36242  10.669   6.585  12.096 -0.2242  0.0687 -0.0137
20109W        W36243   4.023   7.717   3.094 -0.3179  0.2972 -0.0751
20110W        W36244  13.688  10.503  14.553 -0.0262 -0.3245 -0.2997
20111W        W36245   9.177   0.739  10.219  0.0606  0.1317 -0.2811
20112W        W36246  17.256   9.676  13.054  0.0535 -0.2168 -0.0645
20113W        W36247   7.305  12.328   0.126  0.1958 -0.1744 -0.0831
20114W        W36248   7.275  15.204  12.988 -0.2184  0.0743  0.3635
20115W        W36249   2.515   9.367   4.266  0.1316  0.0449 -0.3950
20116W        W36250   5.177  10.351  11.634  0.0473 -0.2510  0.2583
20117W        W36251  15.680  17.920   3.370 -0.1021  0.1417 -0.0390
20118W        W36252  14.496   6.778  12.379  0.0206  0.3741  0.3478
20119W        W36253   2.542   5.229   1.336  0.0179  0.1349 -0.1757
20120W        W36254   3.611  19.216  12.741 -0.0786 -0.1230  0.2351
20121W        W36255   8.308  10.217   5.123  0.2248 -0.1715 -0.2170
20122W        W36256  15.323   3.911  10.974  0.2681  0.1678  0.1187
20123W        W36257   7.541   0.009  12.435  0.3110  0.2576  0.3532
20124W        W36258   1.101  16.169   4.556 -0.0027 -0.5845 -0.0458
20125W        W36259  12.225   1.199   4.422  0.0063  0.1389 -0.2638
20126W        W36260  13.097   4.802  13.552 -0.2748 -0.1419 -0.0239
20127W        W36261   4.397   0.259  12.343 -0.2008 -0.1315  0.3095
20128W        W36262   1.789   1.461  12.914 -0.0633  0.4287  0.0659
20129W        W36263   3.876   8.056  11.572  0.0941 -0.2792  0.0177
20130W        W36264   0.023  15.483   2.706 -0.1951 -0.1532  0.0133
20131W        W36265   0.826  16.223  12.828 -0.0421 -0.1967 -0.5328
20132W        W36266   1.878  12.239  14.257 -0.1241  0.0711  0.1807
20133W        W36267   5.360   9.834   3.396  0.2163 -0.0176 -0.1302
20134W        W36268  12.756  11.616   3.587 -0.2671 -0.2363  0.0556
20135W        W36269  12.950   3.953   3.669 -0.2884  0.1863 -0.2169
20136W        W36270  10.911   0.827  10.436 -0.0433 -0.0180  0.0884
20137W        W36271   4.816   4.222   4.355  0.1086  0.1400  0.3243
20138W        W36272   3.015   2.314  14.462 -0.2634  0.1402 -0.0455
20139W        W36273  11.775   7.171  12.166  0.0511  0.1532  0.0271
20140W        W36274  11.018  16.423   2.112 -0.1780 -0.3602 -0.1219
20141W        W36275   6.468   6.867   2.775  0.0261 -0.0779  0.2919
20142W        W36276  14.747   8.028  11.335  0.1966  0.1293  0.3555
20143W        W36277   9.741   7.920   0.690 -0.1888 -0.1981  0.2902
20144W        W36278  13.116  11.199   1.590  0.0208 -0.0415  0.0158
20145W        W36279   4.876   7.674   0.481 -0.0619 -0.3319  0.0672
20146W        W36280   0.886  13.811  13.447 -0.3726  0.1817 -0.1189
20147W        W36281  15.846   1.265   1.530  0.2992 -0.2887  0.2208
20148W        W36282   8.516   2.464   0.908 -0.2070 -0.1161  0.2196
20149W        W36283  11.288   1.462   0.903  0.0958 -0.2104  0.1517
20150W        W36284   1.020  13.174   3.509  0.0159 -0.1018 -0.3647
20151W        W36285  15.748  13.125  11.868  0.1537 -0.0848 -0.0093
20152W        W36286   6.425   8.255  11.115 -0.1789 -0.3868 -0.0482
20153W        W36287   0.410   5.529  10.797 -0.2632 -0.0061  0.3094
20154W        W36288   9.716   4.714   2.042 -0.0506 -0.2758 -0.2636
20155W        W36289  18.193   9.399  14.472 -0.0761 -0.1224  0.2081
20156W        W36290   8.202  17.209  13.001 -0.0971 -0.0978 -0.1941
20157W        W36291  15.735   0.756  13.036  0.1686 -0.3223  0.0869
20158W        W36292  15.506  13.372   1.895 -0.0469 -0.2158  0.0083
20159W        W36293  12.395  18.434   4.453  0.0520  0.3388  0.2244
20160W        W36294   8.031   9.495   1.950 -0.0834 -0.1786  0.2202
20161W        W36295   3.785  15.536   4.783  0.1526 -0.1633  0.1187
20162W        W36296  11.372  12.097  11.183 -0.1022  0.1693  0.0407
20163W        W36297  11.558   9.317   0.501  0.1110 -0.0301  0.1247
20164W        W36298   4.876  16.715  12.873  0.2110 -0.0137  0.0800
20165W        W36299   5.942  14.294   3.097  0.0301  0.0240  0.0615
20166W        W36300   6.386   6.106   1.986 -0.4460  0.2798  0.2708
20167W        W36301   3.459  12.078  12.976 -0.2316 -0.2022  0.3429
20168W        W36302   9.421   7.718   2.143 -0.3187  0.0138  0.1568
20169W        W36303   0.517  10.310  13.644  0.0730  0.0318 -0.0434
20170W        W36304   3.245  18.760  13.720 -0.1073 -0.1603 -0.3700
20171W        W36305   3.262  18.168  11.153  0.0678  0.2152  0.3533
20172W        W36306  10.716  18.151  13.200 -0.1754 -0.2195  0.1286
20173W        W36307  14.138   7.578   9.415 -0.0281  0.3081  0.2788
20174W        W36308   7.201  16.998   1.743  0.1946 -0.0760 -0.0126
20175W        W36309  14.029   1.509   2.969  0.0540  0.1900  0.0363
20176W        W36310   4.396  16.882  12.723  0.1874 -0.0157 -0.1838
20177W        W36311   8.956   8.737   1.944  0.0469  0.1554  0.0642
20178W        W36312  16.823  15.825   5.011  0.2173 -0.0404 -0.1307
20179W        W36313  16.615   1.446  12.210 -0.0392  0.1265 -0.3593
20180W        W36314   9.884   8.226   3.417  0.3412 -0.3750 -0.0073
20181W        W36315  10.658  16.812   2.667  0.2142  0.2943 -0.1501
20182W        W36316   5.621  12.726  12.803  0.1533 -0.0276  0.1782
20183W        W36317   5.332   2.458   3.850 -0.2797  0.1837  0.0947
20184W        W36318  11.507  14.015  13.418 -0.0065 -0.3989 -0.1024
20185W        W36319  10.701   8.762  11.502 -0.0029  0.2682  0.0891
20186W        W36320  17.647   7.383  13.071  0.1855 -0.0850  0.1446
20187W        W36321  10.719  16.986  14.739  0.2931  0.0657  0.0040
20188W        W36322   9.808  17.442  14.930 -0.2052  0.0797  0.2732
20189W        W36323  12.605   6.664  11.660 -0.0865 -0.0697 -0.1274
20190W        W36324   7.570   4.526   2.527 -0.1952  0.0030 -0.0772
20191W        W36325  11.342  13.535   2.137 -0.4326 -0.0237  0.2733
20192W        W36326  16.997   9.643   3.086 -0.1781 -0.0048  0.1061
20193W        W36327   8.419   6.711   9.029 -0.1689  0.0898 -0.2668
20194W        W36328   7.920   6.010  11.132  0.2870 -0.0961 -0.2022
20195W        W36329  11.102  13.081  14.735 -0.0499  0.1240 -0.0084
20196W        W36330  10.528  17.422  11.849  0.0080 -0.3167  0.0430
20197W        W36331   4.489  14.877   1.000  0.0456  0.0895 -0.1822
20198W        W36332  12.968  12.372  11.595 -0.1788 -0.3742 -0.0384
20199W        W36333   1.880  12.503   5.012 -0.0997  0.0926 -0.2056
20200W        W36334  12.949  11.361  14.309  0.0353  0.0309 -0.0682
20201W        W36335   7.164   2.566   1.216 -0.1277 -0.0663  0.0546
20202W        W36336   7.978  14.165   2.297  0.2059  0.2603 -0.0501
20203W        W36337   9.317  14.633   5.119  0.0183  0.0573 -0.0691
20204W        W36338  18.323  10.220   1.180  0.3853  0.0530 -0.0257
20205W        W36339  10.160  17.106   3.931  0.0219 -0.2541 -0.0527
20206W        W36340  14.556  13.561  11.174  0.2704 -0.0834  0.3239
20207W        W36341   7.125   3.257   1.786 -0.3146  0.1333 -0.0502
20208W        W36342  14.407   2.970   4.456  0.1604 -0.4133  0.2195
20209W        W36343  14.487   3.908   9.393  0.1786  0.1691 -0.2875
20210W        W36344  14.998   3.596   4.517 -0.1863 -0.0488  0.1601
20211W        W36345  15.870  17.526   3.067  0.0125 -0.0781  0.1066
20212W        W36346  18.428  16.136   3.476  0.0823 -0.4652 -0.0045
20213W        W36347   9.114   0.674  11.155 -0.0087  0.1343  0.2272
20214W        W36348   7.848   6.392  12.246 -0.1611  0.0792  0.1101
20215W        W36349   9.378   6.013   4.371 -0.2097 -0.0429  0.1079
20216W        W36350  14.959  14.408   1.049 -0.2019 -0.1209 -0.2414
20217W        W36351  14.110  12.350   4.482 -0.1684  0.1100 -0.0064
20218W        W36352   3.483   2.183  10.696  0.0080 -0.1437 -0.0975
20219W        W36353   0.385   7.969  12.057 -0.0790 -0.1605  0.3294
20220W        W36354   6.413  16.548   0.057  0.2277 -0.0368 -0.0355
20221W        W36355   1.044   6.423   0.914 -0.0726  0.1708  0.3520
20222W        W36356   4.002   2.747  12.723 -0.1526  0.0475  0.0230
20223W        W36357   3.506   9.080  14.226  0.0732 -0.3119 -0.1670
20224W        W36358  10.975  10.594   3.333  0.0163 -0.1442  0.0877
20225W        W36359   1.671  17.929  11.575  0.1098  0.1981 -0.1471
20226W        W36360  16.502  11.034   1.115  0.0378 -0.0005 -0.0838
20227W        W36361   6.631  16.105   5.086  0.3323 -0.1601 -0.1052
20228W        W36362  11.475  13.101   0.463 -0.0726 -0.4359  0.0575
20229W        W36363   4.688  18.544   2.705 -0.1628  0.3548  0.2166
20230W        W36364   1.445  13.825  11.728  0.0167  0.2046 -0.1156
20231W        W36365  14.259   4.884   0.835 -0.2307  0.1376  0.2562
20232W        W36366   9.349   8.011   3.192  0.5054  0.0297  0.1466
20233W        W36367  19.090   5.534   6.278  0.0981  0.1884 -0.0710
20234W        W36368   6.062  17.276   4.450  0.1390  0.0154  0.0099
20235W        W36369  13.815   3.735   1.266  0.0546 -0.1748 -0.0158
20236W        W36370   4.347  17.018  11.207 -0.2858 -0.4956 -0.0835
20237W        W36371  15.550  11.652   2.341  0.2019 -0.2125  0.0427
20238W        W36372  10.452  11.203   5.269 -0.1150  0.3076 -0.1585
20239W        W36373   7.806   1.757   4.045  0.0836  0.1232  0.0892
20240W        W36374  14.435  14.881  14.544  0.2955 -0.0168  0.0774
20241W        W36375  16.416   3.211  12.194  0.3104 -0.2216  0.0912
20242W        W36376  18.736   7.510   2.285  0.2841 -0.0413  0.1693
20243W        W36377   2.843  16.973  10.338 -0.0570  0.0851 -0.0857
20244W        W36378  11.895  19.047   9.584  0.3627  0.0638  0.0384
20245W        W36379  10.550   0.031  13.935  0.0607  0.0867 -0.0845
20246W        W36380   2.429  14.645   4.989 -0.1609  0.2022 -0.0677
20247W        W36381  10.228   5.788   1.192  0.0805  0.0964 -0.2355
20248W        W36382  13.027  11.202   4.548  0.1237  0.4287 -0.1799
20249W        W36383  17.339   1.147   0.045  0.0565 -0.0066 -0.0295
20250W        W36384   3.692   2.663   1.966  0.0349  0.3536 -0.2302
20251W        W36385   3.154  13.206   4.810  0.0109 -0.1082  0.2409
20252W        W36386   1.879   0.558  12.611  0.0173  0.3453 -0.2568
20253W        W36387  15.355   9.934  12.127  0.0201 -0.1753 -0.0354
20254W        W36388  15.404   4.335   3.012 -0.3896 -0.3674 -0.2241
20255W        W36389   9.459   0.716  10.688 -0.3028 -0.0014 -0.0609
20256W        W36390   0.297  17.814  11.592 -0.1455 -0.2726  0.0202
20257W        W36391  16.437  14.650  12.726  0.2715 -0.0840 -0.1497
20258W        W36392   3.154  15.044  12.311  0.2044  0.0266  0.3731
20259W        W36393  11.828   7.291   0.869 -0.2252 -0.2973  0.0589
20260W        W36394  13.865   7.712   2.150 -0.2060  0.1170  0.3472
20261W        W36395  13.653  16.733   3.775 -0.1710 -0.5534 -0.3139
20262W        W36396   1.583  11.651   1.395  0.3170 -0.1490  0.2598
20263W        W36397  10.354   2.784  14.868 -0.0058 -0.1885 -0.3031
20264W        W36398  18.907   7.463   2.778  0.4942 -0.2165 -0.2468
20265W        W36399   6.457   6.599   2.011  0.2155  0.1482  0.0327
20266W        W36400  12.886   5.223   2.603  0.0656  0.0595  0.1180
20267W        W36401  16.904  18.753   3.638 -0.1342  0.0318  0.3581
20268W        W36402  11.830   8.733   0.323  0.0530 -0.1375 -0.0535
20269W        W36403   0.210   1.173  11.718  0.0693  0.2515 -0.0467
20270W        W36404  15.000   9.823  11.558  0.0131 -0.1662  0.0336
20271W        W36405  13.588  17.959   2.969  0.0378  0.1287 -0.0443
20272W        W36406  10.811  16.824   0.211  0.1312  0.3077 -0.1499
20273W        W36407  13.275   6.510   9.929 -0.1483  0.0112 -0.1836
20274W        W36408  10.214  17.883   4.403 -0.1412 -0.1821  0.2523
20275W        W36409   7.528   9.139   0.507  0.1354  0.0819 -0.0253
20276W        W36410  16.815   2.055  10.329  0.1401  0.0159 -0.0080
20277W        W36411  16.231   5.788   5.267  0.1699  0.1936 -0.1407
20278W        W36412  10.333   7.920  13.375  0.0696  0.1504 -0.1575
20279W        W36413   7.762  11.891   2.653 -0.0284 -0.0799 -0.0746
20280W        W36414  10.858   4.564   3.671 -0.1919 -0.6128  0.0293
20281W        W36415   7.772  18.875  13.236  0.0135 -0.1928 -0.0883
20282W        W36416   6.120  15.718   0.502  0.1384  0.2062  0.0408
20283W        W36417  16.080   3.435  14.748  0.1636 -0.1585 -0.2524
20284W        W36418  11.949   4.069  12.098  0.1240 -0.0484  0.2481
20285W        W36419   8.858   1.153   0.836  0.0533 -0.0374  0.3644
20286W        W36420  11.077  16.070  14.181  0.1613 -0.1509 -0.0621
20287W        W36421   3.216   9.168  12.988  0.0917 -0.1655 -0.1782
20288W        W36422  13.067   6.612  11.361  0.0771  0.2328  0.1088
20289W        W36423   7.678  15.253   3.134 -0.0140  0.5548  0.4078
20290W        W36424   1.986  18.249  11.771  0.1452 -0.0516  0.0274
20291W        W36425   8.765   1.318   1.711  0.1201  0.1460 -0.0228
20292W        W36426   2.707  16.925  12.014  0.2186  0.0803  0.3054
20293W        W36427  10.997   7.085   2.289 -0.0916  0.0725  0.0534
20294W        W36428  17.421  11.859  11.539  0.1932  0.1774  0.2168
20295W        W36429  15.288  10.414   2.808 -0.2529  0.2159 -0.1092
20296W        W36430   4.886  16.959   4.589 -0.1824  0.1806  0.1140
20297W        W36431   4.605   2.949   3.831 -0.2573 -0.0152  0.3124
20298W        W36432   3.686  15.913   5.319  0.3594 -0.1835 -0.2812
20299W        W36433   1.109   8.484  13.605 -0.1462 -0.0651  0.0724
20300W        W36434   5.650   2.314  11.362 -0.2095 -0.1881 -0.1424
20301W        W36435   8.458   0.711  12.158  0.0331 -0.1257  0.0899
20302W        W36436  11.283   8.503   0.510  0.0759  0.3064  0.0152
20303W        W36437  13.386  14.221   2.647 -0.0825 -0.3806  0.0370
20304W        W36438  11.189  14.187  13.785 -0.1503  0.1130  0.1423
20305W        W36439  13.112   8.240  10.644  0.2746  0.3337  0.0889
20306W        W36440   0.899  13.142   3.031 -0.0600  0.1134  0.3047
20307W        W36441  16.120   0.535  13.727 -0.0981 -0.0786 -0.5381
20308W        W36442   7.477   3.664  11.549  0.1453 -0.5575 -0.2155
20309W        W36443  17.385  11.480   9.347  0.0241  0.0681 -0.1185
20310W        W36444  15.018   5.936  12.773 -0.2380  0.0794  0.1701
20311W        W36445   8.100  10.585   3.402  0.0195  0.1843 -0.1885
20312W        W36446  10.830  13.763   0.842 -0.3203  0.1173 -0.2334
20313W        W36447  11.501  14.581   1.746  0.3697  0.1249 -0.2545
20314W        W36448   3.238  17.480   1.103 -0.1854  0.1822 -0.1958
20315W        W36449  16.212  16.428   5.174 -0.2748  0.1008 -0.0534
20316W        W36450  16.351  14.973  13.251  0.2824 -0.0567  0.0951
20317W        W36451   0.850  16.900   0.267 -0.4257  0.2402 -0.1160
20318W        W36452   1.108   9.787  11.035  0.2604  0.1230  0.0076
20319W        W36453   5.529  11.345  11.603 -0.1382 -0.1271 -0.4521
20320W        W36454   0.016   3.206   0.959  0.0875 -0.0485  0.1286
20321W        W36455   9.466  19.150   1.250  0.1123  0.2202 -0.3995
20322W        W36456  13.372   8.236   5.114  0.0303 -0.0057  0.0365
20323W        W36457   5.866  16.014   0.840 -0.1859 -0.1154 -0.1491
20324W        W36458   7.760   3.843  14.775 -0.1948  0.0180 -0.0789
20325W        W36459   3.060  11.661  12.954 -0.0158  0.0591 -0.1904
20326W        W36460  18.039  10.376  11.410 -0.2395 -0.0786  0.1665
20327W        W36461   8.989  12.932  10.505 -0.0556 -0.2477 -0.1773
20328W        W36462   8.090  10.989   4.572 -0.2477 -0.0449 -0.0072
20329W        W36463  10.559  13.572  14.589 -0.2679  0.0852 -0.1485
20330W        W36464   9.980  12.402  13.464 -0.1670 -0.2979 -0.0152
20331W        W36465   1.646   8.662  10.716  0.3741 -0.0282  0.0937
20332W        W36466   4.498  17.753  11.005  0.1248  0.3377  0.0793
20333W        W36467  14.286   7.822   4.032 -0.1745 -0.0074 -0.1133
20334W        W36468  14.550   5.733   0.994 -0.4647  0.0918  0.0911
20335W        W36469   8.690  15.265   2.496 -0.1708  0.4637  0.1233
20336W        W36470  13.378  19.231  11.067 -0.3483 -0.1046 -0.3212
20337W        W36471   7.281   0.087   4.055 -0.0892  0.0917  0.0742
20338W        W36472   9.093   3.723  11.723  0.2429  0.3847 -0.0400
20339W        W36473   5.594  15.201  12.974 -0.2765 -0.1099 -0.2122
20340W        W36474  15.708   5.061  12.336 -0.3779  0.1382 -0.3251
20341W        W36475   9.468   2.355  11.918  0.1054  0.1943 -0.1557
20342W        W36476  10.834   5.122   4.515 -0.0511  0.0479 -0.0758
20343W        W36477  15.183   2.844   2.521 -0.2177 -0.0967 -0.0127
20344W        W36478  10.477  15.322   1.324  0.0831  0.1791 -0.3110
20345W        W36479  17.567   6.349  12.365  0.3778  0.2594  0.2567
20346W        W36480  17.721  17.903   4.647  0.1273  0.4011 -0.2036
20347W        W36481  14.108   1.304  13.035 -0.2508 -0.0507 -0.1560
20348W        W36482   3.305  18.558   3.341  0.0320  0.0172  0.2863
20349W        W36483   4.129   6.622   4.078  0.0398 -0.0630  0.2093
20350W        W36484   7.247  15.346  10.480 -0.1164  0.1229  0.0777
20351W        W36485  13.215   5.226  11.136 -0.0695 -0.1824  0.1995
20352W        W36486  17.905   2.760  11.888 -0.2946  0.1431 -0.1029
20353W        W36487   9.437   6.264   3.816  0.3356  0.0734  0.1413
20354W        W36488   0.060   2.089   3.917 -0.0673  0.0789 -0.1918
20355W        W36489  14.506   5.637  13.375 -0.1942  0.1465 -0.0738
20356W        W36490  10.415   6.941  11.087 -0.4887 -0.2582 -0.1673
20357W        W36491   6.499   7.307   4.069 -0.1830  0.1820 -0.0734
20358W        W36492   6.564  19.135   1.268 -0.2858  0.2595  0.4468
20359W        W36493  14.967  15.781   4.211  0.1073 -0.2408 -0.3117
20360W        W36494   3.824   0.027  10.741 -0.0658  0.0237  0.0089
20361W        W36495  19.083  11.346   1.620 -0.1356  0.1177  0.2923
20362W        W36496   1.959   2.101   2.648  0.1884  0.0576  0.0965
20363W        W36497   3.959   7.745   2.423  0.1489  0.0433 -0.0338
20364W        W36498   9.840  16.983   0.210  0.0324 -0.0440  0.2361
20365W        W36499   8.412  14.564  14.125  0.0532 -0.0206 -0.4500
20366W        W36500  13.612   8.182  12.568  0.0438  0.2633  0.0213
20367W        W36501   4.206   8.046  14.799  0.0804  0.0994 -0.2300
20368W        W36502  13.049  18.420   2.447  0.0566  0.0079 -0.2477
20369W        W36503  17.601  10.054  11.340 -0.1401 -0.2714 -0.1332
20370W        W36504  16.319  16.260   3.069 -0.2521  0.1850  0.0216
20371W        W36505  11.747  12.733  11.850  0.4354 -0.0909  0.1561
20372W        W36506  15.208  14.634   2.523 -0.1554  0.3523 -0.1471
20373W        W36507  12.442   7.966   4.157  0.4287 -0.0711 -0.2901
20374W        W36508   6.462  17.731  12.858  0.1262 -0.1212 -0.1807
20375W        W36509   2.654  14.996   2.130 -0.0544 -0.0180 -0.0882
20376W        W36510   2.913  18.265  14.728 -0.1668  0.4658  0.0203
20377W        W36511  17.160   9.544   4.282 -0.1246 -0.1184  0.1010
20378W        W36512  18.708  17.004   4.002  0.0065 -0.2717  0.0194
20379W        W36513  13.546   8.474  14.107  0.1523 -0.0130  0.2864
20380W        W36514  16.451  15.147   5.770 -0.0046 -0.2590 -0.0066
20381W        W36515  12.774  16.345  13.463 -0.0056 -0.0404  0.1666
20382W        W36516   5.159   4.860  12.003 -0.1371 -0.1622  0.0231
20383W        W36517   4.632   4.323  13.878 -0.2380 -0.2437  0.0756
20384W        W36518  13.396   1.304   4.797 -0.0276 -0.1773 -0.0264
20385W        W36519   0.237   0.786   1.583 -0.3843  0.0411  0.2134
20386W        W36520   7.266   6.957   0.436  0.3777  0.4714 -0.0647
20387W        W36521   2.626  12.428   5.210 -0.1953  0.2077  0.0536
20388W        W36522  13.480   1.375   2.752 -0.0371 -0.1651 -0.0177
20389W        W36523   9.226  15.962   2.237  0.0880 -0.2784  0.2933
20390W        W36524  16.323  14.605   1.079  0.1121 -0.1752 -0.1971
20391W        W36525  11.622  16.955  10.420  0.1239  0.0710  0.0532
20392W        W36526   5.286  17.378   0.441 -0.1041  0.0234  0.2173
20393W        W36527  17.989  15.007  12.248 -0.2590  0.0210  0.2967
20394W        W36528   1.526   2.364  11.244 -0.1166  0.0402  0.1559
20395W        W36529  19.204  18.137  10.296  0.1686 -0.0286 -0.1890
20396W        W36530   7.035   9.355  11.957 -0.1808  0.1814 -0.0911
20397W        W36531  16.099   7.415  12.158  0.0265  0.2755  0.0584
20398W        W36532   5.164   7.755  12.420 -0.0258 -0.1781 -0.0053
20399W        W36533   4.177  10.191   3.421  0.2462 -0.1364  0.2881
20400W        W36534   3.290   9.319   1.201  0.0311 -0.2850 -0.2546
20401W        W36535   8.449  19.214  14.466  0.0778  0.0847  0.1865
20402W        W36536   5.455   8.140   3.440 -0.3920 -0.0010  0.2304
20403W        W36537  17.220   8.315   5.091 -0.2717 -0.0183  0.2080
20404W        W36538  16.267   9.111   3.127  0.0660 -0.1777 -0.1351
20405W        W36539   6.554   1.378  14.351  0.1019 -0.1927  0.2597
20406W        W36540   3.556  15.141  13.597 -0.1447  0.0924 -0.4325
20407W        W36541   2.872   2.747   0.592  0.0506  0.0930  0.0252
20408W        W36542  12.399  15.863   0.318 -0.1832 -0.0812  0.1534
20409W        W36543   0.587  16.492  14.808  0.0376 -0.2678  0.1120
20410W        W36544  19.064   6.926   1.594  0.0247  0.0219  0.1222
20411W        W36545  14.644   6.454   1.258 -0.0992  0.0276 -0.2624
20412W        W36546   8.549  14.853  12.501 -0.0200 -0.0172 -0.2468
20413W        W36547  17.142   7.532  14.393  0.2429 -0.2168 -0.2070
20414W        W36548  13.287  11.340   4.066  0.1990 -0.1366  0.0987
20415W        W36549  14.009  15.429  13.163  0.0791 -0.1470 -0.0460
20416W        W36550  16.423  14.338   0.587  0.0770 -0.2357 -0.1846
20417W        W36551  16.404  14.895   5.338 -0.1624 -0.1804  0.0415
20418W        W36552   2.491  14.685   2.983 -0.0496  0.0757  0.0508
20419W        W36553  18.400   1.300  12.044  0.0950 -0.0630 -0.3584
20420W        W36554  13.503   2.560   0.785 -0.3028  0.2153  0.0247
20421W        W36555   6.173   0.736  12.177  0.2297  0.2815 -0.0182
20422W        W36556  11.546   7.202   4.990 -0.2178 -0.0302  0.1048
20423W        W36557   3.874  19.183   3.060  0.1815  0.1651 -0.1843
20424W        W36558  13.456   8.382   3.094  0.1085  0.1088  0.0919
20425W        W36559  15.816   9.050   1.595  0.0007  0.0373  0.0697
20426W        W36560  12.955  17.545  12.022  0.3384 -0.0446  0.1821
20427W        W36561  11.502   8.127   1.267 -0.0742 -0.2491 -0.1084
20428W        W36562  17.748  18.220   3.525  0.0413 -0.0438  0.0519
20429W        W36563  15.532   1.120   5.493 -0.0826  0.1643 -0.0492
20430W        W36564   9.943   5.707   0.823  0.1767  0.1801  0.0481
20431W        W36565   7.462  10.474  13.730  0.0748 -0.0565  0.1656
20432W        W36566  18.323   0.751   4.331 -0.0963  0.2402  0.0843
20433W        W36567   0.523  13.169  14.193 -0.0251 -0.2561  0.0593
20434W        W36568   3.475   9.699  14.751 -0.2133  0.2635 -0.0148
20435W        W36569   0.281   1.180  12.966 -0.1158 -0.1526 -0.1564
20436W        W36570  14.976   0.456  10.163 -0.1137  0.0439 -0.0445
20437W        W36571  11.544  12.603   4.053 -0.4063  0.3054 -0.0688
20438W        W36572   3.956   0.711   0.696  0.1003 -0.3989  0.0220
20439W        W36573  14.756  16.063   2.235 -0.0094 -0.0087 -0.0169
20440W        W36574  15.188   9.641   1.313 -0.3146 -0.1065 -0.1110
20441W        W36575   6.844   8.282  10.838 -0.0774 -0.0561  0.0911
20442W        W36576  10.309   6.143  12.953 -0.0191  0.1286 -0.0114
20443W        W36577  14.714  16.400  12.526 -0.1317  0.1489 -0.3165
20444W        W36578  11.221   7.573  13.298  0.1898 -0.0002 -0.1009
20445W        W36579   8.418  10.757  10.651 -0.1504  0.0432 -0.1931
20446W        W36580   0.204   5.192  12.388  0.3231  0.0952 -0.0112
20447W        W36581  11.049  15.968   0.659  0.2913 -0.1431 -0.3973
20448W        W36582   0.860   3.466  10.439 -0.3497 -0.1047  0.0770
20449W        W36583  12.957   1.005   4.953 -0.0188 -0.5787 -0.2124
20450W        W36584   0.229  11.775   0.956  0.2800  0.0965  0.0454
20451W        W36585  13.215  17.478  12.743 -0.2616 -0.0439  0.1295
20452W        W36586  11.871   8.359   2.532 -0.1284  0.2591  0.1563
20453W        W36587  11.908   2.187  11.224  0.2218  0.1023  0.0098
20454W        W36588  10.538   4.306  10.270 -0.3141  0.0048 -0.3074
20455W        W36589  15.939   9.807   0.749 -0.0105 -0.2511  0.1317
20456W        W36590   4.590   1.834  13.675 -0.0870 -0.0901 -0.2250
20457W        W36591  10.252   5.337   3.133 -0.3895 -0.7286 -0.0043
20458W        W36592   5.819  10.274   9.870  0.2266  0.0029 -0.3285
20459W        W36593   7.321  18.589  14.900  0.3932 -0.0159 -0.0969
20460W        W36594   8.454  15.842   2.288  0.0106  0.2207  0.0348
20461W        W36595   3.992  17.811  10.650 -0.3371 -0.0354 -0.1681
20462W        W36596   2.065  13.087   5.205 -0.4783 -0.1488  0.3189
20463W        W36597  16.550   2.473  11.779  0.0987  0.0419  0.1081
20464W        W36598  12.880   9.196   0.805  0.2193  0.0725  0.2261
20465W        W36599  13.456   3.066   3.913 -0.2511  0.2955  0.1095
20466W        W36600  17.283  12.803  14.055 -0.0214  0.3285  0.0731
20467W        W36601   2.644   9.064  14.639 -0.1257  0.0417 -0.0727
20468W        W36602  11.024  10.866  11.523  0.2121  0.1124  0.0900
20469W        W36603   1.338   4.849  13.006  0.1448  0.1143 -0.1450
20470W        W36604   8.947  14.259  11.314 -0.2763 -0.1436  0.2292
20471W        W36605  17.347   6.871  13.141  0.2036 -0.1765 -0.1395
20472W        W36606  17.947   4.278  12.127  0.1897 -0.1025  0.2987
20473W        W36607  18.207  17.601  14.501 -0.0016 -0.0284 -0.1719
20474W        W36608   1.710  11.328  10.476  0.3421 -0.0471  0.1830
20475W        W36609  15.328  16.495   2.680 -0.1765 -0.2978  0.0473
20476W        W36610  13.305   9.783   2.695 -0.0847 -0.3884 -0.1357
20477W        W36611  15.685  14.233  13.468 -0.2492 -0.1256 -0.0808
20478W        W36612   4.360  16.032   0.386 -0.3026 -0.1046 -0.0586
20479W        W36613   8.057   8.218  13.811  0.2164 -0.1588 -0.0386
20480W        W36614   3.754   1.407   3.498 -0.0920 -0.0755 -0.2339
20481W        W36615  11.273  12.586   1.331 -0.2332  0.1453  0.2861
20482W        W36616   0.370  17.958   1.497 -0.2761  0.0707  0.2981
20483W        W36617   7.795  14.300   4.286  0.0416 -0.4356  0.2341
20484W        W36618   2.176  11.323  13.322  0.0788  0.0971 -0.2291
20485W        W36619  18.628  19.217   5.535  0.0953  0.1259 -0.2384
20486W        W36620  18.171   7.278  12.596 -0.0651 -0.3720 -0.1161
20487W        W36621  15.736   4.840  13.669 -0.0207  0.2755  0.2744
20488W        W36622   7.820  14.372  12.917  0.1752 -0.0044  0.1675
20489W        W36623   5.731   0.533  14.661 -0.4287 -0.1477 -0.0612
20490W        W36624   5.277   2.802   4.912 -0.0099 -0.1359  0.0302
20491W        W36625  14.608  18.228  11.057 -0.2546 -0.0708  0.2964
20492W        W36626   3.041   3.413   3.304 -0.0751  0.0566  0.0622
20493W        W36627  16.065  11.324   0.984  0.1135  0.3101  0.1373
20494W        W36628  12.830  11.820  14.559 -0.2791  0.0756 -0.0885
20495W        W36629   7.737   7.340  12.611 -0.2689  0.4503  0.2261
20496W        W36630  13.722  13.285  14.846  0.2250 -0.1993 -0.1871
20497W        W36631   9.229   1.813   2.807  0.0137 -0.0734 -0.0539
20498W        W36632  18.607   9.974   1.815  0.0712  0.2264  0.1284
20499W        W36633  18.560  17.914   3.974 -0.1746 -0.1997  0.2166
20500W        W36634   3.033  16.130  13.730  0.0328  0.0225 -0.0010
20501W        W36635   9.819   8.798   4.649 -0.0990  0.1504 -0.1831
20502W        W36636   2.802  17.681   2.525  0.0231  0.0040 -0.0652
20503W        W36637   9.269   8.029  14.413 -0.1116  0.1757  0.4659
20504W        W36638   6.113  13.876   9.625 -0.1942 -0.0166 -0.0690
20505W        W36639   3.804  14.044   1.095  0.0040  0.0196 -0.2069
20506W        W36640   7.138   9.309   4.983 -0.0417  0.8184 -0.1607
20507W        W36641  12.398   8.615  14.616  0.4259  0.2406  0.1238
20508W        W36642  16.824  15.676   3.622 -0.0852 -0.1726  0.0009
20509W        W36643   3.598  10.399  10.824  0.3355  0.2667 -0.3119
20510W        W36644  18.067   1.647  10.243 -0.3555  0.4134  0.0286
20511W        W36645  17.389  18.855  11.798 -0.0337 -0.0322  0.2904
20512W        W36646   0.207   8.853   2.451  0.3849 -0.1315  0.1238
20513W        W36647  17.311   2.791   0.784  0.1499 -0.1086  0.1471
20514W        W36648   2.720  11.060  13.388  0.3033  0.1476  0.2535
20515W        W36649   7.542  15.127   4.808  0.3753 -0.2135 -0.0624
20516W        W36650   7.718  18.873  11.451 -0.0731  0.4320  0.0858
20517W        W36651  15.326  15.269  11.322  0.0512  0.1604  0.3917
20518W        W36652  14.616   9.832   4.932 -0.0098  0.0423  0.0398
20519W        W36653  17.555   5.138   1.221 -0.1166 -0.1916 -0.1000
20520W        W36654  12.015  12.697   1.343  0.2212  0.3919 -0.0191
20521W        W36655  17.489  11.781   0.149 -0.0647  0.1012  0.1195
20522W        W36656   6.185   1.108   0.668 -0.2534 -0.2000  0.0479
20523W        W36657   1.381   8.201  10.280 -0.0677 -0.1567 -0.0211
20524W        W36658  13.900   5.926  12.182  0.6791 -0.1812 -0.0705
20525W        W36659  10.135   8.610   0.402 -0.1404 -0.1469 -0.0880
20526W        W36660   1.749  15.306   5.067  0.3145 -0.0310 -0.1263
20527W        W36661  17.905   6.099  14.770  0.1687  0.1772  0.2146
20528W        W36662  12.686  10.427  13.819  0.1804  0.1217 -0.1589
20529W        W36663   4.388  12.706  10.741 -0.0530 -0.0430  0.0079
20530W        W36664   5.168   7.805   0.102  0.0041 -0.2656  0.0309
20531W        W36665  10.375  17.865  12.223 -0.2283 -0.1325 -0.0755
20532W        W36666   1.361   6.082   0.437 -0.2484 -0.1461 -0.1917
20533W        W36667   6.299   1.536  13.507 -0.0853 -0.0215 -0.3292
20534W        W36668  10.895   4.827  14.108 -0.1990 -0.0891  0.0492
20535W        W36669  12.316  18.153  11.568  0.0825 -0.2685 -0.1686
20536W        W36670  17.140  12.814  14.549  0.0803  0.0520 -0.0565
20537W        W36671  10.469   8.268   5.065  0.4604  0.1284  0.1861
20538W        W36672   9.122   3.881  13.525  0.2474 -0.2112  0.0422
20539W        W36673   3.276   5.890  11.758 -0.1787 -0.1383 -0.3878
20540W        W36674   7.874  16.663  10.646  0.0916  0.0045  0.1043
20541W        W36675   7.368   9.781   2.045  0.0829 -0.1872 -0.2277
20542W        W36676  18.749   7.517  14.600 -0.0179  0.0369 -0.0535
20543W        W36677  12.440  17.785   2.323 -0.1335 -0.1268  0.1075
20544W        W36678   0.759  13.585  14.134 -0.0644  0.2969 -0.1491
20545W        W36679  16.077  18.496   4.191  0.0139 -0.1652  0.0184
20546W        W36680  18.418   3.329  10.775  0.1313 -0.0532  0.0982
20547W        W36681   9.236   7.763   0.840  0.0426  0.1499 -0.0388
20548W        W36682  14.755   5.360   1.989 -0.3529  0.2466  0.1260
20549W        W36683  12.995   3.878  12.316 -0.3011  0.1817 -0.1498
20550W        W36684   2.536   2.318  14.331  0.0932 -0.1993 -0.3136
20551W        W36685   2.541   8.780  13.461 -0.1074  0.0552 -0.1986
20552W        W36686   1.832   8.784   1.204 -0.4165  0.0613  0.0955
20553W        W36687   6.529   9.188  11.240  0.0006  0.2607 -0.1545
20554W        W36688  12.726  18.351  11.457 -0.0780 -0.4249 -0.2707
20555W        W36689   8.942   2.017  10.553  0.0230  0.0411 -0.1240
20556W        W36690   0.012   7.477  13.654 -0.1423 -0.0620  0.0306
20557W        W36691   4.394  13.373  13.358 -0.1651 -0.2256 -0.3259
20558W        W36692   9.237   4.758   1.589 -0.0310 -0.0735 -0.0105
20559W        W36693   1.481  11.031   2.892  0.0517  0.1677  0.2020
20560W        W36694   2.174  16.280  12.099 -0.2921 -0.1724 -0.2727
20561W        W36695   1.913   4.494   3.773 -0.2949  0.3136  0.1903
20562W        W36696  15.783   6.227  11.214 -0.0331  0.1619 -0.1808
20563W        W36697   9.024   3.351   0.216  0.3122 -0.0912 -0.1280
20564W        W36698  11.328  18.498   3.892 -0.0066  0.4907  0.0119
20565W        W36699   3.485   0.980   3.685  0.4591 -0.3756 -0.3488
20566W        W36700   3.850  11.083  13.170  0.2244  0.0548 -0.0784
20567W        W36701  11.426   8.880  11.720  0.1710  0.0162 -0.2370
20568W        W36702   0.847   6.962  10.750  0.0974 -0.2696  0.1216
20569W        W36703  17.459   6.107  14.157 -0.0712  0.1695 -0.3487
20570W        W36704   5.898   3.179  12.804  0.3104 -0.1853  0.0952
20571W        W36705   8.593  15.537  12.462  0.1626 -0.0867  0.0690
20572W        W36706  13.932  16.156  11.026  0.0347 -0.1338 -0.0211
20573W        W36707   9.824  13.375   4.554  0.0895 -0.0684  0.0923
20574W        W36708  13.988  15.004   1.753  0.2740  0.2881 -0.2913
20575W        W36709  15.073   8.926   4.416  0.3085 -0.1485 -0.0335
20576W        W36710   2.457   8.005  10.409 -0.0325  0.0008  0.1013
20577W        W36711  16.166   0.622  14.750  0.1486 -0.4025 -0.4548
20578W        W36712  13.407   1.422   2.189 -0.0636 -0.2220  0.1507
20579W        W36713  16.522  11.076  13.847 -0.0525 -0.1776  0.1427
20580W        W36714   0.438  12.786  11.715  0.0988 -0.0337 -0.1923
20581W        W36715  10.095  19.123  12.590  0.0389  0.2545  0.0248
20582W        W36716   4.740   8.826   2.923 -0.0819 -0.0912 -0.0411
20583W        W36717   8.503  13.018  10.584  0.1381  0.2333 -0.0826
20584W        W36718  11.562   1.073  12.570 -0.5776  0.2193  0.1184
20585W        W36719   8.020   2.500   2.980  0.4914 -0.0947  0.1871
20586W        W36720  18.887   4.802  13.940  0.1474 -0.0825 -0.0169
20587W        W36721  15.510   1.757   3.267 -0.0752  0.1798  0.3429
20588W        W36722   9.547  14.130   5.015  0.1177  0.1539 -0.0490
20589W        W36723  12.513   3.416   1.131 -0.0303  0.1250  0.1745
20590W        W36724  17.559   9.400  13.922 -0.0442  0.1921 -0.2605
20591W        W36725   3.659  13.887  13.133 -0.1333 -0.0550 -0.1410
20592W        W36726   0.961   4.341  13.857  0.1800  0.2425 -0.2820
20593W        W36727  11.679   4.122   0.103  0.1567  0.2506 -0.3235
20594W        W36728  18.781  16.536   2.915 -0.1339  0.5323  0.1320
20595W        W36729   3.124   4.397   0.864  0.2528  0.0057 -0.3165
20596W        W36730   1.654   5.971  12.292 -0.1060  0.0008 -0.0033
20597W        W36731  12.027  14.192   3.652  0.0781  0.0385  0.0834
20598W        W36732   9.826  18.943  13.007 -0.2477 -0.1774 -0.1845
20599W        W36733   3.002  10.463  14.108  0.3729 -0.1729 -0.4276
20600W        W36734  13.222  15.696   5.294 -0.0337  0.1888  0.2600
20601W        W36735  10.104  10.538   3.208  0.2412  0.4548 -0.1968
20602W        W36736   2.480   8.825   4.013  0.1207  0.3084 -0.0117
20603W        W36737  16.150   8.355   3.430 -0.1210  0.1525 -0.1022
20604W        W36738  16.466   6.138   3.701  0.0526 -0.1961  0.2780
20605W        W36739   2.273   6.857  13.594 -0.1254  0.0381 -0.0144
20606W        W36740  10.677   2.470  11.492 -0.1426  0.0938 -0.1511
20607W        W36741  17.867   8.537  10.164 -0.0369 -0.0449 -0.1141
20608W        W36742   2.033   8.964   5.331 -0.1246  0.3636 -0.1994
20609W        W36743   1.580   0.430   0.846  0.3761  0.0308  0.0114
20610W        W36744   2.546  15.907   2.184  0.2611  0.1794  0.1474
20611W        W36745  18.955  13.447   2.981 -0.0093  0.0263  0.0146
20612W        W36746   8.175   0.484   0.181 -0.2566 -0.1938 -0.4393
20613W        W36747  10.490  12.108  12.783 -0.2516  0.2965  0.1806
20614W        W36748  12.325   8.228  11.700 -0.0185 -0.0762 -0.1859
20615W        W36749   7.779   1.260   0.555 -0.0671  0.0763 -0.0500
20616W        W36750  15.446  14.637   3.452  0.0331  0.2489 -0.4203
20617W        W36751  16.390  16.247  12.318 -0.1347  0.5055 -0.0549
20618W        W36752  18.070  15.645  14.040 -0.0192  0.2296  0.0546
20619W        W36753  15.751  15.430  12.878 -0.0374  0.0829 -0.2516
20620W        W36754   2.896  13.708   4.765  0.2526  0.2647  0.0902
20621W        W36755  12.016   4.366  11.547 -0.2293 -0.0522 -0.2123
20622W        W36756  10.626  15.837   0.350 -0.1059  0.0030  0.0273
20623W        W36757   4.489   3.509   0.353 -0.0693  0.0787  0.0274
20624W        W36758   8.209   0.892  14.807  0.1676  0.2303  0.0025
20625W        W36759   2.057   7.567  14.168 -0.0102 -0.3247  0.1615
20626W        W36760  11.566   8.239  12.439 -0.1113 -0.0021 -0.1538
20627W        W36761   6.528   4.249   3.435  0.1933 -0.2978  0.1363
20628W        W36762   7.806   3.094   2.220 -0.1032  0.1615  0.0016
20629W        W36763   8.138  16.516  10.220  0.0108 -0.2524 -0.1297
20630W        W36764   9.378   1.133   3.591 -0.2171  0.0053 -0.1051
20631W        W36765   8.681   9.928  14.435 -0.1269  0.1132 -0.1242
20632W        W36766   5.928  15.498   4.536 -0.1977 -0.0810 -0.1713
20633W        W36767   0.055  13.603  14.777 -0.0527  0.0188  0.0958
20634W        W36768   2.089   2.788  12.935 -0.0115 -0.2355 -0.3338
20635W        W36769   5.197  18.813   1.476  0.1485  0.0837 -0.1243
20636W        W36770  16.265   5.973  13.137  0.1946  0.1993  0.1125
20637W        W36771   3.108  17.285  11.832 -0.3358  0.2377  0.1938
20638W        W36772   0.141  10.204   2.101  0.1081  0.0246 -0.1003
20639W        W36773  15.473  18.383   5.659  0.1575  0.1672  0.1094
20640W        W36774  14.750  11.574   0.722 -0.1070 -0.0870 -0.2097
20641W        W36775   2.905  14.938  10.651  0.0847  0.1648  0.2386
20642W        W36776  17.124  10.805   3.356  0.0393 -0.0469  0.1049
20643W        W36777  14.053  17.824   0.069 -0.1074  0.0578  0.3435
20644W        W36778   1.141   3.673   2.341  0.3040 -0.1888  0.0078
20645W        W36779  15.319   7.899  10.989  0.0719 -0.2952 -0.1643
20646W        W36780   3.364   0.024  13.445 -0.1438  0.2289  0.2849
20647W        W36781  15.475   7.356  11.548  0.0158 -0.0035  0.0515
20648W        W36782   5.018  18.247  14.592  0.2233 -0.0806 -0.2571
20649W        W36783  12.220   1.261  11.414 -0.0154  0.3659  0.1001
20650W        W36784  14.279  15.967  14.952  0.3208  0.2783  0.0099
20651W        W36785  10.769  10.022  11.605 -0.0600  0.3684 -0.2258
20652W        W36786  18.323   2.195  12.506  0.2599  0.3224 -0.0136
20653W        W36787   3.251  14.518   5.684 -0.1775  0.0275  0.0225
20654W        W36788  12.866   3.083   2.039 -0.2538 -0.4054  0.1060
20655W        W36789  17.999   3.448  12.178 -0.2245 -0.0834  0.0403
20656W        W36790   5.009   3.057  11.002 -0.2590  0.3856 -0.3060
20657W        W36791   2.915   2.559  13.420  0.1009  0.3283  0.2593
20658W        W36792   6.628   7.197  13.661 -0.1168 -0.1404  0.2365
20659W        W36793   5.722   5.995   1.237  0.0828 -0.1007  0.3485
20660W        W36794  18.292  12.957  12.186  0.2249 -0.1162  0.0448
20661W        W36795  17.693  15.691   2.814  0.1878 -0.0973 -0.1838
20662W        W36796  11.850  12.612   3.175  0.0409  0.1507  0.4361
20663W        W36797  18.976   5.809   4.869 -0.0263  0.2452 -0.2266
20664W        W36798   6.813  11.873   3.807 -0.0156  0.1491 -0.0656
20665W        W36799   8.442   6.626   1.171 -0.2151 -0.1504 -0.0932
20666W        W36800  11.343  17.336  13.366  0.0300 -0.0063  0.0193
20667W        W36801   2.255   1.822  10.930 -0.2439  0.3066 -0.3434
20668W        W36802  13.461   8.046   1.279 -0.3052 -0.1605  0.2705
20669W        W36803   6.310   7.048   0.622  0.2278  0.0589  0.1736
20670W        W36804   2.996  13.747   3.520 -0.1172 -0.3810 -0.0733
20671W        W36805  15.420  15.062  12.760 -0.1923  0.0188 -0.0094
20672W        W36806  12.694   0.160  12.039  0.1989  0.2538 -0.1643
20673W        W36807  18.320  19.060   4.932  0.0374  0.1865  0.0747
20674W        W36808  18.042  16.362   2.253  0.1399  0.5315 -0.3475
20675W        W36809  10.733   9.715   1.349 -0.0905 -0.1814  0.0600
20676W        W36810   1.577  17.626   0.160  0.1720  0.0889 -0.0662
20677W        W36811   2.071  12.966   5.698 -0.0166  0.1064  0.1581
20678W        W36812   7.504   5.301   2.191  0.0838  0.0151  0.2579
20679W        W36813  11.099  11.360   9.467 -0.0014  0.1350  0.1375
20680W        W36814  17.549   0.568   4.250 -0.1068 -0.2113  0.2659
20681W        W36815  14.948  11.140   0.012 -0.0617  0.1142  0.0337
20682W        W36816   7.370  15.261   0.648  0.0914  0.0689 -0.0522
20683W        W36817   7.671  13.914   1.347 -0.3217 -0.1594  0.2215
20684W        W36818   4.513   2.266   2.278 -0.2199  0.1378  0.0054
20685W        W36819   4.768  12.930  10.457  0.0547  0.3476 -0.1080
20686W        W36820   5.754  13.003   1.912  0.0265 -0.1041  0.2624
20687W        W36821   1.805  12.859  14.842 -0.3631  0.0600 -0.1357
20688W        W36822   8.997   4.139   2.568  0.2927 -0.1148  0.1497
20689W        W36823   7.133   0.947  14.839  0.3180 -0.0053  0.1312
20690W        W36824  13.755  11.818  10.690  0.2512  0.0625 -0.1497
20691W        W36825  15.824   4.749   1.757 -0.2800 -0.3224  0.2929
20692W        W36826  13.197  10.943   2.031 -0.0211  0.0954  0.0925
20693W        W36827   1.141  16.459   1.978 -0.2625  0.0812  0.0987
20694W        W36828   1.548  18.768  13.982 -0.1658 -0.1966  0.0252
20695W        W36829  13.566  14.524  10.834 -0.0790  0.1438 -0.2489
20696W        W36830   9.211  13.926   3.977 -0.1403  0.0280  0.1720
20697W        W36831  10.659   3.818   4.164 -0.0209 -0.2347 -0.0892
20698W        W36832  17.186  16.556  11.486 -0.2524  0.3163  0.0375
20699W        W36833  12.308   2.141  14.463  0.2007  0.1504 -0.0307
20700W        W36834   1.776   5.254   3.040 -0.2232 -0.2504 -0.1666
20701W        W36835   1.928   9.793   1.027 -0.2900 -0.0139  0.0463
20702W        W36836   5.952  14.655  11.126 -0.2123 -0.3650  0.3244
20703W        W36837  13.810   7.588   3.320 -0.0861 -0.1548  0.1091
20704W        W36838  18.630   7.858  10.711  0.0783  0.2264 -0.0124
20705W        W36839  15.295   5.519   4.253  0.1913  0.1171  0.0488
20706W        W36840   9.666   3.607   4.181  0.2348  0.2912 -0.1481
20707W        W36841  16.443  11.597   1.921  0.0235  0.2428 -0.0917
20708W        W36842   0.872  19.005   5.410 -0.3928  0.3647 -0.1046
20709W        W36843   6.324   8.616   4.592  0.0091  0.3921 -0.1132
20710W        W36844   1.130   1.793  14.201 -0.0257  0.0996 -0.0912
20711W        W36845   8.367   7.370   4.994  0.1066  0.0681  0.2539
20712W        W36846   4.996   4.976  10.214 -0.0786 -0.2446 -0.1134
20713W        W36847  16.883  15.329  13.645  0.0279 -0.0189 -0.0492
20714W        W36848  11.177  16.430  10.831 -0.0310  0.1055  0.0153
20715W        W36849   2.742  18.577  14.362  0.2108  0.0882  0.2665
20716W        W36850  16.660   1.523   3.646 -0.0787 -0.1208  0.3993
20717W        W36851  13.697   1.073   1.330  0.0573 -0.0884 -0.0347
20718W        W36852   6.163  12.938  12.080  0.1345 -0.4550 -0.3472
20719W        W36853   5.297  15.240   9.850  0.1144 -0.1429  0.3103
20720W        W36854  15.492  11.245   0.129 -0.1755 -0.0226  0.2767
20721W        W36855   0.112   8.976   4.876 -0.0311 -0.2319  0.1051
20722W        W36856  19.092   7.381  10.825 -0.1098  0.1985  0.3241
20723W        W36857  12.778  16.652  13.053  0.0105 -0.1377  0.1125
20724W        W36858  14.350   6.818  11.898  0.0809 -0.0714 -0.0727
20725W        W36859   4.399  17.758   0.278 -0.0931 -0.3176 -0.0586
20726W        W36860   1.751  17.056  14.169 -0.1207 -0.1898  0.3338
20727W        W36861   4.870   9.805  11.083  0.2373 -0.0011  0.2622
20728W        W36862  15.875   8.077  11.746  0.1376 -0.1891 -0.1731
20729W        W36863  17.757   3.022   3.384  0.3811  0.0630  0.2001
20730W        W36864   2.593   4.336   1.818 -0.6468 -0.0869  0.2372
20731W        W36865   2.746  11.849  12.603  0.2002  0.6976 -0.1602
20732W        W36866  12.470   9.619   2.404  0.0601 -0.0403 -0.0721
20733W        W36867   2.915  14.975   4.295  0.1181  0.0103  0.0124
20734W        W36868   3.126  15.367   4.090  0.3543  0.1662  0.1378
20735W        W36869   5.487  15.272   3.429 -0.2439  0.0875 -0.1060
20736W        W36870   7.684   6.796   0.204 -0.3843 -0.1335 -0.0346
20737W        W36871  13.011   7.289  10.098 -0.1030  0.2807 -0.2602
20738W        W36872  12.059   0.029   3.975  0.2141  0.4657 -0.2898
20739W        W36873   8.004  11.162   2.892  0.0143  0.1764  0.1019
20740W        W36874   4.540   8.975   1.865 -0.2813 -0.1490  0.2420
20741W        W36875  19.234  10.454  14.756 -0.0903 -0.0887 -0.1832
20742W        W36876   8.930   8.554   3.944 -0.1231 -0.0212  0.0387
20743W        W36877  16.001  13.579  12.589  0.0708  0.0375 -0.1036
20744W        W36878   7.265   5.709   8.649 -0.2603  0.1803  0.0917
20745W        W36879   4.077   6.084  14.770  0.0184 -0.0747  0.3085
20746W        W36880  10.607   8.735   4.383  0.1870  0.2448 -0.1319
20747W        W36881  18.085   4.760  14.326 -0.1307  0.0301 -0.1882
20748W        W36882   0.808   6.163  11.280 -0.2065  0.2119  0.0731
20749W        W36883   0.195  18.803  11.822 -0.5602  0.0725 -0.1437
20750W        W36884   6.462   9.077   0.022 -0.0116 -0.4659  0.1189
20751W        W36885  12.721   9.517  14.055 -0.2486 -0.0461 -0.2504
20752W        W36886  15.243  15.214  14.488 -0.0062 -0.0395  0.2014
20753W        W36887   2.246  11.101  12.123 -0.0717 -0.2565  0.0343
20754W        W36888  17.657   6.848   5.034 -0.1229 -0.0883  0.1089
20755W        W36889  13.656   7.426   9.356 -0.2841 -0.1174  0.0607
20756W        W36890   1.382   8.343  14.024  0.2945  0.1818  0.1004
20757W        W36891  11.959  17.373   3.153  0.0711  0.2724 -0.1615
20758W        W36892  12.531  16.938  14.538 -0.1432  0.0314 -0.2464
20759W        W36893  16.712   4.787   0.104  0.2984  0.2491  0.0595
20760W        W36894  16.675   0.522  14.954  0.0960  0.1131  0.0763
20761W        W36895  17.467  10.709   0.860 -0.1291  0.1211 -0.1831
20762W        W36896   3.612   6.371  11.566 -0.2027  0.0091  0.1277
20763W        W36897  16.173  17.641  12.886  0.2625 -0.1477 -0.1649
20764W        W36898   9.656   1.952  12.204 -0.1279  0.0232 -0.1338
20765W        W36899  15.535  14.337   2.200 -0.2344  0.1276  0.1413
20766W        W36900  10.115  18.786   0.587  0.0216  0.0121 -0.2126
20767W        W36901  12.751  16.569   4.111 -0.0137  0.1691  0.0304
20768W        W36902  18.417   9.865   3.089  0.1589 -0.2819  0.1642
20769W        W36903   4.448  11.255  14.457 -0.1081 -0.2647  0.1057
20770W        W36904   0.456  17.081  12.410  0.1661  0.1370  0.2801
20771W        W36905  13.259   4.290   3.431 -0.0752  0.0773  0.2750
20772W        W36906   3.167   1.982   5.033  0.1452 -0.0424 -0.1098
20773W        W36907  10.545   8.540  14.949  0.0504  0.3527  0.1079
20774W        W36908   3.826   1.501  11.753 -0.2159  0.1235 -0.2659
20775W        W36909   2.302   4.079   4.089 -0.0852  0.1501  0.0352
20776W        W36910  13.401   1.306   1.686 -0.1394  0.2172 -0.0997
20777W        W36911  13.237  12.337   1.306  0.5812 -0.0599 -0.1007
20778W        W36912   0.156  14.619   0.538  0.0901 -0.1936  0.0074
20779W        W36913   3.144  12.626   1.980  0.3795  0.0016 -0.1946
20780W        W36914   7.517  10.542  10.948 -0.1384  0.1146 -0.1270
20781W        W36915   3.389   0.128   2.829  0.1087 -0.1518 -0.2176
20782W        W36916   9.696  18.698  10.316  0.1289  0.1686  0.2169
20783W        W36917   5.323  16.519   5.342 -0.0857  0.0508  0.2040
20784W        W36918  13.767  13.572   2.109  0.0203 -0.3251  0.2988
20785W        W36919  18.868   8.034  12.695  0.0094 -0.1235 -0.2420
20786W        W36920   6.288   0.183  13.903 -0.3879 -0.1212  0.1538
20787W        W36921  11.346   9.449   4.524  0.3222  0.1834  0.0574
20788W        W36922   1.721   1.941   5.925  0.1697 -0.1558 -0.2797
20789W        W36923   4.876   3.638   2.289  0.1228 -0.1045 -0.1539
20790W        W36924  14.146  18.757   0.561 -0.1179 -0.1114  0.1274
20791W        W36925   4.412  17.767   9.691  0.1876 -0.3635  0.1397
20792W        W36926   9.703  11.677   2.182  0.4052 -0.1086  0.1007
20793W        W36927   3.993  15.069  13.896 -0.1287 -0.4916  0.3563
20794W        W36928   8.196  15.415   3.839  0.2506 -0.0547 -0.2099
20795W        W36929  18.751  12.908  12.338 -0.4851  0.0819 -0.2757
20796W        W36930   2.223  17.928  12.513  0.0253 -0.3154 -0.1041
20797W        W36931   8.169   2.365   9.509  0.1002  0.2918 -0.0824
20798W        W36932  12.812   5.829   1.222  0.2693  0.0719 -0.1040
20799W        W36933  15.251   4.493  13.874 -0.0629  0.0720 -0.0574
20800W        W36934  10.175  10.375  12.720  0.2824 -0.0743 -0.2132
20801W        W36935  13.231   2.315  14.588 -0.1871  0.5198  0.0224
20802W        W36936   8.303  11.010   5.226 -0.2238 -0.0544  0.0498
20803W        W36937  12.236   0.735   2.714  0.0257  0.4817 -0.0916
20804W        W36938   3.238  16.794   1.952  0.0532 -0.1656  0.0604
20805W        W36939   3.320  17.971  10.263 -0.2479 -0.0380  0.2330
20806W        W36940   9.488   6.563   9.975 -0.0623 -0.3302  0.2649
20807W        W36941  11.136  13.661  12.522 -0.3757  0.1566  0.1261
20808W        W36942   3.089  13.434  11.636 -0.1776  0.0282 -0.1076
20809W        W36943  11.128   6.920   3.542 -0.0310  0.1025 -0.0982
20810W        W36944   5.585   2.946  14.826  0.1340 -0.0178 -0.4141
20811W        W36945   1.789  14.334   1.661 -0.1447 -0.0861 -0.1439
20812W        W36946  18.862   8.371   2.969  0.1875  0.0526 -0.0679
20813W        W36947  14.950   6.362  11.005 -0.0792  0.0283  0.2459
20814W        W36948   4.135  10.495   4.945 -0.2318  0.1726  0.1535
20815W        W36949   4.984   6.212   4.929  0.4039 -0.1736  0.1601
20816W        W36950  11.390  18.286  13.487  0.0627  0.2262 -0.2107
20817W        W36951  18.695   2.570  14.789 -0.2419  0.0028 -0.0488
20818W        W36952  16.193   5.348  12.364 -0.1452 -0.2831  0.1385
20819W        W36953   5.827   9.012  13.401  0.3876 -0.1310  0.0085
20820W        W36954   7.019  13.556  14.806  0.0782  0.0112  0.0876
20821W        W36955  11.034  15.187  14.618 -0.2144 -0.0439  0.0905
20822W        W36956   3.518   4.108   3.146  0.1226 -0.0432 -0.0991
20823W        W36957  10.764   2.601  13.204 -0.3199 -0.2870 -0.1141
20824W        W36958   2.004  13.300  14.778 -0.1408 -0.0248 -0.4872
20825W        W36959   2.514   0.023   2.621  0.2433 -0.0498 -0.1639
20826W        W36960   5.989   7.128   3.933  0.1760 -0.1044 -0.1509
20827W        W36961   1.521   1.236  14.639  0.1603  0.1077  0.0098
20828W        W36962   9.066  15.578   2.564 -0.3771 -0.0309  0.0658
20829W        W36963  17.237  17.215   2.948 -0.2183  0.0931  0.3319
20830W        W36964  11.139   9.877   4.310 -0.0030  0.0844  0.2518
20831W        W36965   6.449   2.833  11.147  0.0526  0.1715  0.0273
20832W        W36966  11.005   9.123  13.764 -0.1811  0.3015 -0.3721
20833W        W36967  14.206  12.203  11.175 -0.1353 -0.1114 -0.1130
20834W        W36968  12.111   2.417  12.907  0.1026 -0.1012 -0.4241
20835W        W36969   3.025   6.709   0.048  0.0927 -0.1020  0.0832
20836W        W36970   8.337  13.763  13.533  0.1352 -0.3986  0.3594
20837W        W36971   6.830   7.354   0.555 -0.0052  0.3044 -0.3595
20838W        W36972  13.593   3.384   5.199  0.2600 -0.2013 -0.0022
20839W        W36973   2.546   0.480   2.389  0.0135 -0.1474  0.2335
20840W        W36974  16.014  15.440  10.721 -0.0788  0.1886  0.0869
20841W        W36975   1.420  16.605   4.700  0.0962  0.1319 -0.1945
20842W        W36976  18.055  11.178  13.759 -0.2627  0.0596  0.0832
20843W        W36977   1.895  13.554  12.411  0.1372  0.0465 -0.3128
20844W        W36978   9.625   8.971  11.512  0.1387 -0.0225 -0.0506
20845W        W36979  12.478   4.686   3.107 -0.3454  0.3006 -0.1639
20846W        W36980  16.949  12.008  11.876  0.2446  0.2241  0.3697
20847W        W36981   8.667  11.626   2.473  0.1975  0.0693  0.0900
20848W        W36982   4.477  12.052   1.512 -0.1728  0.0457  0.1856
20849W        W36983   4.172  15.598  14.469 -0.1433 -0.1593  0.2031
20850W        W36984  17.256  18.178  11.375 -0.0001  0.0695  0.1793
20851W        W36985  16.561  19.233  14.305  0.2189  0.0456 -0.0192
20852W        W36986   2.932  16.135   2.751  0.1280  0.2453  0.0138
20853W        W36987   6.516  12.058   1.869  0.2466 -0.1159  0.0560
20854W        W36988   7.468   3.446   2.191  0.0467 -0.0290  0.1439
20855W        W36989  11.954   1.662   3.888 -0.2682  0.1520  0.0302
20856W        W36990  12.173   3.076   2.414  0.0082 -0.2861 -0.0334
20857W        W36991   8.177   5.991   9.787  0.0675 -0.0543  0.5805
20858W        W36992   4.271   4.924  11.283  0.2061  0.1284 -0.1163
20859W        W36993  13.336   2.911  10.989  0.3391  0.1916 -0.0206
20860W        W36994   2.554   4.816   2.445 -0.1353 -0.3031  0.0748
20861W        W36995   2.396   7.819   4.052 -0.0784 -0.4875 -0.2085
20862W        W36996   7.694   1.716  13.726 -0.2070 -0.0596 -0.0237
20863W        W36997   2.048   3.017  12.429  0.1937  0.1870  0.2021
20864W        W36998  12.932  10.016  12.508 -0.2280  0.2089  0.0950
20865W        W36999   8.067  17.902   2.009  0.0577  0.2281 -0.4368
20866W        W37000   2.410  18.833   3.065  0.2024 -0.0482 -0.1903
20867W        W37001  12.675  13.459   3.548 -0.3179  0.4174  0.0050
20868W        W37002   0.967  17.150   4.905  0.0162  0.0322 -0.1708
20869W        W37003   0.946  15.654   5.244  0.5728  0.0357 -0.1207
20870W        W37004   3.467  18.498   4.675 -0.2963 -0.3408 -0.0520
20871W        W37005  11.876   2.940  10.649 -0.0220  0.4891  0.1292
20872W        W37006  13.795  17.167   0.590  0.2693 -0.3026 -0.3131
20873W        W37007   5.373   5.430  14.851  0.0893  0.3757 -0.3427
20874W        W37008   2.579  19.150  12.636 -0.0732 -0.1428  0.1778
20875W        W37009   7.857   7.748  12.264  0.1928 -0.0602  0.0857
20876W        W37010   6.472   9.239   3.660  0.0716  0.2390 -0.0392
20877W        W37011  12.619  17.236  14.907 -0.0489 -0.5584 -0.1342
20878W        W37012  12.355  14.936   3.961 -0.0377  0.3397 -0.3885
20879W        W37013  17.650   7.881  12.184 -0.0451 -0.1922 -0.0627
20880W        W37014   6.581  14.113   4.441 -0.0154  0.1122  0.0512
20881W        W37015   5.853   7.414   3.390 -0.1845  0.0004  0.1821
20882W        W37016   3.591  18.556  11.291  0.1570 -0.0314 -0.2030
20883W        W37017   8.897   9.310  12.293  0.2441  0.2509  0.1080
20884W        W37018  11.882   4.074   2.529 -0.5549  0.3309 -0.3993
20885W        W37019  10.968  13.910   1.567 -0.1350 -0.2521  0.0811
20886W        W37020  14.945  12.889  12.473  0.0747 -0.3666 -0.0012
20887W        W37021  14.521   9.892   5.438 -0.1855 -0.1928 -0.4972
20888W        W37022   7.403   5.634   3.879  0.0331 -0.4569  0.1099
20889W        W37023   2.079  18.145  13.791  0.1426  0.1322 -0.1332
20890W        W37024   9.229  13.228  14.973  0.1131 -0.5274  0.1519
20891W        W37025  13.064   2.814  12.132  0.0162  0.0866  0.2328
20892W        W37026   5.855   7.166  13.930  0.1614 -0.3642 -0.0740
20893W        W37027  17.264   6.481   4.997  0.1207  0.1433 -0.0595
20894W        W37028  16.382   9.400  13.004  0.2687 -0.0614  0.0825
20895W        W37029  18.656   3.536  12.631 -0.0832 -0.0891 -0.0613
20896W        W37030   9.199  11.892   1.346 -0.0449 -0.1211 -0.1529
20897W        W37031  18.359   2.402  13.494 -0.0807 -0.1505 -0.0676
20898W        W37032   1.061   7.904  10.760  0.0325  0.0885  0.0938
20899W        W37033   4.750   3.810  13.295  0.4137  0.2510 -0.1929
20900W        W37034   6.048   3.071  13.518  0.4315 -0.1199  0.0506
20901W        W37035   9.217   7.519   1.399 -0.1007  0.1242 -0.2397
20902W        W37036  10.493   8.294   4.204  0.1001 -0.0657  0.0094
20903W        W37037  18.448   8.986  10.692 -0.1280 -0.1552 -0.0440
20904W        W37038   3.870  12.788  12.459 -0.1638  0.0700  0.1396
20905W        W37039   3.075   1.455   5.166 -0.0698  0.0300 -0.0459
20906W        W37040   7.286  12.969   5.529  0.0210 -0.0343 -0.1822
20907W        W37041   0.590  13.685  11.512  0.0458  0.1771  0.2040
20908W        W37042   1.734   4.919  10.633  0.3972  0.3488  0.2920
20909W        W37043   8.429   1.171  12.228  0.0504  0.0251  0.3623
20910W        W37044   7.565   6.437  14.828 -0.1085  0.4497 -0.2561
20911W        W37045   1.181   4.404  14.722  0.2775  0.0466  0.3109
20912W        W37046   4.420   9.931   4.162  0.3047  0.4981  0.1540
20913W        W37047  10.750   6.654  14.637  0.0171 -0.2068  0.0450
20914W        W37048   4.377   7.012   4.406  0.0791 -0.1825 -0.2621
20915W        W37049  15.071  14.789  14.555 -0.1069  0.0628  0.2589
20916W        W37050   7.571  14.302   3.323 -0.1388 -0.0856 -0.1072
20917W        W37051   1.037   7.985  14.989 -0.0329  0.0042 -0.0079
20918W        W37052  12.067  13.065   1.000 -0.1236  0.1894  0.2448
20919W        W37053  11.143  12.980  10.926  0.1547 -0.3020  0.0705
20920W        W37054  15.816   8.583   3.106 -0.5762 -0.1402  0.1726
20921W        W37055  14.172  12.681  13.183 -0.2564 -0.3209  0.0053
20922W        W37056  14.218   5.875   3.173  0.0557 -0.0120 -0.3368
20923W        W37057   7.604  13.192  14.187  0.0521  0.1989  0.2887
20924W        W37058   7.855   5.190   0.493 -0.0278 -0.2246  0.0278
20925W        W37059  10.166  11.580  13.267 -0.0840 -0.1480  0.0430
20926W        W37060   1.185  14.461  13.573 -0.2533 -0.0200 -0.2489
20927W        W37061  13.344   4.936  10.099  0.1697  0.3271  0.1292
20928W        W37062  10.327  10.282   1.612  0.2509  0.1233  0.0841
20929W        W37063   3.063  18.365  13.408  0.2007 -0.0314 -0.1671
20930W        W37064  10.466  18.060  14.625  0.0274 -0.0993  0.4730
20931W        W37065   5.458  10.399   4.358 -0.3823  0.0270 -0.0622
20932W        W37066   2.355  16.911   2.227 -0.0085  0.1193  0.0451
20933W        W37067   5.068   3.156   5.275 -0.1022  0.2909 -0.0262
20934W        W37068   5.882   2.549  10.192  0.2249 -0.2681  0.2478
20935W        W37069   3.950  10.408   9.719  0.1199 -0.0565 -0.1064
20936W        W37070   0.527   9.273   1.543  0.0857 -0.0958  0.0461
20937W        W37071  13.086   7.541   5.417  0.2045 -0.2678  0.0566
20938W        W37072  10.594  11.628  12.878 -0.1505 -0.1992 -0.1559
20939W        W37073  10.490  10.186  10.094  0.2784 -0.0425  0.1163
20940W        W37074  10.023  11.061  13.406 -0.5303  0.4582 -0.3589
20941W        W37075  14.999  11.913   4.499  0.2387 -0.0618  0.2098
20942W        W37076   0.633   7.682   0.744 -0.1270  0.0942 -0.1318
20943W        W37077  19.032   8.839  12.143 -0.0555 -0.0892 -0.4199
20944W        W37078   7.477  16.448  14.391 -0.2553 -0.0685 -0.1738
20945W        W37079  13.828  14.598  14.478  0.0474  0.0474  0.0273
20946W        W37080  15.689   7.275   0.079  0.3778  0.2684 -0.0919
20947W        W37081   7.069   5.840   3.562 -0.0940  0.0653  0.2605
20948W        W37082  15.628   3.553  11.015 -0.1177  0.1766 -0.0314
20949W        W37083  18.563   2.526  14.326  0.2177 -0.0321  0.1477
20950W        W37084   1.919   4.281  14.245  0.0845 -0.1221 -0.0525
20951W        W37085  14.820  10.977   3.536 -0.1292 -0.2374 -0.3846
20952W        W37086  10.343  13.462  12.770  0.0422 -0.5684  0.1683
20953W        W37087   3.521  17.772   5.028  0.0600 -0.1445  0.2214
20954W        W37088  12.843   0.354  14.667 -0.1998  0.2163  0.6093
20955W        W37089   9.943   9.458  12.081 -0.0270  0.0672  0.0155
20956W        W37090   8.115  18.462   3.459 -0.0742 -0.0064  0.3126
20957W        W37091  10.085  15.767  14.617 -0.2660  0.6406 -0.0816
20958W        W37092  11.155  17.770  10.892  0.0148 -0.2879  0.2419
20959W        W37093  10.492   6.128  11.448  0.2814  0.1274 -0.2690
20960W        W37094   4.946   0.052   1.001  0.2869  0.0124  0.2069
20961W        W37095  11.820   2.104   2.961  0.0943 -0.2334  0.0016
20962W        W37096   9.347  12.098   5.389 -0.4155 -0.0311  0.0727
20963W        W37097   7.654   9.810   1.204  0.1411 -0.1029 -0.0265
20964W        W37098  12.337   4.639   4.180 -0.2059  0.0272  0.0662
20965W        W37099  13.700   1.150   4.266  0.5326 -0.1432 -0.0256
20966W        W37100  15.240   8.255   1.085  0.2674  0.2996  0.3242
20967W        W37101   8.820   4.440  12.246 -0.2056  0.1194 -0.3099
20968W        W37102  11.805   6.556   1.764 -0.0353 -0.3838 -0.4022
20969W        W37103  11.246   9.282   5.022 -0.4508  0.1397 -0.1134
20970W        W37104  18.638   0.323  12.603 -0.1568 -0.1000 -0.1275
20971W        W37105   2.152   4.191   9.569 -0.0986  0.0855 -0.1165
20972W        W37106   5.146  11.037  14.501  0.0541 -0.2274  0.0471
20973W        W37107  17.253  16.681  12.758  0.1339 -0.1524 -0.0811
20974W        W37108   4.409  15.551  12.570  0.5626  0.1823  0.2045
20975W        W37109  10.153   3.980  11.980  0.0541 -0.0010 -0.1692
20976W        W37110  17.432   1.505  12.225 -0.0067 -0.0613  0.1206
20977W        W37111   4.148   5.420  10.553 -0.1952 -0.2156  0.2463
20978W        W37112   1.843   6.566   2.244  0.0650 -0.0706 -0.1552
20979W        W37113  15.888  16.043  12.325  0.2497 -0.0460  0.0951
20980W        W37114  16.540  13.954  14.488 -0.0472 -0.1140  0.1261
20981W        W37115  12.846   8.848   4.598  0.0134 -0.2612  0.1964
20982W        W37116   7.213  17.761  12.459 -0.1146  0.0544 -0.0525
20983W        W37117   9.112   1.614   1.033 -0.2878 -0.5952 -0.0139
20984W        W37118  13.709  18.875   2.007 -0.1854  0.0648  0.1421
20985W        W37119   3.768   3.179   1.750 -0.2570  0.1396  0.1830
20986W        W37120   6.291   9.760  12.385 -0.0473  0.3530  0.0629
20987W        W37121   4.618   3.595   1.673 -0.2283 -0.1129 -0.1332
20988W        W37122   0.627   3.173   3.060  0.1193  0.3550  0.0487
20989W        W37123   6.256  15.392   2.181  0.3052  0.1440  0.0123
20990W        W37124   4.111  12.356  13.379  0.3238 -0.0866 -0.2070
20991W        W37125   8.430   5.866  11.189  0.0222  0.2432 -0.0306
20992W        W37126   8.258   1.598  13.113  0.0042  0.0324  0.0407
20993W        W37127   3.673  13.880  14.035  0.2412  0.0815 -0.0100
20994W        W37128  15.305  12.773  13.718 -0.0880  0.1085 -0.0040
20995W        W37129   3.790   7.097   3.507 -0.0378 -0.2871  0.1387
20996W        W37130   7.790   0.144   0.179  0.2009 -0.3465 -0.5020
20997W        W37131   1.432  10.125   2.722 -0.3655 -0.5387  0.2807
20998W        W37132   2.570   1.091   4.351  0.1022  0.0347  0.1522
20999W        W37133  17.886  15.592   1.706  0.1798 -0.0263 -0.0291
21000W        W37134   3.780  15.018  12.242  0.0196  0.3147 -0.0660
21001W        W37135  18.270   6.237   4.045 -0.4462 -0.1742  0.0542
21002W        W37136  17.043   5.221  11.327  0.2140  0.2004 -0.1534
21003W        W37137  14.138  17.725  12.940 -0.0673  0.0660  0.1784
21004W        W37138   1.086   4.219   5.032  0.2619 -0.2250  0.2834
21005W        W37139  15.988  17.111   3.353 -0.1124  0.0864  0.0795
21006W        W37140  18.003   4.987   1.292 -0.1521  0.0949 -0.1100
21007W        W37141   3.245   0.161  11.381  0.1582 -0.2467  0.1137
21008W        W37142   2.685  10.734  13.038  0.0448  0.3083  0.4425
21009W        W37143  11.849  15.273  10.898 -0.2473  0.3042  0.1763
21010W        W37144   6.379   5.911   2.582 -0.2486 -0.0525 -0.1095
21011W        W37145   2.322  13.261   0.823  0.1305 -0.0024 -0.1637
21012W        W37146  17.934  14.690  11.802  0.1102  0.0376 -0.1853
21013W        W37147  16.227  11.204   1.544 -0.3170 -0.1956  0.3048
21014W        W37148   5.193  14.483  12.920  0.1253  0.1178  0.1245
21015W        W37149   0.181  12.099  12.238 -0.1436  0.0194 -0.3134
21016W        W37150  10.612  14.581  13.819  0.2318 -0.4034  0.3084
21017W        W37151  14.450  14.799   2.830  0.2440  0.0698 -0.0055
21018W        W37152  15.313   3.093   0.325  0.0477 -0.2066 -0.0612
21019W        W37153   5.514  18.400   2.589  0.2395 -0.0079  0.0630
21020W        W37154   2.142  16.638  15.008 -0.0207 -0.0099  0.1483
21021W        W37155  13.108  14.833   1.031 -0.1221  0.1656 -0.0169
21022W        W37156   9.345  18.798   4.877 -0.3203 -0.0068  0.4028
21023W        W37157   5.460  16.791   0.225 -0.2526  0.0214  0.2720
21024W        W37158   8.252   8.768  10.600  0.1140 -0.0192  0.2075
21025W        W37159  17.666   9.059   2.951 -0.3892 -0.0090 -0.0709
21026W        W37160   1.009   7.385  12.574  0.2345  0.0237  0.1025
21027W        W37161   3.801   3.475   2.570 -0.2320 -0.0465  0.0658
21028W        W37162  12.855  10.426  11.790 -0.2325 -0.0016 -0.0569
21029W        W37163   5.811   4.609  11.347  0.1058  0.2148  0.2777
21030W        W37164  13.259   7.422  12.990  0.1449  0.1946 -0.1440
21031W        W37165   2.290   3.999   3.087 -0.0098  0.3171  0.0944
21032W        W37166  12.820   2.013  14.490 -0.1385  0.3203 -0.0286
21033W        W37167   5.898   1.840   0.529 -0.2043  0.0518  0.2009
21034W        W37168  16.431   1.889  10.105  0.2563 -0.3416  0.1795
21035W        W37169  16.958   1.679  14.070  0.1285  0.0251 -0.0807
21036W        W37170  10.986  10.167  11.152  0.1850 -0.2392  0.2044
21037W        W37171   1.207  14.067   5.388  0.2057 -0.2924  0.1518
21038W        W37172  17.869  16.275  11.831 -0.0345 -0.3286  0.2180
21039W        W37173  16.833   3.551   9.322 -0.3677  0.1003 -0.0445
21040W        W37174   7.766   4.527   8.726 -0.5164  0.1019  0.2125
21041W        W37175   0.049   6.337   0.264  0.1266  0.1332  0.1987
21042W        W37176   9.864  12.323   3.009  0.1348 -0.1567  0.0919
21043W        W37177   2.748   0.087   4.188  0.1024 -0.0644 -0.0248
21044W        W37178  13.560  18.458  14.956  0.0871  0.2275 -0.3076
21045W        W37179   7.696   8.324  13.478 -0.2028  0.0603  0.1220
21046W        W37180  11.302   1.693  11.250  0.1078  0.0641 -0.0269
21047W        W37181   5.664   5.183   2.253  0.2771 -0.2687  0.0305
21048W        W37182  17.649  10.794   2.657  0.0106 -0.4210 -0.0940
21049W        W37183  17.147   4.089   2.778 -0.0012  0.0236 -0.2194
21050W        W37184  14.596   7.216   0.253 -0.2479  0.0576 -0.0840
21051W        W37185   1.480   5.293   2.234 -0.1345 -0.2152  0.0948
21052W        W37186   5.599  17.464  12.756  0.2962 -0.0209 -0.0201
21053W        W37187   9.095  12.574  12.720 -0.1038 -0.1208  0.0744
21054W        W37188   9.218  12.901  13.167 -0.1182  0.2531 -0.1474
21055W        W37189   0.506  17.326   1.797  0.0183  0.1697  0.0603
21056W        W37190   5.608   3.385  10.866 -0.1010 -0.0469  0.0082
21057W        W37191   2.878  16.262   3.251 -0.0439  0.1619  0.0925
21058W        W37192   6.397   9.710  11.274 -0.0578  0.0425  0.0209
21059W        W37193   1.189  16.526   4.158 -0.2730 -0.0416 -0.2263
21060W        W37194   9.889  16.513  13.809  0.2347 -0.1362  0.1990
21061W        W37195  17.470  14.300   0.252  0.2241 -0.3463  0.2720
21062W        W37196  15.936   6.258   0.687  0.0569 -0.2938  0.0399
21063W        W37197  12.749   5.487  14.952  0.0412 -0.2837 -0.1934
21064W        W37198   1.986  18.071   2.285  0.3650 -0.3212  0.1991
21065W        W37199  12.985  13.401  13.015  0.3015  0.0582 -0.1265
21066W        W37200   7.285  13.029  14.525 -0.4624  0.0221 -0.0176
21067W        W37201  14.755   8.589   3.943 -0.0271  0.0610 -0.2986
21068W        W37202   7.289  16.183   1.488  0.0985 -0.0185 -0.2595
21069W        W37203   6.723   1.477   2.087 -0.0756  0.1660 -0.2205
21070W        W37204  13.761   3.685  14.856  0.0427 -0.1288  0.0712
21071W        W37205  13.113   9.104   2.370  0.0034 -0.0976  0.0474
21072W        W37206   5.124  12.213   3.829  0.1522 -0.1686  0.1196
21073W        W37207   9.432  11.769  13.903 -0.1933  0.0219 -0.1252
21074W        W37208  16.411   0.037   4.275  0.0385  0.0920 -0.2782
21075W        W37209  17.998  12.422  10.643 -0.0014 -0.2988  0.3283
21076W        W37210   5.557  14.958  11.407  0.0968  0.2177 -0.0382
21077W        W37211   1.644  11.620   3.109 -0.1005 -0.1650 -0.2000
21078W        W37212  14.036  11.220  10.804 -0.2013  0.0697  0.1272
21079W        W37213  11.401   7.566  14.309 -0.0969  0.1148 -0.1648
21080W        W37214   3.269  11.997   2.736  0.2366  0.1516 -0.1060
21081W        W37215   4.617   2.649  14.844  0.2019 -0.1420 -0.0625
21082W        W37216   5.529  16.845  10.786  0.0125  0.0609  0.3174
21083W        W37217  12.978   0.744  10.362  0.1728 -0.1394 -0.2704
21084W        W37218  14.209  18.726   5.167 -0.1676 -0.0752 -0.1826
21085W        W37219   4.471  17.009  14.718  0.1621 -0.0600 -0.1533
21086W        W37220  12.101  10.102  12.047 -0.1375 -0.1557 -0.1467
21087W        W37221   7.631   9.734  14.928 -0.0190  0.0193  0.0277
21088W        W37222   7.272  11.933  14.295 -0.0083 -0.0677  0.0663
21089W        W37223  11.085  10.376  11.632 -0.2591  0.1005  0.2732
21090W        W37224   2.109   5.000   2.783 -0.1049 -0.3874 -0.0902
21091W        W37225   6.423   2.942   0.324  0.0303 -0.2525  0.0876
21092W        W37226   3.033  17.347   0.661  0.4975  0.0490 -0.2661
21093W        W37227   1.136   3.064  11.754 -0.0385  0.2835  0.3238
21094W        W37228  11.438  13.666   4.939 -0.0145  0.4336  0.2407
21095W        W37229  12.036  17.838   3.977  0.1994 -0.0142 -0.0883
21096W        W37230   1.227   1.356   0.654 -0.0663 -0.1591  0.2310
21097W        W37231  12.456   1.403   5.229 -0.1027 -0.2126  0.0061
21098W        W37232  14.734  18.788  11.693  0.1119 -0.1897 -0.2914
21099W        W37233  18.698   9.582   3.910 -0.0437  0.4811 -0.0466
21100W        W37234  16.758  13.132   4.379  0.0167  0.0290  0.0197
21101W        W37235   9.975   7.907  14.761  0.1094 -0.1099 -0.2052
21102W        W37236   7.175  19.203   0.470  0.1169  0.0888  0.0032
21103W        W37237  18.568  18.941  14.121 -0.0576  0.0161  0.2424
21104W        W37238   0.642  15.520   1.964 -0.1338 -0.3470 -0.0563
21105W        W37239   6.117   5.022   4.560  0.0048  0.2541 -0.0273
21106W        W37240   6.070   7.943   0.296 -0.3269  0.2826 -0.0661
21107W        W37241  16.179  17.372   0.683 -0.0092  0.0923 -0.1180
21108W        W37242   8.993   7.993  15.036  0.1261  0.1396 -0.1562
21109W        W37243  10.428  12.923   5.121  0.1502 -0.0283  0.0536
21110W        W37244   9.664   3.325  11.884 -0.1638  0.1035  0.2342
21111W        W37245  18.159   4.845  11.958 -0.1996  0.3431 -0.1726
21112W        W37246  10.010   8.441  14.939 -0.3374 -0.1457  0.0440
21113W        W37247   6.062   0.116   1.734  0.1119 -0.0079  0.0059
21114W        W37248  14.163   2.409  13.972  0.2035  0.0699 -0.0675
21115W        W37249  10.916   9.602   2.770  0.1055  0.1193  0.0042
21116W        W37250   7.747  11.712  14.439 -0.1169 -0.1819  0.0467
21117W        W37251  10.307  10.129  13.794  0.0879 -0.3921  0.2552
21118W        W37252   7.335   7.338  10.139  0.2529 -0.1631 -0.0904
21119W        W37253  13.296  12.954  14.877 -0.1769 -0.0860 -0.1856
21120W        W37254   9.569  17.119  14.023 -0.0409  0.1115 -0.1002
21121W        W37255   9.313   0.106   0.217 -0.2951 -0.2929  0.0255
21122W        W37256  10.590  17.569  12.581 -0.2614 -0.1655 -0.2898
21123W        W37257  10.212  11.691   2.173  0.0001  0.1997  0.1855
21124W        W37258   3.691   0.029   4.525 -0.0084 -0.0458 -0.2502
21125W        W37259  18.570   2.468   1.011 -0.2553  0.0777  0.0317
21126W        W37260  17.785  16.671   1.993  0.0877 -0.2180 -0.0176
21127W        W37261  12.773  16.828   2.866  0.1025 -0.1747 -0.0175
21128W        W37262  12.561  14.255  13.256 -0.2254 -0.3657 -0.1440
21129W        W37263   3.294  16.676  14.068 -0.3846  0.2467  0.1572
21130W        W37264   4.780  10.502   3.413  0.0359 -0.0943 -0.0073
21131W        W37265  11.016  15.595  12.913 -0.1268 -0.1620  0.2422
21132W        W37266   7.083   1.366   3.171 -0.1768 -0.2078 -0.0851
21133W        W37267   0.306  15.568   0.366  0.1280 -0.0908 -0.2278
21134W        W37268  10.742  18.582  14.592  0.0493 -0.2472 -0.3173
21135W        W37269   0.108  15.596  12.063 -0.1453 -0.0215 -0.1103
21136W        W37270  16.726   6.755  14.369  0.1711  0.1386  0.2101
21137W        W37271   5.132   2.981   3.910 -0.0433  0.1776  0.2602
21138W        W37272   6.349  13.185   0.789  0.1967 -0.3920 -0.3740
21139W        W37273  15.766   4.503  12.476 -0.1050 -0.1942 -0.1967
21140W        W37274  18.568  14.614   0.399  0.0058 -0.0564 -0.2523
21141W        W37275   3.434   5.369  11.698  0.4061  0.1874 -0.1175
21142W        W37276   2.195  14.706   1.502  0.0188 -0.0730 -0.2373
21143W        W37277  18.248  15.532   1.399  0.1827  0.1976  0.1062
21144W        W37278   9.456   2.950  12.717  0.3572 -0.2605  0.1382
21145W        W37279  10.733   4.525   0.219 -0.0133 -0.2688 -0.0433
21146W        W37280   6.735  18.485  14.927 -0.3952  0.1546 -0.0067
21147W        W37281  10.194  17.900   1.228 -0.1038  0.1189 -0.0749
21148W        W37282  19.004   1.305   5.636 -0.2319 -0.0608 -0.1217
21149W        W37283   8.173   5.494   9.954 -0.0265  0.0492 -0.0972
21150W        W37284  18.361  10.844   3.254 -0.2410  0.0071  0.1937
21151W        W37285   8.372  13.745  14.969 -0.0883  0.0964 -0.2880
21152W        W37286   8.633   7.881  10.251 -0.0178 -0.0228  0.0207
21153W        W37287  11.723   9.305   3.192  0.0095  0.1700  0.2035
21154W        W37288  11.468   7.140   2.893  0.0876 -0.0315  0.2585
21155W        W37289   3.857   6.938  12.353 -0.2186 -0.0029  0.0177
21156W        W37290   1.089  13.304  10.615 -0.1156 -0.1254  0.1115
21157W        W37291   0.112  10.517   3.951  0.1913  0.1267 -0.0903
21158W        W37292  16.506   6.018  10.044  0.2272 -0.0259  0.1718
21159W        W37293   0.922   5.137  11.237 -0.2538 -0.1219 -0.2504
21160W        W37294   8.305   8.029   1.207  0.0230 -0.0996 -0.0492
21161W        W37295  12.559   0.594   2.197 -0.0053  0.0504  0.0343
21162W        W37296   3.418   6.457   0.530 -0.1546  0.3536 -0.1411
21163W        W37297  15.587  18.853  14.564  0.4952 -0.0947 -0.0631
21164W        W37298   4.998   4.764  14.480  0.1283  0.2501  0.1031
21165W        W37299  17.413   6.109   4.083 -0.1079 -0.2950  0.1893
21166W        W37300   8.504  13.217   3.231  0.1834  0.0021  0.0908
21167W        W37301  16.989   6.261   4.268 -0.0246 -0.1254 -0.0587
21168W        W37302   2.956  12.135   3.267  0.4452  0.1823  0.0677
21169W        W37303  10.088  10.990  14.136  0.0802 -0.0879  0.2559
21170W        W37304   9.453   0.414   2.976  0.1778  0.1509 -0.1686
21171W        W37305   8.649  18.843  14.969  0.2790 -0.1277 -0.1261
21172W        W37306   4.930  12.618  12.845 -0.2417 -0.0695 -0.2201
21173W        W37307  16.940  16.479   2.495 -0.2197  0.0547  0.0640
21174W        W37308   2.396   0.691  11.629 -0.0391  0.3529 -0.2132
21175W        W37309  16.966   4.491  14.248 -0.0114 -0.1707  0.3253
21176W        W37310   9.857   5.857   0.342 -0.1638 -0.3505  0.1670
21177W        W37311  11.931   1.262   4.979 -0.2228 -0.0148 -0.0043
21178W        W37312   9.696   8.337   2.676  0.2254 -0.0478 -0.0493
21179W        W37313  16.193  17.154   4.409  0.0412 -0.0658 -0.1908
21180W        W37314  15.505   7.958  10.479 -0.0875  0.2322 -0.0792
21181W        W37315  18.479   0.042  14.413  0.3111  0.0449  0.2882
21182W        W37316  12.198  15.267  11.742 -0.2161 -0.2280 -0.1021
21183W        W37317   4.377   1.006  12.885  0.0912  0.1874 -0.1367
21184W        W37318   4.747   0.842  11.773  0.3848 -0.0076  0.1128
21185W        W37319   1.421  10.031   1.886  0.2483 -0.2475 -0.2161
21186W        W37320  10.217   8.468   4.650 -0.1484 -0.1191  0.1581
21187W        W37321   3.454   7.003   1.325  0.0041  0.0506 -0.0736
21188W        W37322   6.152   5.611   4.655  0.1138 -0.1341 -0.3070
21189W        W37323   2.474   0.325  10.583  0.1286  0.0106 -0.1445
21190W        W37324   1.520   2.824  12.832  0.2411 -0.2035  0.0529
21191W        W37325   8.575  14.270  14.889  0.0216 -0.0729 -0.0889
21192W        W37326   2.817  17.503   4.412 -0.0899 -0.1281  0.1330
21193W        W37327   2.729  11.195   2.428  0.0460 -0.2215  0.0882
21194W        W37328  14.690  13.731  13.517  0.0335  0.0237 -0.1487
21195W        W37329  18.208  12.419  12.910  0.1631 -0.0846  0.3430
21196W        W37330   7.099   9.999  13.766 -0.2093 -0.0481 -0.0260
21197W        W37331  10.165   4.223   4.837 -0.0190  0.0590  0.0271
21198W        W37332  18.911  13.343   3.755 -0.0983 -0.0649  0.2466
21199W        W37333  17.317  17.276  14.903 -0.0976  0.1165  0.1612
21200W        W37334  12.519   2.010   0.838  0.1524 -0.0553  0.0229
21201W        W37335  18.395   7.185  14.783  0.2572 -0.0536 -0.2298
21202W        W37336  13.695   9.020   0.249  0.3267 -0.3263 -0.4087
21203W        W37337  13.785   9.420   4.762  0.1358  0.0878 -0.1045
21204W        W37338  11.972  12.973   5.575  0.2371 -0.1797 -0.1591
21205W        W37339   9.661  18.105   1.121  0.1596 -0.0281  0.4668
21206W        W37340  18.806   0.159  14.034  0.0484 -0.1257  0.2593
21207W        W37341  10.526  10.495  10.799  0.1767 -0.0167  0.0127
21208W        W37342   8.099  14.367   1.392  0.2111  0.1443  0.0415
21209W        W37343  18.767   2.762  13.355 -0.0234 -0.4849 -0.1721
21210W        W37344  16.829  11.026  10.588 -0.2330 -0.2241 -0.1304
21211W        W37345  17.553   0.663  14.735  0.0588 -0.2188  0.0186
21212W        W37346   9.710   7.519  12.282 -0.3936  0.1917 -0.1143
21213W        W37347   6.771  16.709  11.463  0.0171 -0.1315 -0.1301
21214W        W37348  13.729   6.404   4.377  0.0349 -0.2179 -0.1339
21215W        W37349   0.349  15.301  11.711 -0.1714  0.3336  0.0620
21216W        W37350   2.051  18.852   4.511  0.1215 -0.2189 -0.0698
21217W        W37351   0.140  14.534  12.851 -0.3892  0.3350  0.2252
21218W        W37352   6.743   7.767   3.947  0.1060 -0.1571 -0.1136
21219W        W37353  11.587   9.338   2.654  0.0204  0.1028  0.0326
21220W        W37354   2.344   6.346  13.573  0.0375  0.3349 -0.1843
21221W        W37355  10.037   9.929   2.376 -0.2234  0.1623 -0.3058
21222W        W37356  17.025  14.280   2.694  0.2118 -0.1059 -0.2897
21223W        W37357  17.420  11.331  11.324 -0.3101 -0.1231 -0.2834
21224W        W37358  18.724   4.261  12.555  0.1055 -0.0431  0.1631
21225W        W37359  17.151  11.693   0.762  0.2897 -0.0771  0.2370
21226W        W37360  13.506   6.659   0.967 -0.0262 -0.0787  0.2087
21227W        W37361   1.529   2.311   3.466 -0.1327  0.0347 -0.1416
21228W        W37362   2.138  18.474  13.190 -0.0344  0.1304 -0.2798
21229W        W37363  12.489  12.022  11.694 -0.0089  0.0293  0.0121
21230W        W37364   4.273  18.545  12.063  0.0184  0.1224 -0.1820
21231W        W37365   6.601   2.226   3.171 -0.1855 -0.0074 -0.1614
21232W        W37366  12.536   0.989  13.635 -0.0634 -0.2029  0.1844
21233W        W37367   0.703   5.645   4.999 -0.2940 -0.4404 -0.2704
21234W        W37368   6.851   6.947  12.375  0.0751  0.0792 -0.0590
21235W        W37369   7.383  11.373  10.765  0.0326  0.1478 -0.2115
21236W        W37370   7.711  12.770   2.301  0.0939  0.3600 -0.0348
21237W        W37371  13.970   6.210   2.100  0.0592 -0.0356 -0.0724
21238W        W37372   5.977   3.926  14.999  0.3027 -0.0262 -0.0982
21239W        W37373  15.732   4.974  11.273 -0.1350 -0.1025  0.1623
21240W        W37374  18.697   3.883   0.660  0.1737 -0.1316  0.1493
21241W        W37375   4.189   6.293  12.907  0.0763 -0.5285  0.0936
21242W        W37376  11.043  13.269   5.846  0.0663  0.3262 -0.0963
21243W        W37377   5.055  12.115   9.604  0.4491 -0.4017 -0.1826
21244W        W37378   6.571  15.549   0.739 -0.1020 -0.4122 -0.4255
21245W        W37379  13.334   4.339  13.657  0.2976 -0.2781 -0.1693
21246W        W37380  10.350  10.093   3.179  0.1558  0.3286  0.0154
21247W        W37381  14.856   1.702  10.504 -0.0342  0.1411  0.1765
21248W        W37382  12.482  12.325   0.077 -0.0805  0.3712  0.1412
21249W        W37383   5.228   2.867  13.417 -0.0962 -0.1766  0.2156
21250W        W37384  10.328  16.588  14.043 -0.0730  0.0082  0.2167
21251W        W37385  10.690  17.177  10.504 -0.0989  0.0322  0.3035
21252W        W37386  15.319  16.088  12.283  0.0607  0.0889  0.0653
21253W        W37387  12.863  17.780  14.896  0.3033 -0.0025 -0.2402
21254W        W37388   5.564  17.929  13.866  0.2454  0.0556 -0.2730
21255W        W37389   7.300  10.105  11.435  0.0338 -0.3071 -0.0889
21256W        W37390  11.963   9.331   0.786  0.0560 -0.2920 -0.0684
21257W        W37391  11.530  12.240   3.000  0.1691 -0.3849  0.0423
21258W        W37392  12.596   5.460  11.927 -0.0528  0.0730  0.1873
21259W        W37393  18.126  15.576  10.721 -0.0861  0.2641 -0.3923
21260W        W37394  13.333   2.399  14.119 -0.0121  0.2167 -0.0961
21261W        W37395   3.133  17.868   9.353 -0.0357 -0.1266 -0.0597
21262W        W37396   7.080   8.309   3.318 -0.4359  0.4187 -0.2375
21263W        W37397   5.433   6.169   2.210 -0.0679 -0.1754 -0.0409
21264W        W37398   6.455  18.414   1.340 -0.3349 -0.1856 -0.0233
21265W        W37399   4.258  11.741   3.163  0.2567  0.0383 -0.0375
21266W        W37400   0.231  15.757  11.597 -0.5674 -0.1220 -0.1428
21267W        W37401   0.846  15.966  14.718  0.1886 -0.0991 -0.1067
21268W        W37402   2.433  10.102  13.134  0.2396 -0.0854  0.1092
21269W        W37403   2.303  13.593  10.581 -0.0672  0.0250  0.2085
21270W        W37404   4.458   4.950   1.609 -0.2777 -0.1775 -0.5349
21271W        W37405   9.752  16.095  14.740 -0.1883  0.1714  0.0521
21272W        W37406  10.230  13.793  10.855 -0.0840  0.0870  0.2490
21273W        W37407   9.980  11.370  14.411 -0.1001  0.1153 -0.1805
21274W        W37408  18.642   0.973  14.472 -0.0194  0.0610 -0.1428
21275W        W37409  12.617  10.567   5.134  0.0528 -0.1391 -0.1160
21276W        W37410  12.554   7.751   0.373 -0.3659 -0.1537  0.0045
21277W        W37411   0.378   5.647  13.025  0.1434  0.0147 -0.4913
21278W        W37412   6.780   6.398   2.810  0.0602 -0.2559  0.1965
21279W        W37413  17.556  11.851   3.695 -0.0348 -0.1048 -0.1308
21280W        W37414   7.842   4.767  14.557 -0.1044 -0.1006 -0.0562
21281W        W37415   9.775  15.381   5.537 -0.1787  0.0581  0.1623
21282W        W37416   2.656   0.989   3.340  0.0292 -0.0895 -0.0173
21283W        W37417   2.056  15.363  14.551  0.0335  0.1429  0.0977
21284W        W37418   9.914   6.830  14.842  0.0750 -0.0079 -0.0221
21285W        W37419   0.495   0.882   2.440 -0.4070 -0.2381  0.1024
21286W        W37420  12.595   9.908  11.237 -0.2041  0.1500 -0.2392
21287W        W37421   3.078  11.453  14.471  0.0134  0.2182 -0.2823
21288W        W37422  11.201  12.568  14.723  0.2324  0.0696  0.1627
21289W        W37423   0.367  10.787  13.314 -0.4753 -0.5051 -0.2618
21290W        W37424  15.137  18.340  13.812 -0.0221 -0.1299 -0.0929
21291W        W37425  12.365   5.968   0.972 -0.0611  0.1574  0.1829
21292W        W37426   8.437   2.583  13.556 -0.1343  0.0985 -0.1577
21293W        W37427  11.816   0.631  14.167 -0.0754 -0.2807 -0.3317
21294W        W37428  12.200  17.381  12.624 -0.0032 -0.0961 -0.2667
21295W        W37429   7.435  12.554  14.699  0.1125 -0.0252 -0.1564
21296W        W37430   0.734   3.249   4.915 -0.1810 -0.1321 -0.2580
21297W        W37431   4.316   4.450   2.942  0.3831  0.0807  0.1599
21298W        W37432   6.183  15.113  15.028  0.1530  0.0621 -0.2337
21299W        W37433   8.555   8.724  14.868 -0.0833  0.1702 -0.1004
21300W        W37434   0.522  11.421   2.272  0.0825  0.4608  0.4154
21301W        W37435   6.003  11.256   1.529 -0.0787  0.0795  0.1272
21302W        W37436  15.693  16.108  13.419 -0.1234  0.0333  0.0766
21303W        W37437  15.654  11.194   1.652 -0.2190  0.0368 -0.0303
21304W        W37438   2.917   1.864   1.676 -0.1439  0.0876  0.0939
21305W        W37439   1.407   5.809   4.961  0.0036 -0.1024 -0.3165
21306W        W37440  12.315  12.023  13.366 -0.0287  0.0058  0.0009
21307W        W37441  12.984  11.468   2.725  0.0934 -0.2573 -0.1188
21308W        W37442  14.875   4.457  12.506 -0.2506 -0.1816 -0.1512
21309W        W37443  15.608  16.223   2.954 -0.1442  0.2076 -0.0742
21310W        W37444   4.571   3.676   0.825 -0.3607 -0.0493 -0.0943
21311W        W37445  11.505  15.628  14.321  0.0440 -0.4384 -0.1641
21312W        W37446   0.059  12.017  11.696 -0.2623  0.1427 -0.0768
21313W        W37447  13.733   7.784  11.244 -0.1569  0.0581 -0.2951
21314W        W37448  18.109  15.901   2.066 -0.4841  0.0718 -0.1819
21315W        W37449   2.027  11.056   4.152  0.1563  0.0972 -0.4886
21316W        W37450   5.853  18.751   5.031 -0.1533 -0.0733  0.0133
21317W        W37451  10.446  13.010   3.548 -0.2621 -0.0206 -0.2338
21318W        W37452   0.384  18.331  11.331 -0.1946 -0.3611 -0.2760
21319W        W37453  17.249  15.059   0.058 -0.1439  0.1969  0.0738
21320W        W37454   8.528  13.210   2.238  0.0061 -0.1971  0.0077
21321W        W37455  17.526  11.726   1.066  0.1488 -0.0349 -0.1446
21322W        W37456   2.401   5.302   2.471  0.2721  0.2541  0.5285
21323W        W37457  15.199   5.796   0.206  0.2474 -0.2126 -0.1622
21324W        W37458  17.116  12.815   0.022  0.0861  0.0091  0.1230
21325W        W37459   6.546   0.766   1.598  0.1050 -0.0215 -0.0129
21326W        W37460   2.798  18.021  13.700  0.0119  0.1570  0.1461
21327W        W37461   7.179   2.886  10.578 -0.0106 -0.1492 -0.0420
21328W        W37462   2.836   4.853  12.659  0.2067 -0.0132 -0.1938
21329W        W37463  12.142  16.254   2.491  0.3977  0.1510  0.0167
21330W        W37464   8.692   0.056  13.094  0.0724 -0.0084  0.0943
21331W        W37465   9.848   5.901  14.498 -0.0238  0.1042  0.2526
21332W        W37466  16.957  12.557   3.223 -0.0715 -0.1149 -0.0927
21333W        W37467  17.511  15.225   3.027 -0.0741  0.1124 -0.1774
21334W        W37468  12.215   0.574  10.820  0.2784  0.3391  0.0626
21335W        W37469   4.397  17.558  11.451 -0.2713 -0.0661  0.0173
21336W        W37470   5.876   3.190  12.004  0.1652 -0.1159  0.2618
21337W        W37471   5.240   1.170   1.754  0.2582  0.1583 -0.1463
21338W        W37472   8.389   8.754   4.033  0.1458 -0.2385 -0.0323
21339W        W37473   3.825  15.488   0.251 -0.0131  0.4011 -0.0236
21340W        W37474  10.654  13.475  10.719 -0.0663  0.2591  0.1195
21341W        W37475  15.468   8.873  14.956 -0.2143  0.3817 -0.0077
21342W        W37476  12.623   0.460  10.532  0.1036  0.1280  0.0114
21343W        W37477  18.113   8.863   4.402  0.4420  0.0760  0.4835
21344W        W37478   3.125   2.722   1.966 -0.0095 -0.0494  0.0246
21345W        W37479   6.063  10.277   1.898  0.0404  0.0139  0.0623
21346W        W37480   3.018  14.329  15.039  0.2653 -0.1662 -0.1450
21347W        W37481  15.380   6.896  13.753  0.2493 -0.0660 -0.0457
21348W        W37482  15.428   6.384   4.251 -0.2181 -0.0445 -0.1156
21349W        W37483  10.373   6.523  10.790  0.1250  0.3830  0.0419
21350W        W37484   7.876   8.786  10.141 -0.3993  0.0018  0.1915
21351W        W37485   9.120  17.270  13.952  0.3973  0.0928 -0.0433
21352W        W37486  18.690   0.171  11.722  0.0916  0.0093 -0.0534
21353W        W37487   7.399   0.829  13.372  0.1009 -0.0842  0.0158
21354W        W37488   8.090   8.100   0.776  0.0335  0.0767  0.3752
21355W        W37489  11.827  16.800   4.728  0.2082 -0.1305  0.1610
21356W        W37490   3.912  17.784   9.749 -0.0400 -0.1369 -0.0587
21357W        W37491   8.161  16.265  13.181  0.1692  0.0448  0.1839
21358W        W37492   1.449   5.343   1.694 -0.1543 -0.0720  0.0085
21359W        W37493   4.122   6.037   2.895 -0.0150  0.1454  0.3942
21360W        W37494  17.515   2.395   0.484  0.0649  0.2427 -0.1560
21361W        W37495   8.719  12.764   1.950 -0.3675  0.0391  0.0925
21362W        W37496   5.013   8.074  14.196  0.2459  0.4093  0.2083
21363W        W37497   6.968  13.752   3.771 -0.0661  0.0401 -0.1106
21364W        W37498  10.098   6.678   0.787  0.0357  0.1372 -0.0939
21365W        W37499   3.923   3.056  10.832 -0.1071 -0.4760 -0.1886
21366W        W37500   3.942  19.048   2.128  0.1938 -0.0554  0.2351
21367W        W37501  10.664  14.966  14.855 -0.0864 -0.2874 -0.3579
21368W        W37502  13.422   4.869  12.952  0.0423 -0.2214 -0.1113
21369W        W37503   4.257  14.729   0.550  0.2216  0.2164 -0.0452
21370W        W37504   2.052   2.248  14.175  0.0453  0.1151 -0.3125
21371W        W37505   9.360   1.868  10.258  0.0375 -0.2097  0.4370
21372W        W37506   7.546  11.082  14.603 -0.1293 -0.0286 -0.1984
21373W        W37507   6.880   3.014   4.284  0.1048  0.3180 -0.1048
21374W        W37508   0.895   3.207   4.238  0.1752 -0.2868 -0.0746
21375W        W37509   4.117   4.821   2.662 -0.0938 -0.0272 -0.2691
21376W        W37510   9.166   2.163  12.237  0.5080  0.0477  0.0272
21377W        W37511  17.959  16.824  10.841  0.1189  0.1902 -0.0416
21378W        W37512   3.719  15.920  13.260 -0.0247  0.1387 -0.2842
21379W        W37513   8.040   7.756   2.014 -0.1062  0.1523  0.3035
21380W        W37514   4.243  10.835   1.017  0.2307 -0.0336  0.2270
21381W        W37515  16.912  10.710  12.436 -0.0150  0.0507  0.0606
21382W        W37516   6.969  16.586   2.884  0.0883 -0.2901 -0.0569
21383W        W37517   0.719  14.920  11.976  0.0802  0.1134 -0.0008
21384W        W37518   4.270   6.758   2.300 -0.1254 -0.0995 -0.0097
21385W        W37519   5.107  15.771   4.832 -0.3251 -0.1070 -0.3218
21386W        W37520  17.827   2.496   4.635  0.1238  0.3307 -0.2440
21387W        W37521   9.390  14.983  14.072  0.0481  0.2352 -0.3448
21388W        W37522  16.621   3.481   3.626 -0.0206 -0.2803 -0.2834
21389W        W37523   2.032  10.908  11.321 -0.1363  0.1020  0.0801
21390W        W37524   8.507   0.457   3.886 -0.3139  0.2483  0.2119
21391W        W37525  12.293  12.081   3.796 -0.2257 -0.1404 -0.2179
21392W        W37526   4.670   6.628   4.809  0.1894  0.0995  0.0450
21393W        W37527  11.516   1.431   3.670 -0.1504 -0.1106 -0.2774
21394W        W37528  11.846  12.889  12.754 -0.0336  0.0502  0.1491
21395W        W37529   2.151  14.535  10.489 -0.1845  0.1515 -0.3513
21396W        W37530   0.917  13.976   1.005  0.0054 -0.0702 -0.0994
21397W        W37531   9.492   6.982   3.998 -0.0434  0.4388 -0.1441
21398W        W37532   7.424   6.046   1.917  0.1973  0.0683  0.3432
21399W        W37533  10.814   6.430  11.055 -0.0030  0.0726 -0.2778
21400W        W37534   6.196   8.040  10.692  0.3262  0.1454 -0.3931
21401W        W37535  13.450   0.288   4.331 -0.0027  0.2432  0.2241
21402W        W37536   9.886   1.523   0.538 -0.0786  0.4499 -0.0694
21403W        W37537  13.934  18.791   0.018  0.2277 -0.0423 -0.0735
21404W        W37538   9.207   1.738  12.669 -0.2358 -0.5145 -0.0124
21405W        W37539  14.822   1.975   0.632 -0.4288 -0.1560  0.3499
21406W        W37540   9.256   3.647   1.896 -0.4825  0.0574 -0.1977
21407W        W37541   6.501   7.326  12.391  0.2792 -0.1563  0.1395
21408W        W37542  13.808   0.589  11.030 -0.2678 -0.1523  0.3636
21409W        W37543   9.535  12.558  11.631 -0.2756 -0.1142 -0.0248
21410W        W37544  18.067  18.374  14.963  0.0053  0.2558  0.0657
21411W        W37545   2.902   6.748   4.104  0.1699 -0.0535 -0.0759
21412W        W37546  15.726  18.440   2.501  0.1266  0.1712  0.0075
21413W        W37547  11.713   2.002  13.085 -0.0667 -0.0026  0.1177
21414W        W37548  16.038   4.519   4.529 -0.2855 -0.2548 -0.0487
21415W        W37549  12.955   4.972  12.572  0.1402 -0.0814 -0.7660
21416W        W37550   7.537  14.393  12.501  0.0768 -0.0309  0.0756
21417W        W37551   5.140  18.286   3.004  0.0639  0.2108 -0.0532
21418W        W37552   9.965  11.810   3.037  0.1018 -0.0888 -0.0889
21419W        W37553  13.499  18.090  10.413 -0.1013 -0.4896  0.2753
21420W        W37554   0.652  15.214   3.618 -0.0007  0.2431  0.0252
21421W        W37555  18.668  13.854   3.887  0.3153  0.0152  0.2844
21422W        W37556   9.811   7.743   3.569 -0.0212 -0.1614  0.0133
21423W        W37557   4.871  11.189   9.408  0.1586 -0.0985 -0.0269
21424W        W37558  13.526   5.386   3.066 -0.2910 -0.1102  0.2158
21425W        W37559  15.612   6.191  10.673  0.0547 -0.0573  0.3555
21426W        W37560  14.397  12.739   1.905 -0.1478  0.0668 -0.1882
21427W        W37561  17.790  17.524  14.816 -0.0900  0.2432 -0.2494
21428W        W37562   9.096  15.161   1.285  0.2534 -0.0637 -0.0873
21429W        W37563   5.166   8.028  10.781  0.3980  0.0947  0.0749
21430W        W37564   0.527   0.213   3.514 -0.1260  0.4068  0.1020
21431W        W37565  12.784  15.929   0.600  0.1452  0.1738 -0.1619
21432W        W37566   9.236  15.403  13.682 -0.2183 -0.0169  0.1244
21433W        W37567  18.731   9.077  14.822 -0.1081 -0.0124 -0.0042
21434W        W37568  14.745   9.628   1.012  0.3316  0.1213  0.0356
21435W        W37569   3.422  18.882   2.923  0.4319 -0.5021  0.1507
21436W        W37570   9.489  16.255   1.641 -0.3014  0.0162  0.0707
21437W        W37571   0.860   0.103   0.533  0.4717 -0.1367  0.0602
21438W        W37572  12.798  16.720  10.700 -0.0584 -0.0661 -0.2298
21439W        W37573  17.940   8.259   3.266 -0.0510 -0.1015  0.2470
21440W        W37574   0.852   8.310   0.283 -0.3167  0.1847  0.0257
21441W        W37575   6.840   5.873   2.772  0.1387 -0.2259  0.0304
21442W        W37576  15.804   2.486  13.257 -0.2327  0.3008  0.1188
21443W        W37577  11.839  12.608  10.037 -0.1995 -0.2511  0.0235
21444W        W37578   1.188   8.739   2.619 -0.0990 -0.3476 -0.1185
21445W        W37579  16.325   9.837  10.678 -0.0570 -0.0355 -0.1121
21446W        W37580  17.475   6.001   0.020  0.0362 -0.1265  0.1407
21447W        W37581  16.428   3.871   0.405 -0.1002  0.0574  0.0228
21448W        W37582   4.818   2.579  10.963  0.2271 -0.1669  0.0503
21449W        W37583   7.363  17.938  11.917 -0.3593  0.0916 -0.0957
21450W        W37584  12.253  11.665   1.270  0.2606  0.0875 -0.0007
21451W        W37585  12.987   4.847  14.065 -0.3633 -0.1720  0.3795
21452W        W37586  14.596  19.208   0.395  0.1776 -0.4109  0.0552
21453W        W37587  16.114   1.451  10.425 -0.1449  0.2618  0.2963
21454W        W37588  17.828  11.354  13.200  0.1443 -0.4395  0.2286
21455W        W37589   9.458   2.352  14.645  0.1851 -0.0637  0.0296
21456W        W37590  11.061  16.578  10.286  0.1934  0.0903 -0.3178
21457W        W37591  12.445   1.580   2.360  0.1110  0.4080  0.0377
21458W        W37592   3.208   5.393   4.562 -0.4160  0.0005 -0.0782
21459W        W37593  16.251  15.424  13.068 -0.1493 -0.0510 -0.1428
21460W        W37594   6.945   9.251   2.880 -0.2624  0.1109  0.1003
21461W        W37595  17.472   9.057   5.139 -0.0657  0.4742  0.2547
21462W        W37596  11.868   4.409   5.226 -0.2860  0.1217  0.2144
21463W        W37597   1.364  12.374   4.043 -0.1769 -0.5460 -0.1244
21464W        W37598  13.408  16.084  14.475 -0.0016 -0.0061  0.1471
21465W        W37599   0.948  13.858  10.065  0.1071 -0.2282  0.0362
21466W        W37600   8.580   2.590  12.659  0.3746 -0.1719  0.0537
21467W        W37601  13.275  18.455  10.706 -0.2970 -0.0680  0.0398
21468W        W37602  18.156  12.763   0.789  0.3554 -0.1482 -0.2237
21469W        W37603  14.921   5.368  13.567  0.2582  0.1677  0.1160
21470W        W37604   4.012  17.646   4.920 -0.2981  0.2538  0.2111
21471W        W37605   3.424  15.486  12.490  0.0011 -0.1067  0.0008
21472W        W37606   2.862   0.467  11.256  0.1270 -0.1520  0.0583
21473W        W37607   9.518   0.227   0.798 -0.1858  0.0206 -0.3301
21474W        W37608   7.024   0.562   4.089 -0.1106  0.0415 -0.1123
21475W        W37609   1.419  16.671   3.309  0.0553  0.0922 -0.2367
21476W        W37610  16.169   0.807   1.296 -0.3721 -0.2507 -0.1457
21477W        W37611  12.881   7.798  10.079 -0.0381 -0.0568  0.0640
21478W        W37612  15.656   8.595   3.617  0.1694 -0.1102 -0.1709
21479W        W37613  13.136   2.978  13.089 -0.3478 -0.1730 -0.1346
21480W        W37614   3.936  18.691  13.556  0.1630  0.1687  0.0286
21481W        W37615  10.445   0.227  13.435 -0.0353  0.0366 -0.1194
21482W        W37616   8.512  11.574  11.897  0.0476  0.1720  0.0018
21483W        W37617   7.665  17.227  10.687  0.0216  0.1907  0.0576
21484W        W37618  13.362   8.793   2.659 -0.2603  0.0490  0.0275
21485W        W37619  18.317   5.923   0.606 -0.1468  0.3581  0.1276
21486W        W37620   8.197  10.919   3.788 -0.0571  0.0138  0.4130
21487W        W37621   0.534   1.029  14.570  0.0481 -0.0086  0.1166
21488W        W37622  15.326   1.567   5.267  0.3676  0.0347 -0.1093
21489W        W37623   4.152  18.614   3.578 -0.0094  0.4260 -0.0965
21490W        W37624   5.387   7.891   4.155 -0.4260 -0.0261  0.3365
21491W        W37625  16.394  12.055   4.580  0.2563  0.0993 -0.0319
21492W        W37626   5.231  16.831  13.466 -0.3955 -0.0776 -0.1721
21493W        W37627  15.719  18.898   2.750 -0.0199 -0.2854 -0.0044
21494W        W37628  18.127  14.550   1.203 -0.2692 -0.2077 -0.0847
21495W        W37629   7.340   0.280   3.141 -0.2182  0.2532  0.3347
21496W        W37630   0.296   7.630  10.795 -0.0138  0.0126 -0.1007
21497W        W37631   3.304   0.147  10.398 -0.1520  0.2708  0.0955
21498W        W37632  17.829  10.874  11.316  0.0026  0.1276  0.2823
21499W        W37633   0.284   5.541  12.041  0.0519 -0.2520 -0.2803
21500W        W37634   3.148  12.256  11.179  0.1613  0.0310 -0.2280
21501W        W37635   5.679  14.261  12.435 -0.0481  0.2066 -0.2257
21502W        W37636   2.438  11.982   4.407 -0.0519 -0.0295 -0.1613
21503W        W37637  10.239   9.555  13.965  0.0401 -0.1448  0.1145
21504W        W37638  13.947  15.153   5.693  0.5648  0.0707  0.0292
21505W        W37639   9.454   9.925   1.532 -0.0868  0.1521  0.5742
21506W        W37640  16.722  16.722  14.024 -0.2384  0.3507 -0.0364
21507W        W37641  17.518  12.173  11.126  0.4028  0.2972  0.1766
21508W        W37642  13.128   8.421  11.592 -0.0684  0.2183 -0.1156
21509W        W37643  16.445  16.545   1.213 -0.0465 -0.2933 -0.0886
21510W        W37644  14.828   1.147  11.199  0.0552  0.3728  0.2876
21511W        W37645   0.489   1.290   3.503  0.1361 -0.2113 -0.1194
21512W        W37646  13.462   2.121  13.627 -0.3693 -0.2241  0.0068
21513W        W37647   1.436  15.183   4.597 -0.3777 -0.0060  0.1206
21514W        W37648   6.648  15.217  12.803 -0.0580  0.2791 -0.1068
21515W        W37649  17.807  12.788  12.465  0.2157 -0.1282  0.0096
21516W        W37650   0.093   5.227  12.839  0.0240  0.1985 -0.1704
21517W        W37651  14.939   0.441  15.031 -0.1146 -0.2668  0.0090
21518W        W37652   4.628  17.835  13.871  0.2338 -0.0022  0.0608
21519W        W37653   4.097  18.564  12.547 -0.1466 -0.1296  0.0645
21520W        W37654  14.743  18.666   5.006  0.1291  0.0408  0.1281
21521W        W37655   2.372  13.063  14.336 -0.1255  0.3064  0.3042
21522W        W37656   0.384   1.675  13.085 -0.1742  0.2031 -0.2308
21523W        W37657   5.679  12.966  12.241 -0.0141  0.2045 -0.2017
21524W        W37658  12.453   9.565   0.918 -0.1469 -0.0804  0.2928
21525W        W37659   5.886  17.434   4.014 -0.0513 -0.0582 -0.1750
21526W        W37660   4.355  18.972  12.364  0.0337 -0.2892  0.3330
21527W        W37661  16.217  12.229  11.292  0.2821  0.0362  0.0543
21528W        W37662   1.288   1.315  12.871  0.1093  0.1455  0.1633
21529W        W37663  18.682  16.584  12.054 -0.3567 -0.3157 -0.0172
21530W        W37664   1.487  16.956  12.287  0.1475  0.1290  0.1334
21531W        W37665  19.231   1.548   9.640 -0.1965  0.1347 -0.0879
21532W        W37666  16.754  14.818  12.417  0.0329  0.1183 -0.2652
21533W        W37667  10.203   9.488  15.005  0.2211 -0.0949  0.1376
21534W        W37668   5.752  13.669  13.133 -0.0559 -0.3254  0.2893
21535W        W37669   2.359  17.054  14.805  0.0987 -0.0227 -0.5235
21536W        W37670  11.526  17.510  10.671  0.0125 -0.2152  0.1095
21537W        W37671   1.191   1.118  10.722 -0.2152 -0.4246 -0.2410
21538W        W37672   7.991   1.643   3.401 -0.4343  0.0744  0.0374
21539W        W37673   9.300   9.335   2.696 -0.2613  0.4793 -0.0035
21540W        W37674  18.603   2.546  10.394 -0.1143 -0.3735 -0.0915
21541W        W37675   4.688   5.640   4.733  0.1203  0.1622  0.0503
21542W        W37676   0.801  15.329   0.730 -0.1813 -0.0278 -0.3052
21543W        W37677   2.129  10.099   3.275 -0.0157 -0.0104 -0.3145
21544W        W37678   5.925  10.344   4.054  0.1154 -0.0747  0.0505
21545W        W37679   5.303   9.197   1.340 -0.1266 -0.5884 -0.1052
21546W        W37680  11.249  15.774   3.261 -0.2109  0.2195 -0.2902
21547W        W37681  13.263  15.463   0.302  0.2226  0.1097 -0.0312
21548W        W37682   2.591   2.589  12.894 -0.0123  0.1400 -0.2047
21549W        W37683  13.098   7.604   0.066  0.1995  0.2183  0.0266
21550W        W37684   7.674   0.612  14.293 -0.2642 -0.3491  0.2250
21551W        W37685   2.901   4.027  14.474  0.0603 -0.1090 -0.0651
21552W        W37686   6.645  18.193   4.201 -0.1925  0.2376  0.1897
21553W        W37687   1.872  17.865   2.774 -0.0268  0.0710  0.0786
21554W        W37688   4.053   9.583  11.310 -0.4657 -0.1011 -0.0462
21555W        W37689  12.322   0.957   4.850 -0.1756 -0.1159  0.3593
21556W        W37690  10.887  12.756  13.853 -0.1498 -0.4266 -0.0083
21557W        W37691   6.147  11.031   3.360 -0.0075  0.0336  0.0140
21558W        W37692  17.865   1.815  14.540  0.0338 -0.0934 -0.2410
21559W        W37693   9.424   0.184  13.029 -0.0496  0.2024  0.1475
21560W        W37694  10.578   9.830  14.212  0.1800 -0.0215  0.2873
21561W        W37695   7.438   3.238  10.340 -0.0750 -0.1778  0.0166
21562W        W37696   0.649   3.103  12.895 -0.0145 -0.1592 -0.0567
21563W        W37697  12.059  18.147   2.325 -0.0126  0.0731 -0.1511
21564W        W37698   2.434  15.950  11.782  0.0467  0.0831  0.0803
21565W        W37699   0.337  12.293   5.572 -0.2242  0.3470  0.0084
21566W        W37700   5.634  18.278   0.282  0.1748  0.1037 -0.2372
21567W        W37701   6.038   2.093  11.669  0.1875  0.2052  0.2113
21568W        W37702  14.740  13.647   2.323  0.1296  0.0771  0.1608
21569W        W37703   5.780  10.853   4.085  0.2266 -0.1170  0.3562
21570W        W37704   3.633   4.598   3.344  0.1159 -0.0825 -0.2069
21571W        W37705   4.731  11.692  10.495  0.0981  0.0936  0.0585
21572W        W37706  12.009  15.152   0.308 -0.0584 -0.0953  0.1619
21573W        W37707   5.058  14.460  12.042  0.1183 -0.0202  0.2636
21574W        W37708  18.360  14.860   2.737  0.1549 -0.1551 -0.1102
21575W        W37709  10.043   9.883  13.459  0.0033 -0.6158 -0.0852
21576W        W37710  14.106   4.890   4.911  0.1298  0.0018 -0.0099
21577W        W37711  15.259  17.281  13.507 -0.2976 -0.2800  0.1904
21578W        W37712   1.615  14.892   2.608  0.1080  0.1232 -0.3004
21579W        W37713   2.761  10.523   4.542  0.1170  0.0564  0.0445
21580W        W37714  14.198   5.778  14.190  0.1476 -0.0077  0.1229
21581W        W37715   8.393   8.084  14.193  0.1362  0.1741  0.0629
21582W        W37716   1.873   6.210   0.030  0.2494 -0.4243 -0.3500
21583W        W37717  18.338  10.193  10.807  0.3135  0.0103 -0.1514
21584W        W37718   7.833  15.286  13.838  0.0194  0.1656  0.0084
21585W        W37719   2.740  14.174   2.023  0.0057 -0.0590  0.1236
21586W        W37720  14.403   0.438   3.720 -0.1227  0.1606 -0.0035
21587W        W37721   4.110   1.335   4.260 -0.1571 -0.0649  0.1685
21588W        W37722  10.896   5.168  13.093  0.1392  0.0943 -0.1862
21589W        W37723  16.632  16.344   2.112  0.0670 -0.3148 -0.2428
21590W        W37724  15.613  16.462   2.205  0.0105  0.1145 -0.1284
21591W        W37725  14.048   9.633  11.045  0.3577  0.0312 -0.3798
21592W        W37726  10.816   9.087   4.813 -0.0635  0.2137  0.0837
21593W        W37727  18.801   7.850   3.722  0.1185 -0.0270 -0.0526
21594W        W37728  18.105  17.768   3.799 -0.2709  0.0840 -0.0639
21595W        W37729  10.679   9.587   9.371 -0.0711  0.2644  0.1088
21596W        W37730  13.366  12.921  14.251  0.1125  0.1439  0.0912
21597W        W37731   4.812   2.600  14.307 -0.1164  0.1202  0.2416
21598W        W37732   7.744  17.620   1.719 -0.0899  0.0658  0.3855
21599W        W37733  10.937   2.365  12.123 -0.2049 -0.1107  0.0172
21600W        W37734   7.636   8.595   0.512  0.0770 -0.1496 -0.1582
21601W        W37735  15.007  17.963  14.734 -0.1309 -0.0111  0.0644
21602W        W37736   7.595   4.419  14.940 -0.0510  0.0611  0.2650
21603W        W37737  13.332   9.040  14.010  0.0909 -0.2203  0.3197
21604W        W37738   5.999  19.161  11.727  0.2459  0.0046 -0.2341
21605W        W37739  17.587  10.348   2.788  0.1668 -0.1493  0.1442
21606W        W37740  16.679   3.499   4.744 -0.0115  0.1181  0.1194
21607W        W37741  11.965  16.537   2.009  0.1293 -0.1537  0.0624
21608W        W37742  16.550   9.692   0.018 -0.0842  0.2253  0.0550
21609W        W37743  10.547   2.700   0.391 -0.0211  0.2654  0.0279
21610W        W37744  12.154  16.795  14.836 -0.2119  0.3819  0.1092
21611W        W37745   2.995  18.573   3.711 -0.1542  0.3791 -0.1132
21612W        W37746   3.953  18.980  14.184 -0.0219 -0.2677 -0.1006
21613W        W37747  16.696   8.890  12.855  0.0658  0.1646  0.2114
21614W        W37748   0.294  19.109   6.169  0.3966  0.0756  0.4549
21615W        W37749  12.640  16.004  12.485  0.6046 -0.1389  0.2784
21616W        W37750   9.629  18.042  10.382 -0.2237 -0.0343 -0.0675
21617W        W37751   0.617  18.407  14.025  0.1787 -0.1181 -0.0698
21618W        W37752  13.712  16.371  12.466 -0.3233 -0.1692 -0.0830
21619W        W37753  12.422   4.572   1.453  0.1737  0.0027 -0.1467
21620W        W37754  11.879   5.227  11.547  0.1044  0.3348  0.2013
21621W        W37755  18.671   2.324   2.525 -0.0001 -0.0526 -0.0383
21622W        W37756  14.091   0.743   1.770  0.0797 -0.0827 -0.0109
21623W        W37757  10.515  18.212  11.386  0.3424 -0.1976  0.4802
21624W        W37758   8.262  14.182   1.950 -0.0280 -0.1885 -0.2799
21625W        W37759   3.841  17.415   3.691 -0.0101  0.0879  0.1593
21626W        W37760  14.038   3.453   2.144 -0.1528  0.0848  0.1900
21627W        W37761   0.343   7.070   9.592 -0.0034 -0.0373 -0.1509
21628W        W37762  17.295   9.317   0.008  0.2196  0.4514 -0.1217
21629W        W37763   4.879  10.604   5.213 -0.1363 -0.0449 -0.2620
21630W        W37764   8.928  14.528  14.036 -0.0141 -0.1581 -0.0482
21631W        W37765   3.157   0.648   3.531  0.1399 -0.2704  0.1864
21632W        W37766   3.038   7.234   1.485  0.0799  0.3696  0.0697
21633W        W37767   9.206  16.591  11.672  0.2918  0.0639 -0.0062
21634W        W37768  12.118   3.486   1.691 -0.0593  0.2986 -0.1225
21635W        W37769   4.130  17.401  14.379 -0.0683  0.0290 -0.0625
21636W        W37770   2.805  12.157   0.397 -0.1280  0.0500 -0.2344
21637W        W37771   9.813   1.751   1.141  0.0557 -0.1685 -0.3204
21638W        W37772  18.443  15.716   3.263 -0.1360  0.1150 -0.0311
21639W        W37773   5.164  17.205   9.241  0.2877  0.0011 -0.0561
21640W        W37774  14.681  12.851  12.905  0.3149  0.0266  0.1080
21641W        W37775   9.239   3.385   2.370  0.0725 -0.1040  0.0499
21642W        W37776  11.304   6.288  11.051 -0.3366  0.0731 -0.1041
21643W        W37777  18.616  12.489  12.570 -0.0399 -0.0965 -0.0825
21644W        W37778  12.131  19.054  10.193  0.1692 -0.1659  0.0456
21645W        W37779  11.008   8.107  13.800 -0.0725 -0.0776 -0.4571
21646W        W37780   6.322   7.561  13.942 -0.4462  0.2892  0.0990
21647W        W37781  15.265   9.876  10.617 -0.3053  0.1635 -0.0331
21648W        W37782   2.694  16.947  14.257  0.1013 -0.3912 -0.0738
21649W        W37783   1.535  18.877  11.197  0.1538  0.0090  0.2658
21650W        W37784  17.946   6.067  14.140  0.0058 -0.0002 -0.1763
21651W        W37785  12.284  11.406   1.735 -0.0593  0.0309  0.1426
21652W        W37786   3.522  16.781   5.003 -0.1248 -0.2254 -0.3111
21653W        W37787   4.005   2.141   3.817  0.2176 -0.0002 -0.2311
21654W        W37788   4.884   9.426   1.749 -0.0368 -0.2987 -0.1079
21655W        W37789   6.342  18.452   1.944  0.2890 -0.0062 -0.1638
21656W        W37790   0.196  13.602   5.654  0.3262  0.2109  0.0378
21657W        W37791  14.974   1.573   1.151  0.2286  0.0878 -0.2845
21658W        W37792   9.650   7.562  12.746  0.0946 -0.0361  0.0153
21659W        W37793   2.839   9.973  12.751  0.0437 -0.1566  0.0767
21660W        W37794  18.521   3.484  12.190 -0.2016  0.1361 -0.0819
21661W        W37795   3.629  16.640  12.519 -0.0326  0.2640 -0.0275
21662W        W37796  10.729  13.628  11.215 -0.1260  0.0506  0.0610
21663W        W37797  11.031  16.911   1.843 -0.3170  0.1188  0.2187
21664W        W37798  16.138   8.099   2.448 -0.3701 -0.0477  0.1414
21665W        W37799  18.293   2.536   2.262 -0.0104  0.0081  0.0253
21666W        W37800   1.983   4.965  12.419  0.3258  0.2812  0.0243
21667W        W37801  13.459  11.440  12.577 -0.0113 -0.0876 -0.1537
21668W        W37802   4.284   7.421   4.753 -0.2735 -0.4070 -0.2166
21669W        W37803  10.082   5.613   4.363  0.1151  0.0283 -0.0812
21670W        W37804  19.105  15.332   0.947  0.0905 -0.0022  0.0155
21671W        W37805   1.767   2.803  11.198  0.1977  0.3170 -0.2142
21672W        W37806   5.454  17.935   2.773  0.1236 -0.0086 -0.1928
21673W        W37807  10.736   5.391   1.832 -0.1109  0.0261  0.0175
21674W        W37808   6.311   6.902  11.462 -0.1299  0.0526 -0.3484
21675W        W37809  13.017   5.984   3.766 -0.0253 -0.1792  0.3594
21676W        W37810  11.084   3.290  13.805  0.2725  0.1305  0.2326
21677W        W37811  15.949  17.628  12.242 -0.2245  0.0222 -0.2605
21678W        W37812  11.263   6.368   3.414  0.0666  0.2193  0.1649
21679W        W37813   5.043  10.269  12.131 -0.3856  0.3475 -0.3101
21680W        W37814   3.216   0.278   0.761 -0.0570 -0.0852 -0.3847
21681W        W37815   6.420  18.097   3.682 -0.3049  0.0561  0.1323
21682W        W37816  18.404   9.272  13.387  0.2311  0.3499 -0.0071
21683W        W37817  11.835  10.895   4.832  0.1307 -0.0385 -0.0161
21684W        W37818  12.617   7.122   3.177 -0.0718 -0.1158  0.1021
21685W        W37819   4.545  11.223   0.789  0.0401  0.1066  0.1948
21686W        W37820   5.326  15.664   3.168 -0.0375 -0.3392 -0.3239
21687W        W37821  12.591  18.236  14.893 -0.5833  0.0956 -0.1073
21688W        W37822  10.900   1.828   2.508  0.0510  0.1976  0.0514
21689W        W37823  14.877  16.060  14.420 -0.1888  0.3055  0.2356
21690W        W37824  14.582  13.056   3.897  0.1011 -0.0360  0.0727
21691W        W37825   9.720  11.460   3.279 -0.1611  0.0061 -0.1405
21692W        W37826  10.404  10.890  13.780 -0.1560  0.0223 -0.0261
21693W        W37827  12.305   1.549   0.201 -0.0450  0.2153 -0.0011
21694W        W37828  14.772   6.146   0.250 -0.4079 -0.2866 -0.2374
21695W        W37829   0.811   2.243  13.569 -0.1586  0.0700 -0.0605
21696W        W37830   9.469   1.065  14.273  0.0623 -0.0161  0.3823
21697W        W37831  14.300   8.181   0.848 -0.4857 -0.0361 -0.1311
21698W        W37832  14.117  17.562   0.561 -0.0625  0.4434 -0.1558
21699W        W37833   1.596   0.967  13.769  0.0437  0.1085 -0.1503
21700W        W37834  15.442   4.341   1.341  0.0181  0.0639  0.1684
21701W        W37835   6.992   1.787  12.704  0.1791 -0.0259 -0.2622
21702W        W37836  12.848   0.065   0.864  0.1469 -0.0168  0.3687
21703W        W37837   5.971   7.354  12.234  0.0900 -0.1093  0.2856
21704W        W37838  11.267   2.915  12.713 -0.0317 -0.3716 -0.2399
21705W        W37839   3.596   3.556  11.032 -0.0205  0.0165  0.0426
21706W        W37840   6.394  14.036   4.924 -0.1767  0.0416  0.1729
21707W        W37841   3.523  16.156  11.304  0.0276  0.3554 -0.0919
21708W        W37842   6.147  12.918   5.102 -0.3697  0.0893 -0.0794
21709W        W37843  16.694   1.069   4.308 -0.2311  0.0278 -0.0697
21710W        W37844  13.614   0.566  13.636  0.2825  0.4719  0.0229
21711W        W37845  11.443   2.948  10.895 -0.0547  0.1401  0.4434
21712W        W37846  10.809   5.027   2.489 -0.0298  0.0426  0.1253
21713W        W37847  12.632  18.310  11.950 -0.0688 -0.0801  0.2275
21714W        W37848   6.807  16.484  13.062 -0.1176  0.0650  0.2822
21715W        W37849  12.660   1.763  12.695 -0.1455 -0.0214  0.1113
21716W        W37850   3.070   9.481  11.569  0.3811  0.1612 -0.0260
21717W        W37851  17.591   6.471   2.807  0.2088 -0.3188 -0.1535
21718W        W37852  14.730  13.768   0.580 -0.0101 -0.0530 -0.4059
21719W        W37853   0.271   1.949   4.852  0.1393 -0.3070  0.0274
21720W        W37854  12.431   1.007   0.332 -0.0698 -0.2192 -0.0956
21721W        W37855  10.328  17.238  14.525  0.2063  0.0938  0.2433
21722W        W37856  10.622   8.110   1.753  0.0509  0.1171 -0.0133
21723W        W37857   8.954   0.592  10.681 -0.1713  0.0960 -0.2311
21724W        W37858   1.295  13.066   1.956 -0.2640 -0.0130 -0.1618
21725W        W37859   1.108   5.794  14.727 -0.3256 -0.2393 -0.3941
21726W        W37860   5.409  15.043  14.966  0.3685 -0.0898  0.0178
21727W        W37861  12.395  11.305  11.318  0.0141 -0.2171  0.0428
21728W        W37862   4.188  13.257   2.262  0.1878 -0.1769  0.0041
21729W        W37863  14.826   3.077   1.462 -0.0888 -0.0421 -0.2282
21730W        W37864  18.676   1.021   5.098 -0.0425  0.1261 -0.0149
21731W        W37865  10.595   2.925  12.887  0.0350  0.5860 -0.1049
21732W        W37866  18.695  15.558  13.788 -0.1217  0.2070  0.0885
21733W        W37867   1.262   1.363   3.897  0.0216  0.1257 -0.1813
21734W        W37868  18.693   4.159  11.615  0.0297 -0.0164 -0.2079
21735W        W37869   9.131  15.863  10.615  0.2150  0.1534 -0.0965
21736W        W37870  12.389   5.703   3.784  0.1203 -0.1618 -0.2136
21737W        W37871   4.629   1.538   2.988  0.2728 -0.1067 -0.0095
21738W        W37872   6.275   5.022  14.299  0.1160  0.1677 -0.0569
21739W        W37873  14.375   1.287  11.628  0.0935 -0.0567 -0.0833
21740W        W37874  10.309   8.093   3.723 -0.0097  0.0962 -0.2003
21741W        W37875   9.149  15.551   3.928  0.1697  0.0235 -0.1989
21742W        W37876   1.639  13.416  12.031 -0.0261  0.0322 -0.2698
21743W        W37877   6.382  18.493  13.463  0.0196 -0.0675  0.0774
21744W        W37878   6.968   8.974   2.416  0.1564  0.1583 -0.5487
21745W        W37879  12.328   1.391  12.726  0.0794  0.3733 -0.4662
21746W        W37880   2.418   4.990  11.584  0.1109  0.1024 -0.1187
21747W        W37881   7.695   7.905  13.238  0.0334  0.2117 -0.1068
21748W        W37882  12.325  14.540  14.628  0.1601  0.1814 -0.3126
21749W        W37883   0.261   9.411   5.001 -0.0689 -0.6910 -0.3550
21750W        W37884  15.138   5.813   2.912  0.1329  0.1966  0.0975
21751W        W37885  17.267  11.008   3.827  0.1517 -0.3302  0.1074
21752W        W37886  13.628  17.449  11.666 -0.2376 -0.1503  0.0293
21753W        W37887  11.907   6.207  13.249  0.2071  0.2791 -0.2645
21754W        W37888   7.126  13.933   0.585 -0.0802  0.0147  0.1371
21755W        W37889   3.231   1.733  10.902  0.3274 -0.1709 -0.1602
21756W        W37890   7.615  15.189  11.175 -0.0826  0.0806  0.4930
21757W        W37891   0.850   9.730   0.191  0.1814  0.1167  0.0774
21758W        W37892   9.291   1.183   4.661 -0.2511 -0.0727 -0.1111
21759W        W37893   6.680   8.793   0.364  0.0632 -0.1489 -0.0061
21760W        W37894  11.511  13.805  10.767  0.3367  0.0075 -0.1242
21761W        W37895  17.538   2.424   3.587  0.0925 -0.0219  0.0488
21762W        W37896   6.383  18.315   3.215  0.0715 -0.2198  0.1234
21763W        W37897  18.804   4.178   1.128 -0.1053 -0.0942  0.1066
21764W        W37898   4.619  14.501  12.787  0.1487 -0.0366  0.0751
21765W        W37899   7.598  17.507  11.988 -0.2907 -0.0624  0.1852
21766W        W37900  12.653   4.265  14.958  0.1045  0.3402 -0.0533
21767W        W37901  17.929   9.601   2.889 -0.0645 -0.1137  0.4497
21768W        W37902   1.332  14.697  14.155 -0.3894  0.1551 -0.1915
21769W        W37903   2.346   8.312  12.941  0.4370 -0.0837 -0.1248
21770W        W37904  18.367   3.483   0.400 -0.2636  0.3512  0.0936
21771W        W37905  16.615  11.962  12.708 -0.3107  0.0796 -0.1600
21772W        W37906   9.439   2.225   3.214  0.2993  0.1261 -0.2774
21773W        W37907  16.738  18.480   2.426  0.1025 -0.1497  0.0036
21774W        W37908  10.405  12.549   4.703 -0.3809 -0.0066 -0.1376
21775W        W37909   8.289  14.100   4.191 -0.2621 -0.2298 -0.2813
21776W        W37910  10.817  15.067  13.692 -0.0424 -0.1683  0.0662
21777W        W37911   6.040  16.211   4.021 -0.0312  0.3244 -0.1704
21778W        W37912   6.413  17.420   2.807  0.0831 -0.0307  0.2282
21779W        W37913   6.094  11.173   3.907  0.0842 -0.3581 -0.1204
21780W        W37914  17.838   5.049   0.768  0.1602  0.0409  0.0139
21781W        W37915  18.865  16.476  13.527 -0.1016  0.0073  0.1938
21782W        W37916   4.761  14.828  11.271 -0.0700  0.0559  0.0304
21783W        W37917   5.264  10.251  13.444 -0.0745 -0.1534 -0.0137
21784W        W37918  12.316   4.026  11.044 -0.0959 -0.2039  0.0269
21785W        W37919  13.579  12.474   2.663  0.1010 -0.1699  0.0353
21786W        W37920  14.419   5.390   1.594  0.0678  0.1354  0.1359
21787W        W37921   0.272  11.266  11.703 -0.1603  0.1995  0.0409
21788W        W37922  16.671  19.047  13.495  0.1352 -0.1629  0.0487
21789W        W37923   7.935   0.882   0.867 -0.0673  0.0196  0.0527
21790W        W37924  15.695   6.736   2.189  0.1435  0.1775 -0.3273
21791W        W37925   1.377  17.540  14.730  0.3316 -0.0133 -0.3114
21792W        W37926  11.270  14.557  10.456  0.1669  0.0995 -0.1487
21793W        W37927  16.249   3.981  14.766 -0.0572  0.1470  0.1738
21794W        W37928   3.569   2.213   0.699 -0.0278 -0.1094 -0.2131
21795W        W37929   0.061  17.341  13.140 -0.1586  0.2651 -0.2807
21796W        W37930   4.523  18.934   5.481  0.4822 -0.2293  0.1644
21797W        W37931   4.025  16.392   4.181  0.1383  0.1930  0.0247
21798W        W37932   2.264  18.394   4.540 -0.1260  0.1270 -0.1982
21799W        W37933   9.802  10.811   1.938  0.0701 -0.1096  0.1923
21800W        W37934  14.030   5.032  11.709  0.2431  0.1091  0.0534
21801W        W37935   0.790  12.533   0.758  0.0535  0.2713 -0.1067
21802W        W37936  13.918   3.164  11.037  0.1186  0.4435 -0.0414
21803W        W37937   0.503  18.142   5.896  0.2473  0.1489 -0.2424
21804W        W37938   3.918  13.287   4.216 -0.2290  0.0160 -0.1248
21805W        W37939   4.858   7.742  11.926 -0.2455  0.4210 -0.1475
21806W        W37940   9.585  12.589   0.111 -0.0518  0.0310 -0.4467
21807W        W37941  12.159  13.071  13.281 -0.1416 -0.0962  0.2535
21808W        W37942   7.039   6.185  12.323  0.0228 -0.2509 -0.1881
21809W        W37943   6.389   7.638   1.142  0.0743 -0.2186 -0.1684
21810W        W37944  11.946   8.992   1.600 -0.4468 -0.0831  0.0183
21811W        W37945  18.251   6.436  13.939  0.4218  0.2792  0.1321
21812W        W37946   0.188   8.316   0.346  0.0183 -0.0568  0.0333
21813W        W37947  17.666   1.382   0.333 -0.0099 -0.0976  0.0366
21814W        W37948   0.509  16.997  11.216 -0.0788 -0.3539  0.1158
21815W        W37949   5.452  19.230   1.129  0.0727  0.2547 -0.3490
21816W        W37950  16.217  13.081   4.318 -0.0480 -0.3131 -0.1803
21817W        W37951   2.547  16.079  13.786 -0.0931 -0.2119 -0.1774
21818W        W37952  10.195  13.692  11.451 -0.2042 -0.0261  0.2278
21819W        W37953   0.695  10.620   4.457 -0.1943  0.3408  0.0047
21820W        W37954   6.378  11.604  12.383  0.0482 -0.3113 -0.5305
21821W        W37955   6.152   2.072  14.652 -0.2413 -0.1584 -0.1506
21822W        W37956  11.049  18.055   3.713  0.0223 -0.1649 -0.0315
21823W        W37957   6.745  16.643  14.615  0.0386  0.0400 -0.0803
21824W        W37958  13.582   2.098  12.163 -0.2066  0.0448 -0.2806
21825W        W37959   0.300   8.633   4.060 -0.0975  0.0110  0.0934
21826W        W37960   4.411  17.169   4.079  0.0041  0.2880  0.0172
21827W        W37961  12.009   2.785   0.838  0.3095  0.1827  0.1886
21828W        W37962   7.560  13.943   0.312 -0.2832  0.2232  0.2014
21829W        W37963  12.937   2.804   4.101  0.0063  0.0733 -0.2677
21830W        W37964  13.495   5.926   4.266 -0.1177  0.1737 -0.0174
21831W        W37965   0.579   7.765  12.553  0.0418  0.1446 -0.0868
21832W        W37966   2.064   9.971   2.819 -0.0630  0.0056 -0.2288
21833W        W37967   4.479   9.282   4.609 -0.0061 -0.0150 -0.0381
21834W        W37968   2.235  12.488  12.118  0.1167 -0.2434  0.0248
21835W        W37969  12.238  12.606  10.898  0.3057  0.0591  0.1624
21836W        W37970   9.395  13.969  12.813 -0.1779  0.2121 -0.0916
21837W        W37971   4.031  18.056  14.575 -0.0093  0.0206 -0.1115
21838W        W37972   3.684  18.468   3.849  0.1356 -0.0718  0.2368
21839W        W37973   2.732   1.539  13.401 -0.1034 -0.0367 -0.1689
21840W        W37974  10.165   3.499  12.743 -0.1790  0.0413 -0.1169
21841W        W37975   6.356   4.197  10.070 -0.1657  0.1825 -0.0656
21842W        W37976   6.855  17.179  11.125 -0.1196  0.2681  0.1185
21843W        W37977  10.659  16.474  14.408  0.0060 -0.0847 -0.1482
21844W        W37978   7.947  11.597  12.003 -0.1391 -0.1173  0.0253
21845W        W37979   7.458   2.805  10.986  0.1656 -0.3285  0.0224
21846W        W37980  11.553   6.337  14.480  0.0579  0.4279  0.1042
21847W        W37981   5.755  18.134   4.496 -0.1058  0.0433 -0.0303
21848W        W37982  12.835   5.535   3.573  0.2091  0.1128  0.2068
21849W        W37983   2.883  19.120  15.020  0.2145  0.4461 -0.1310
21850W        W37984  11.170   8.605  13.204  0.1062  0.0019  0.1241
21851W        W37985   0.155  13.020   4.642 -0.0532 -0.0936  0.1051
21852W        W37986   0.252   1.867   2.274  0.2929 -0.2790  0.0846
21853W        W37987  11.585  10.486  12.919 -0.2492 -0.0203 -0.1298
21854W        W37988  13.308  18.514   3.806  0.1919  0.1910 -0.0628
21855W        W37989   6.237  13.426  10.889  0.1907 -0.0439 -0.3931
21856W        W37990   2.091  14.999   5.160  0.1656  0.0569 -0.1764
21857W        W37991  12.267   4.278   0.277  0.3344 -0.0072  0.0326
21858W        W37992   4.698  15.997   5.027  0.2234 -0.0810  0.1593
21859W        W37993  19.135   6.152   9.989 -0.0369  0.0954  0.1927
21860W        W37994  12.005  17.207  14.637  0.0756  0.0422 -0.0356
21861W        W37995  14.311  10.328  11.301  0.1829 -0.0491 -0.4740
21862W        W37996  14.364   2.792   9.961  0.0157  0.0096  0.3479
21863W        W37997   4.520  12.434  13.154 -0.0964  0.1616  0.2576
21864W        W37998   4.051   5.278  12.852  0.2048  0.0516  0.1159
21865W        W37999  18.769  10.912   9.308  0.0117  0.0289 -0.1918
21866W        W38000   6.137   5.111   3.757  0.1851 -0.2127 -0.1405
21867W        W38001   4.552  18.207  12.876 -0.0187  0.1052 -0.1439
21868W        W38002  16.456  17.750   0.525 -0.3329  0.2014  0.2706
21869W        W38003  17.475  18.100   2.798 -0.3681  0.1079  0.2283
21870W        W38004  14.922  17.950  11.515  0.0450  0.2827  0.1067
21871W        W38005   7.849  13.274   1.915 -0.0071 -0.7666 -0.3174
21872W        W38006   0.337  16.065  14.933 -0.0946 -0.2981  0.0231
21873W        W38007  12.152   8.437  13.379 -0.0793 -0.0254  0.0350
21874W        W38008  10.302   0.947   1.905 -0.1417 -0.0378  0.4886
21875W        W38009  17.537  18.179   1.828 -0.2793 -0.1327 -0.0471
21876W        W38010   1.606  16.230   2.100  0.2117  0.3186 -0.0781
21877W        W38011  13.076   4.830   5.632  0.0645 -0.1148  0.0776
21878W        W38012  11.877   8.089  11.587 -0.2725 -0.1274  0.0978
21879W        W38013   3.671  12.273  10.956 -0.0078  0.2067 -0.1332
21880W        W38014   0.635   7.858   0.263  0.0550 -0.0612  0.1398
21881W        W38015   3.576  17.155   2.187 -0.0059  0.1107  0.2010
21882W        W38016   6.880   3.452   3.396  0.0025  0.1703  0.2027
21883W        W38017  13.725   0.327  12.744 -0.0298  0.3778 -0.2140
21884W        W38018  13.256   8.184   1.874  0.0382 -0.2282 -0.2338
21885W        W38019  13.982  15.797   3.378 -0.3101  0.0926 -0.2553
21886W        W38020  14.167  13.544   1.615 -0.0340 -0.1042 -0.0233
21887W        W38021  15.483   4.797  11.713 -0.0547 -0.2511  0.1525
21888W        W38022   5.625   0.291   3.480 -0.0096 -0.0869 -0.1750
21889W        W38023  13.741   4.324  10.849  0.1347  0.1592 -0.2760
21890W        W38024   7.380  17.705   0.118 -0.2010 -0.1121 -0.0449
21891W        W38025  11.897  10.926   4.273  0.0375 -0.0669  0.0521
21892W        W38026  17.979  17.951   1.996  0.1652 -0.0738  0.1324
21893W        W38027   3.292   3.252  14.897  0.3956  0.0564  0.2189
21894W        W38028  12.307  10.324   3.531 -0.0158  0.0750 -0.1961
21895W        W38029   0.248  16.121  13.598 -0.1309  0.1037  0.1636
21896W        W38030   2.935   3.217   2.808  0.1206  0.2107 -0.0581
21897W        W38031  15.932  11.881  11.689  0.2304  0.0353  0.0797
21898W        W38032  13.188   1.773  12.877  0.0943 -0.2573 -0.2159
21899W        W38033  10.200   4.295   3.089  0.1848 -0.2153 -0.2688
21900W        W38034   0.733  15.290  14.782  0.2090  0.1364 -0.3562
21901W        W38035   2.276   6.485  11.274  0.0669  0.1725 -0.0658
21902W        W38036  12.119   1.171   2.557 -0.3794  0.0087 -0.1463
21903W        W38037   5.291  14.560   0.021 -0.1656 -0.3760 -0.4096
21904W        W38038   7.779   7.385   2.792  0.1769 -0.0959 -0.0040
21905W        W38039  15.246   2.144   9.977  0.0689  0.0505 -0.0775
21906W        W38040   1.755   8.082   2.756 -0.0115 -0.1051  0.0203
21907W        W38041  11.354   8.580   2.154 -0.1724 -0.2910 -0.2506
21908W        W38042   9.813  12.586   1.226  0.1669  0.1711 -0.0580
21909W        W38043   3.421   5.001  11.297 -0.2941  0.1460 -0.0564
21910W        W38044   7.256  15.450  13.904 -0.1459 -0.0713 -0.2894
21911W        W38045  14.109  15.535  12.200  0.3899  0.1027  0.2265
21912W        W38046  15.337  11.478   1.860  0.0469  0.2966  0.1748
21913W        W38047   3.829   0.699  13.592 -0.1907  0.1159 -0.3795
21914W        W38048  19.120  15.419   4.565 -0.1520  0.3382  0.0350
21915W        W38049  13.125  12.182  11.963 -0.0482 -0.3205 -0.3195
21916W        W38050  10.187   3.398  10.484  0.0204  0.0065  0.1527
21917W        W38051   2.440   3.050   4.371 -0.0737  0.4251  0.1049
21918W        W38052   6.601   7.289  10.303 -0.0694 -0.0315  0.0017
21919W        W38053  16.278  19.126  10.751  0.1745 -0.0193  0.0226
21920W        W38054  14.719   8.234  14.958  0.2841  0.0262 -0.2403
21921W        W38055   2.012   2.477  11.482  0.4141 -0.0186  0.0561
21922W        W38056  14.569  11.003  10.569 -0.1445  0.0819  0.0787
21923W        W38057   3.573   1.429  14.031  0.1766 -0.1177 -0.2251
21924W        W38058  11.810   7.846  14.640  0.1642  0.0525 -0.1364
21925W        W38059   3.243  14.635   1.386  0.4806 -0.1325 -0.1385
21926W        W38060  12.458  15.261  14.657 -0.1960  0.0914  0.1994
21927W        W38061   3.264  14.132   3.454 -0.3118 -0.1126  0.2187
21928W        W38062  17.395  13.406  14.383 -0.1530 -0.1799  0.1357
21929W        W38063   9.847  15.869   9.833 -0.0513 -0.1201 -0.1767
21930W        W38064   8.869   3.905   3.009  0.1052 -0.2480  0.2897
21931W        W38065  14.759   9.719  12.635  0.2048  0.1414 -0.2563
21932W        W38066  18.658   1.789   2.634  0.0978 -0.0373  0.0527
21933W        W38067  10.586   6.763  13.460  0.2166 -0.0844 -0.0356
21934W        W38068  16.259   7.953  13.552  0.1136  0.1880 -0.0805
21935W        W38069   0.607   1.986  12.787  0.3036  0.0393 -0.2032
21936W        W38070   9.208  11.439   3.295  0.1136 -0.1023  0.0370
21937W        W38071  12.983   0.903  14.827  0.4018  0.0613 -0.2819
21938W        W38072   6.264  10.124   3.730 -0.3710  0.2006 -0.0372
21939W        W38073  11.846  13.862  11.172 -0.1852 -0.1753  0.3137
21940W        W38074   5.540   0.874   1.496 -0.4280  0.2277 -0.2148
21941W        W38075  15.768   9.320   2.001  0.1676 -0.2561  0.1841
21942W        W38076   1.507   2.303  14.291  0.2888 -0.2564 -0.0419
21943W        W38077  18.045  17.100   4.949  0.0549  0.1431 -0.0611
21944W        W38078   1.231  18.848   5.034  0.0862 -0.0141 -0.2030
21945W        W38079  15.299   5.027   4.308  0.1158 -0.1884  0.0779
21946W        W38080   6.575  15.924   0.280 -0.2665  0.2045  0.2062
21947W        W38081  19.104  15.920   1.310  0.0583 -0.0861 -0.0355
21948W        W38082  17.891   0.343   1.721 -0.5430  0.2500  0.1738
21949W        W38083   9.355   4.403  13.537  0.0972 -0.1577 -0.1412
21950W        W38084   7.328   1.099   2.561  0.1533  0.2397  0.0336
21951W        W38085  19.011  16.272  14.008 -0.0064 -0.1543 -0.1996
21952W        W38086   5.057   9.736   3.843 -0.3962 -0.2694  0.2295
21953W        W38087  18.909  11.410   3.725  0.0989 -0.1304  0.0088
21954W        W38088   6.090   6.782   2.275  0.0696  0.2542 -0.0089
21955W        W38089   1.104  14.070  12.684  0.0739  0.0591  0.1961
21956W        W38090  10.437   9.310   1.396 -0.0425  0.0674 -0.1525
21957W        W38091   7.747  17.198  12.358  0.0825  0.0085  0.0243
21958W        W38092  17.043  18.059  13.707 -0.0931  0.0035  0.3075
21959W        W38093   0.118   2.994   2.160  0.1221  0.1267  0.0827
21960W        W38094  11.025  14.075   3.849 -0.1764  0.1099 -0.0707
21961W        W38095  14.491   2.412   1.933 -0.0899  0.1398  0.0750
21962W        W38096   6.165  17.402   0.082 -0.1323 -0.0926  0.3313
21963W        W38097   5.304  14.769   4.794  0.1083 -0.0587 -0.1406
21964W        W38098   8.000  11.819   4.758 -0.1779  0.0576 -0.2966
21965W        W38099  16.794  16.891   0.961  0.1810  0.4497  0.1075
21966W        W38100  10.853  14.999   3.295 -0.1466  0.1864  0.0854
21967W        W38101   1.885   3.976  12.537  0.0280  0.2766 -0.3401
21968W        W38102  16.923  10.643  11.947 -0.0155 -0.4452  0.0065
21969W        W38103  12.194   7.969   4.872 -0.2293 -0.2869 -0.1728
21970W        W38104  18.919   5.244  11.353  0.0521  0.3217 -0.0168
21971W        W38105  12.872  18.010  10.488 -0.1084 -0.3384 -0.0693
21972W        W38106  11.985  16.332  14.516 -0.1042  0.5553 -0.1518
21973W        W38107  15.893   8.259   1.110 -0.2282 -0.2214  0.0807
21974W        W38108   1.839   5.544  12.861  0.1714  0.2382  0.2253
21975W        W38109  18.334   8.092   2.836 -0.2591 -0.0680  0.0385
21976W        W38110  13.819   8.006  13.064 -0.0484 -0.1386  0.1263
21977W        W38111   3.892  12.522   2.699  0.3296  0.4407  0.0085
21978W        W38112  14.538  18.994   1.285 -0.1289  0.1295  0.7612
21979W        W38113   7.799  18.570   5.265  0.2974 -0.1972  0.0721
21980W        W38114   8.470   3.429  14.634 -0.2105  0.2743  0.1564
21981W        W38115  10.457  14.620   2.082 -0.2516 -0.3561  0.1740
21982W        W38116   5.624   6.767   0.211 -0.1022 -0.1464  0.2159
21983W        W38117   4.441   3.038  13.366  0.2059  0.0974 -0.0864
21984W        W38118   6.800  15.942   2.664  0.1005  0.1040  0.1010
21985W        W38119   5.959   2.531   4.290 -0.1085  0.1824 -0.0755
21986W        W38120   4.682   7.227   1.141 -0.2757 -0.2353 -0.1358
21987W        W38121   6.338   1.233  13.944 -0.2517  0.1130 -0.1974
21988W        W38122  13.458  16.532   2.222  0.3662 -0.2285 -0.2476
21989W        W38123  15.571   9.631  12.911 -0.0523 -0.0212 -0.2647
21990W        W38124   2.680  12.717  10.575  0.0107 -0.0726  0.2580
21991W        W38125   4.446   0.649  11.271 -0.0406  0.1696  0.0332
21992W        W38126   1.288  13.473   3.794  0.0429 -0.0832  0.0908
21993W        W38127  15.429  19.062   0.985 -0.1234  0.2848  0.1483
21994W        W38128  18.938   9.399   2.621 -0.5225  0.0561  0.0134
21995W        W38129  18.058   3.814   4.111  0.0571 -0.0128 -0.1009
21996W        W38130  12.325  16.105  14.094 -0.1744  0.1360  0.1522
21997W        W38131  15.416   1.546   4.773 -0.1792  0.1078  0.2650
21998W        W38132  10.431  11.112   0.039 -0.0350 -0.1103  0.4039
21999W        W38133  10.360  16.676  10.178  0.2880  0.2223  0.2214
22000W        W38134  16.893   0.186   2.832  0.3334 -0.1337  0.2009
22001W        W38135  18.031   6.295   0.486  0.1738 -0.2164 -0.2406
22002W        W38136   3.112  10.801   0.178  0.2560 -0.1287  0.0018
22003W        W38137   4.534   8.283   3.683  0.0051 -0.0618  0.1982
22004W        W38138  13.067   9.954  13.026  0.1832  0.0202  0.0249
22005W        W38139   7.945   4.351  13.049 -0.2965 -0.1231 -0.2679
22006W        W38140   5.309  18.762   9.020  0.0772  0.1380  0.1039
22007W        W38141   6.752  10.184  11.150  0.0489  0.0916  0.0452
22008W        W38142  12.009  18.374  10.753  0.0769 -0.0651  0.2462
22009W        W38143  18.904  13.563   1.243  0.0099  0.2480 -0.3339
22010W        W38144   3.563  13.592   0.088  0.2070 -0.1631 -0.1227
22011W        W38145   0.456  14.528  11.030 -0.0342  0.0108  0.0584
22012W        W38146  16.153   9.267   0.652 -0.1864 -0.0885 -0.0381
22013W        W38147   0.613  10.357   3.923 -0.1425 -0.0995  0.1273
22014W        W38148   8.664   6.544  11.902  0.1784 -0.1640  0.1817
22015W        W38149   4.564   2.022  12.611 -0.0781 -0.2903  0.2029
22016W        W38150  17.262   5.934  13.525 -0.2107 -0.0273  0.2827
22017W        W38151  19.021  12.164  14.330 -0.1964 -0.2964  0.3466
22018W        W38152   6.260  17.359  14.211  0.1125 -0.2358 -0.1644
22019W        W38153   0.569  13.275   4.690 -0.2251 -0.3653  0.1360
22020W        W38154  11.063   9.561  13.404  0.5374  0.0851  0.2216
22021W        W38155  10.163   7.897   4.153  0.1000  0.4671 -0.1899
22022W        W38156   5.452   1.684   0.360  0.1315  0.2125  0.3183
22023W        W38157   0.201  12.664  14.991 -0.0113  0.2253 -0.4797
22024W        W38158  10.312   0.398   0.466  0.0709 -0.0913  0.2337
22025W        W38159   4.411   7.644   2.197  0.1579 -0.0204  0.0367
22026W        W38160   9.875   8.100  10.697 -0.0585 -0.2634  0.0677
22027W        W38161   8.238   9.506   2.441  0.0702 -0.0034  0.0967
22028W        W38162   8.444  11.694  14.945 -0.0312  0.0439 -0.0321
22029W        W38163   5.238  14.327  13.987  0.2729  0.0893  0.2742
22030W        W38164   4.083  18.588   4.615  0.3234 -0.0095 -0.2550
22031W        W38165   2.556  10.394  12.563  0.0777 -0.0665  0.0097
22032W        W38166   7.460  17.090   3.939 -0.2405  0.2240 -0.1829
22033W        W38167   0.742  16.283   0.202 -0.1752 -0.1815  0.2474
22034W        W38168  11.834  15.858   2.552 -0.1349  0.3445 -0.0837
22035W        W38169   0.184   9.537  13.059 -0.0013  0.0513 -0.0810
22036W        W38170   6.918   9.021   1.197 -0.0844  0.2236  0.3609
22037W        W38171   2.257   6.322   0.341  0.5257  0.0633 -0.0747
22038W        W38172  15.673   2.456   4.371 -0.0532 -0.5569 -0.2846
22039W        W38173  13.845  18.561   9.774  0.0613  0.2370 -0.0254
22040W        W38174  15.080   2.473   0.211  0.1682  0.1259  0.1205
22041W        W38175   6.898  12.220  10.817  0.0287 -0.0181 -0.0994
22042W        W38176  13.198   5.471   0.775 -0.1184 -0.0213  0.1069
22043W        W38177   5.164   4.911   4.773  0.0658 -0.1186 -0.1976
22044W        W38178   5.958   6.386   1.972  0.1944  0.0143  0.1787
22045W        W38179  18.515  12.887  14.779  0.1249 -0.2620 -0.0782
22046W        W38180  10.658   5.672  12.161 -0.1951  0.1774  0.0282
22047W        W38181  11.904  12.908   3.662  0.1676 -0.0592 -0.0314
22048W        W38182   2.515  18.072  14.940 -0.0884  0.1139  0.1743
22049W        W38183  18.357   3.003  13.618 -0.4525  0.1550 -0.0221
22050W        W38184   3.138   6.158   4.335 -0.1771  0.3229 -0.0174
22051W        W38185   0.861  16.773  11.972  0.3761 -0.3853 -0.1130
22052W        W38186   2.891  18.993  13.539 -0.0187  0.0696  0.1770
22053W        W38187   9.486   0.022   9.534  0.1596 -0.0551 -0.0022
22054W        W38188  10.481  13.634   0.212  0.0376  0.1666  0.0350
22055W        W38189   6.430  13.837  13.782  0.0753  0.0357 -0.1528
22056W        W38190   5.989  18.605  11.680 -0.1537  0.0019 -0.0841
22057W        W38191  14.736   5.227  10.889 -0.0589 -0.1991 -0.4084
22058W        W38192  17.503   5.860  12.388  0.0768 -0.2899 -0.2498
22059W        W38193  11.173   5.106  10.090  0.0795 -0.1215  0.1959
22060W        W38194  14.960  13.447  11.526 -0.2810  0.1378 -0.3737
22061W        W38195  11.478   4.542  14.160 -0.3692 -0.0962 -0.1551
22062W        W38196  17.973   7.762   3.653  0.2979  0.0307  0.2907
22063W        W38197  13.217   3.042  12.599  0.0140 -0.1288 -0.2146
22064W        W38198  15.963  17.290  12.590 -0.2129 -0.4576  0.1878
22065W        W38199  13.097   8.962   0.335 -0.1258  0.0673 -0.1995
22066W        W38200   6.885   7.013  11.257  0.0715  0.2042  0.1183
22067W        W38201   8.771   1.271  13.402  0.0272  0.2322 -0.3264
22068W        W38202  14.726  17.511   1.236 -0.1580  0.2434  0.0931
22069W        W38203  18.605  12.026  12.317 -0.1273 -0.0510 -0.0258
22070W        W38204   4.868  18.078   3.947 -0.0798 -0.0188 -0.0281
22071W        W38205   6.845   7.735   2.535  0.2797  0.3950 -0.0392
22072W        W38206   0.862   1.107   1.152 -0.0564 -0.0132  0.4721
22073W        W38207   7.653  13.538  10.792 -0.0449  0.0689  0.1855
22074W        W38208  14.913   1.923   2.848  0.0806  0.1071 -0.1256
22075W        W38209  16.840  17.802  13.353  0.2052 -0.0922  0.0882
22076W        W38210   5.464   7.296   0.855  0.0271  0.1682 -0.4114
22077W        W38211  17.649   4.108   3.841 -0.2999 -0.0888 -0.2772
22078W        W38212   9.965   2.738  11.166 -0.0995  0.3821  0.0388
22079W        W38213   4.935   0.549  11.106 -0.1034 -0.1089  0.1499
22080W        W38214  12.649  12.981  13.188 -0.1514 -0.2517  0.3505
22081W        W38215   8.803   9.339  13.353  0.0282 -0.1161 -0.2483
22082W        W38216   8.195   2.115   3.311  0.1838  0.1042 -0.2236
22083W        W38217  13.216  13.591  10.781 -0.2347 -0.4565  0.1520
22084W        W38218   3.154   9.563   9.433 -0.0254  0.1382 -0.0662
22085W        W38219   9.995   2.586   1.631 -0.0251 -0.2502 -0.0439
22086W        W38220   0.808   1.624   4.878 -0.1140  0.0855 -0.0813
22087W        W38221   0.810  14.655   4.039  0.0907  0.2741 -0.2374
22088W        W38222  15.352  10.531   0.843 -0.1332 -0.0052 -0.0458
22089W        W38223  10.594  17.005   4.199 -0.0434 -0.0570 -0.2608
22090W        W38224  18.892   1.389   1.993 -0.2802 -0.1446 -0.4085
22091W        W38225   1.454  14.651  11.089  0.2946  0.1462  0.0265
22092W        W38226  17.513   1.290   2.491  0.2990 -0.0207 -0.1807
22093W        W38227   8.888   2.751  13.911  0.0716 -0.1375 -0.0666
22094W        W38228   7.838   2.688   1.933 -0.1010  0.3505 -0.0249
22095W        W38229   1.802  12.224  11.424 -0.1678  0.1204  0.4193
22096W        W38230   6.555   9.151  12.107 -0.6240 -0.1055  0.3719
22097W        W38231   7.662   5.252   3.609  0.0551 -0.1607 -0.1596
22098W        W38232   5.177  16.045   4.422 -0.1475 -0.2335  0.0361
22099W        W38233   8.976   5.474   0.866 -0.4577 -0.2284 -0.2174
22100W        W38234   5.716   8.487   3.113 -0.0324  0.3265 -0.2322
22101W        W38235  14.177   9.073   0.587 -0.0048  0.0408  0.2098
22102W        W38236   2.358   3.804   1.122  0.1344  0.1196  0.0032
22103W        W38237   8.229  14.008  12.167  0.0090 -0.4029 -0.1406
22104W        W38238  12.444  12.829   0.118  0.1302  0.3425 -0.1634
22105W        W38239  12.538   2.567  10.582  0.1209  0.1258  0.5490
22106W        W38240  17.600   6.097  11.486  0.3912 -0.1202  0.1048
22107W        W38241   5.538   2.847   4.152 -0.0384 -0.1859  0.2528
22108W        W38242   2.274   3.663  13.428  0.0934  0.1235  0.0048
22109W        W38243   7.798   1.586  14.375 -0.2372  0.3010  0.1507
22110W        W38244  19.028  10.036  12.941  0.1998  0.0034  0.3281
22111W        W38245  12.449   9.857  13.752  0.4292 -0.2179  0.1485
22112W        W38246  11.931  10.496   4.506 -0.3030 -0.2085 -0.1808
22113W        W38247  14.840   6.197   3.952 -0.0763  0.0142 -0.1516
22114W        W38248  17.099  17.849   2.477 -0.2208 -0.1885  0.3654
22115W        W38249   5.924  14.380  13.302 -0.0228 -0.1374  0.0429
22116W        W38250  13.047  14.193   3.129  0.1918 -0.0799  0.1087
22117W        W38251  18.737  15.449  11.117 -0.1592  0.1642 -0.0319
22118W        W38252  16.649   5.128   9.302 -0.1010  0.0467 -0.2960
22119W        W38253   8.419  13.599   2.618 -0.0209 -0.1362 -0.2797
22120W        W38254   3.655   8.899  10.581  0.3088  0.5558  0.1262
22121W        W38255   2.337   0.749   1.079  0.1868 -0.0108  0.1866
22122W        W38256  16.466   1.440  14.263 -0.0921 -0.0665  0.1760
22123W        W38257   9.416   5.751   0.902 -0.1700 -0.0632 -0.0790
22124W        W38258   1.142   3.878  13.198 -0.0156 -0.2112 -0.2288
22125W        W38259  13.202   4.349  11.798 -0.2480  0.1341  0.2353
22126W        W38260   3.367  18.456  14.781 -0.0527  0.0259  0.1788
22127W        W38261  13.676   0.503   2.075 -0.2864  0.0881  0.0942
22128W        W38262  13.469  15.837   3.632 -0.1920  0.0941 -0.1336
22129W        W38263  12.797  12.788  14.367 -0.0778  0.3148 -0.2296
22130W        W38264  12.581   3.006   4.677  0.1584  0.1775 -0.0550
22131W        W38265  16.797   9.149   4.223  0.0300  0.2510 -0.1343
22132W        W38266  17.746   6.565  14.942  0.4265 -0.1099  0.2993
22133W        W38267   5.433  14.529   2.486  0.0509  0.0537 -0.2292
22134W        W38268  10.110   4.864   4.919 -0.2250  0.3386  0.0857
22135W        W38269   4.104   5.722  14.254  0.1950 -0.0600  0.0795
22136W        W38270  10.905  11.335   5.466  0.1566 -0.0476 -0.1890
22137W        W38271   4.634  17.712   4.243 -0.0836 -0.1204 -0.2127
22138W        W38272  18.101   4.052   5.096 -0.1563  0.1220 -0.0513
22139W        W38273   6.038  16.876   4.123  0.0505  0.0173  0.0351
22140W        W38274   7.518   6.590   3.298 -0.0867  0.1659  0.1289
22141W        W38275   2.573   6.816  13.221 -0.1063  0.4258  0.1014
22142W        W38276  17.118  15.556  12.203 -0.1517 -0.0831  0.1987
22143W        W38277  17.798  12.071   4.158 -0.0799  0.0753 -0.0091
22144W        W38278  14.564  11.624  12.409 -0.4654  0.3498 -0.0064
22145W        W38279   1.586  12.895   5.112  0.0528  0.2885 -0.2793
22146W        W38280   9.936  10.110   1.245 -0.2761 -0.0478 -0.0848
22147W        W38281   0.386  17.196  13.524 -0.2359  0.1929 -0.0197
22148W        W38282  16.976  11.819   3.753 -0.2836 -0.0860  0.1497
22149W        W38283  16.523   4.609   3.334  0.3330  0.1240 -0.1793
22150W        W38284  11.686  13.818  12.476 -0.2459  0.2400  0.0952
22151W        W38285   7.596  13.198   2.952  0.0444 -0.0308  0.2846
22152W        W38286  14.802   5.663   0.537 -0.2341 -0.2874 -0.5379
22153W        W38287   9.975  18.070   4.801  0.0872  0.3711 -0.0499
22154W        W38288   7.863  14.558   0.373 -0.0896  0.0696 -0.0076
22155W        W38289   1.885   7.894  10.122  0.1208  0.2020  0.0886
22156W        W38290   5.659   6.932   2.533  0.0739  0.0079 -0.2499
22157W        W38291   9.913  11.602  12.185  0.0682 -0.2680  0.3225
22158W        W38292  16.029   9.687  11.243  0.2634 -0.0275  0.1921
22159W        W38293  11.807   1.533   4.455 -0.2013  0.2294 -0.0308
22160W        W38294   3.105   4.110   2.925  0.0178  0.2164 -0.1377
22161W        W38295   3.378   8.646  12.824  0.1554 -0.1559  0.0170
22162W        W38296   8.243  14.811  10.546  0.1593 -0.2228 -0.1114
22163W        W38297   2.496  17.848   3.331 -0.0326 -0.0132 -0.2474
22164W        W38298  10.992  11.396  11.740  0.0336  0.0545 -0.2068
22165W        W38299   6.220   9.459   1.092 -0.0882  0.0131 -0.0055
22166W        W38300  16.551  13.537   4.134  0.0209  0.1217 -0.3023
22167W        W38301  11.599   2.541  12.851 -0.2463  0.0273  0.0156
22168W        W38302  12.493  11.952   0.841  0.0632  0.2674 -0.0222
22169W        W38303  11.215   7.635   2.186  0.0143 -0.1457 -0.0323
22170W        W38304   7.199  11.589   0.397  0.4899  0.2207 -0.0366
22171W        W38305   1.631  11.187   3.440  0.1765 -0.2162 -0.0007
22172W        W38306  18.371   5.556  11.582  0.0473  0.1883 -0.1665
22173W        W38307  13.086  18.110  13.275 -0.1659 -0.3847  0.0695
22174W        W38308  12.768  15.536  10.674 -0.1987  0.2606  0.2631
22175W        W38309   2.678   8.293  13.908  0.0775 -0.3317  0.0527
22176W        W38310   1.018   2.531  10.623 -0.2453 -0.0532  0.0060
22177W        W38311   6.742   2.103  13.334  0.0085  0.3087 -0.1161
22178W        W38312   4.199   1.361   1.279 -0.4848  0.0540  0.0184
22179W        W38313  12.152   2.868   3.626 -0.1488  0.1334  0.1280
22180W        W38314  11.522   4.626  12.594 -0.2132  0.0572  0.4406
22181W        W38315  14.101  10.045   2.751  0.2244 -0.1356  0.1987
22182W        W38316   0.064   7.209  13.171 -0.0406  0.2070  0.1225
22183W        W38317   4.178  15.723   1.160 -0.0812  0.0428  0.0297
22184W        W38318   4.552   1.405   3.530 -0.4031 -0.0291  0.2028
22185W        W38319   8.887   8.052  14.056  0.3971 -0.0752  0.2331
22186W        W38320  11.526  14.262  10.926  0.0669 -0.0279  0.1170
22187W        W38321   6.079   4.554   3.451  0.0526 -0.2595  0.2083
22188W        W38322   0.782   3.568   3.428  0.0559 -0.3344 -0.0516
22189W        W38323  10.823  18.532  10.904 -0.0729 -0.0349  0.3144
22190W        W38324   0.972  13.386  13.685  0.0017 -0.4024 -0.4705
22191W        W38325  13.111  14.417   1.936  0.1471 -0.1762  0.3586
22192W        W38326  12.603  15.816   3.710  0.1166  0.0488  0.3793
22193W        W38327   6.030  17.796   1.593  0.0440  0.0390 -0.0069
22194W        W38328  13.217  15.395   1.387 -0.1667  0.0791  0.0452
22195W        W38329   6.791   6.030  12.768  0.0323  0.2041 -0.0030
22196W        W38330  11.018  18.359  13.971  0.1308  0.3396  0.1909
22197W        W38331   5.573  19.020  14.352 -0.3528  0.2219 -0.1027
22198W        W38332   0.914  17.702   3.631  0.2733  0.0132 -0.3062
22199W        W38333  14.070   7.234   4.399 -0.0154  0.1842  0.0531
22200W        W38334   5.312   9.628   4.543 -0.1770  0.1008 -0.0939
22201W        W38335   3.060  12.250  15.037  0.1549  0.0513  0.3840
22202W        W38336   3.921  10.654   2.210  0.1195  0.1447 -0.0895
22203W        W38337   0.607   5.109   1.099  0.1715  0.0084 -0.0668
22204W        W38338  11.950   8.449  11.040  0.1369 -0.0095  0.3246
22205W        W38339   4.943   6.659  12.013 -0.0827  0.2559 -0.2876
22206W        W38340   3.943   9.943   1.123 -0.2472  0.1504  0.0097
22207W        W38341  10.108   7.342  10.400  0.0274  0.2433 -0.2363
22208W        W38342  16.776   3.337  11.888 -0.0488 -0.0317  0.1075
22209W        W38343   7.530   6.294   1.454  0.3359 -0.1612  0.1446
22210W        W38344  19.150  14.736   0.064  0.3023  0.1044  0.0342
22211W        W38345   1.807  13.985   5.300 -0.1121 -0.4065 -0.2280
22212W        W38346  13.796   0.948  13.214  0.1659 -0.0449  0.1131
22213W        W38347   9.588   0.640   4.868  0.0886  0.0912  0.3878
22214W        W38348  12.862  16.400   3.055 -0.0627 -0.0921  0.0096
22215W        W38349   6.031  13.839  11.990  0.3109 -0.3677 -0.2019
22216W        W38350  15.740   4.180  14.895  0.1515  0.2089  0.1716
22217W        W38351  15.687  14.510  13.973  0.1535 -0.4476  0.4222
22218W        W38352   4.814   0.379   2.871  0.0599  0.0094 -0.1856
22219W        W38353  11.167  10.711  11.041 -0.0200 -0.1290  0.1379
22220W        W38354   9.944   8.098   1.628 -0.0647  0.0426  0.1642
22221W        W38355  18.497   4.449  13.980 -0.3434  0.0300  0.1882
22222W        W38356   1.247   5.878   1.794 -0.0415 -0.0406  0.3947
22223W        W38357   1.162   9.673   1.484  0.0750 -0.1597 -0.0671
22224W        W38358  14.013  14.671  10.515 -0.2728 -0.1179  0.0438
22225W        W38359   1.820  10.456   2.119 -0.1491  0.2041  0.0373
22226W        W38360   8.489   4.331  14.777  0.0175 -0.1994  0.3935
22227W        W38361  16.222   4.919   4.095 -0.1260  0.0810 -0.1711
22228W        W38362   8.330   3.441   1.386  0.1224 -0.0334 -0.0903
22229W        W38363  12.517  18.908  11.209  0.2231 -0.3466 -0.1908
22230W        W38364  10.788  10.051   0.465  0.0749  0.3326  0.0699
22231W        W38365   3.387  15.328   0.511 -0.2685 -0.0967  0.0578
22232W        W38366   0.722  12.205   3.469 -0.0474 -0.1962 -0.2320
22233W        W38367  11.431  17.081   3.801  0.1474 -0.4622  0.2388
22234W        W38368  13.677   9.436  12.816 -0.0261  0.1130 -0.4030
22235W        W38369   6.637  17.361  12.063 -0.0566 -0.1110  0.0455
22236W        W38370   9.487   8.403  10.759 -0.0876  0.2090 -0.2597
22237W        W38371  12.289   0.700  14.068  0.1879  0.0528 -0.1185
22238W        W38372  18.745  13.601  13.805 -0.0429 -0.1403  0.2713
22239W        W38373   8.482  13.970   0.854  0.0706 -0.0010  0.2197
22240W        W38374   8.196   6.554   2.926  0.1343 -0.3627 -0.0659
22241W        W38375   7.056   1.999   1.881  0.0486  0.3402 -0.0978
22242W        W38376   4.636   8.225  10.372 -0.0098 -0.2224  0.0056
22243W        W38377  18.556   4.837  10.868  0.2387 -0.1346 -0.2462
22244W        W38378  17.823   5.259  10.979 -0.3887  0.1181  0.1988
22245W        W38379  19.070   5.460   2.096 -0.1833  0.0766 -0.2019
22246W        W38380  14.453   2.480  10.363 -0.1055  0.0916 -0.2926
22247W        W38381   4.800   4.761   0.839  0.1286  0.1456 -0.4309
22248W        W38382   7.065  10.808  11.025  0.3909  0.1603 -0.0670
22249W        W38383  12.309   9.901   3.228 -0.2789  0.0414  0.0592
22250W        W38384   9.692   7.578   9.814  0.0576  0.1631 -0.1070
22251W        W38385   7.433  10.024  14.132 -0.0951 -0.0997  0.1114
22252W        W38386  17.021  14.419   4.307  0.0675 -0.1681  0.1044
22253W        W38387   5.775  19.014  13.053 -0.3114  0.2123  0.3118
22254W        W38388  13.307  13.429   2.292  0.1921 -0.2157  0.1570
22255W        W38389  16.288  12.735  12.033 -0.4310 -0.1419  0.0168
22256W        W38390   4.430  13.297  11.378  0.0382  0.0336 -0.3154
22257W        W38391  11.070   1.928  10.796  0.2324  0.3717 -0.2107
22258W        W38392   0.893  11.027  12.021 -0.1972 -0.2502  0.0078
22259W        W38393   2.892  14.441   4.209  0.4895  0.3036 -0.1979
22260W        W38394   5.179  15.046  11.055 -0.0262 -0.0218  0.1170
22261W        W38395   6.812  15.238  14.776  0.2907  0.0917  0.1840
22262W        W38396   6.751   6.913   0.746 -0.0803  0.0793 -0.1231
22263W        W38397   8.939  15.477   3.447  0.0198 -0.1738 -0.0792
22264W        W38398   6.097  15.868  14.503 -0.0580 -0.3445 -0.2312
22265W        W38399   3.021  16.778  10.833  0.0085  0.1332  0.0402
22266W        W38400  10.853  18.695   3.790 -0.1456  0.4045 -0.1234
22267W        W38401   4.083   2.710   1.684  0.0104 -0.0745 -0.0326
22268W        W38402   5.884  15.732   1.340 -0.0593 -0.1378 -0.1495
22269W        W38403  13.650  14.239  12.101  0.2449  0.3601  0.1400
22270W        W38404   6.172  17.003  10.671  0.2600 -0.0871 -0.1880
22271W        W38405   5.464  14.082  10.801 -0.0267  0.0118  0.1586
22272W        W38406   7.921  17.192   4.102  0.0535  0.0136 -0.1176
22273W        W38407  15.795  16.521  13.138  0.0358  0.1076 -0.0875
22274W        W38408   2.530  17.154   4.146  0.1932 -0.1128  0.0357
22275W        W38409  12.057   9.238  10.681  0.1116  0.0347  0.0140
22276W        W38410   4.093  17.784   1.147 -0.0922 -0.3601 -0.0542
22277W        W38411   9.885   9.471  11.600  0.2460  0.1164  0.1885
22278W        W38412   3.538   5.790   4.635 -0.1496 -0.3329  0.2725
22279W        W38413  18.757   3.601  10.540 -0.0899  0.0173  0.3177
22280W        W38414   1.238   3.637   0.342  0.0573  0.0765 -0.2396
22281W        W38415  17.535  14.639   3.443  0.2203  0.3246  0.2437
22282W        W38416  15.537   0.556   2.849 -0.0103 -0.1226  0.3158
22283W        W38417   6.382  12.633  12.473  0.1971 -0.1132  0.2919
22284W        W38418   8.046   2.133  13.366 -0.1772 -0.0696  0.2882
22285W        W38419   6.499   8.808   1.595 -0.0807  0.2879  0.0895
22286W        W38420  11.933   4.627  15.010 -0.0776 -0.0589  0.0651
22287W        W38421  13.336  13.692  12.887  0.1893 -0.0936 -0.0824
22288W        W38422  18.960  18.058   0.188  0.0661  0.1400  0.0663
22289W        W38423   4.738   9.055  11.545  0.0911  0.0723 -0.1591
22290W        W38424   0.444  18.524   4.799  0.0073 -0.1360 -0.2129
22291W        W38425   7.171   9.153   0.111 -0.1187  0.1656 -0.1085
22292W        W38426   3.245  18.344  12.837  0.2556  0.1829 -0.0140
22293W        W38427   7.849   9.626  10.776  0.0448  0.0755 -0.1118
22294W        W38428   8.005  18.887   0.140  0.1041  0.1248  0.0374
22295W        W38429   8.097  18.440   1.993 -0.2065  0.0545 -0.3437
22296W        W38430   1.294   8.361   0.605  0.1425 -0.3969  0.0870
22297W        W38431  13.967   2.900  13.743 -0.2099  0.1777 -0.0865
22298W        W38432  11.659  12.772  14.828 -0.2643  0.0749 -0.1509
22299W        W38433   0.121  18.402  12.146  0.2822  0.1236 -0.1472
22300W        W38434  17.280   8.140  10.741  0.1809  0.0564 -0.1009
22301W        W38435  19.176   6.533  12.289 -0.1002 -0.1612  0.2262
22302W        W38436  17.682   2.168  14.253  0.3652 -0.0768  0.2030
22303W        W38437  15.214   5.540   1.749 -0.2557  0.0907 -0.3664
22304W        W38438   8.351   5.472   4.567 -0.0595 -0.3887  0.2976
22305W        W38439  13.817  10.342  12.742  0.2284 -0.0450  0.0236
22306W        W38440   5.549  11.821  10.904  0.0775  0.1512 -0.1832
22307W        W38441  12.128   9.506   0.324 -0.2980  0.0814  0.0416
22308W        W38442   6.421   8.278   3.802  0.1302 -0.2498 -0.0564
22309W        W38443  12.877   3.691   2.216 -0.1690 -0.2019  0.1571
22310W        W38444  16.440  13.381   1.643  0.2424 -0.4236  0.0441
22311W        W38445  14.747   1.523  12.446  0.0757  0.1842  0.1150
22312W        W38446   2.514   1.723   1.408 -0.4346  0.0163  0.2328
22313W        W38447  17.064   6.924   1.107  0.0357 -0.3207 -0.0033
22314W        W38448  17.106  10.692  13.471 -0.2496  0.0978  0.0810
22315W        W38449   0.215  16.654  13.619  0.1849 -0.0306 -0.2478
22316W        W38450  12.715  14.923  14.279 -0.0212  0.0534 -0.1158
22317W        W38451   4.632   5.412   2.381 -0.1549  0.1219  0.2995
22318W        W38452   2.622  13.199   2.621 -0.1144 -0.0017 -0.2877
22319W        W38453   0.832   3.541  12.735 -0.2226  0.1482  0.0708
22320W        W38454  12.052  13.532   4.166 -0.1594 -0.3966 -0.1680
22321W        W38455  15.570   7.826   1.110  0.0870 -0.1378 -0.0003
22322W        W38456  18.588   8.805   2.930 -0.0172  0.1375  0.1956
22323W        W38457   9.713  16.361   1.180  0.0373 -0.2178 -0.0462
22324W        W38458   8.821  15.196  12.836  0.0152  0.0061 -0.3649
22325W        W38459   6.739  10.754   0.939  0.1795  0.0158 -0.1741
22326W        W38460  12.841  16.528  14.110  0.0363  0.1814  0.1046
22327W        W38461   0.098   7.520   4.860  0.2236  0.3187 -0.0890
22328W        W38462   3.905   6.387   0.147  0.0492 -0.0359  0.1443
22329W        W38463  17.294  10.291   2.264  0.3559 -0.1378 -0.0607
22330W        W38464   9.792   8.515   0.838 -0.1382  0.0196  0.2746
22331W        W38465  10.388  10.926  12.043 -0.0081 -0.1002 -0.4358
22332W        W38466   4.390  16.694  10.651 -0.1347  0.2814  0.0766
22333W        W38467   7.465   1.713   0.770  0.1603  0.0271 -0.2803
22334W        W38468  14.051  10.072  14.493  0.1682 -0.2554  0.1255
22335W        W38469  19.204  10.099   3.420 -0.2687  0.0725  0.0301
22336W        W38470   0.516   7.270  10.516 -0.0721  0.2775 -0.2395
22337W        W38471  13.409   6.238  10.715 -0.2348 -0.1166 -0.0975
22338W        W38472   7.053  17.518   4.497 -0.0275  0.0582 -0.0332
22339W        W38473  16.098  17.669  10.558  0.0474 -0.0235 -0.1102
22340W        W38474  15.694  11.120  12.816  0.0453  0.0380 -0.1039
22341W        W38475  13.684   6.532  14.225 -0.3502 -0.1254  0.1052
22342W        W38476  16.311   7.389  11.663  0.2195  0.1464  0.0704
22343W        W38477  15.873   3.412   4.708  0.0852  0.2181  0.0621
22344W        W38478  12.181  15.670  13.834 -0.0403 -0.0659 -0.0151
22345W        W38479   8.003   1.001  10.879 -0.4568  0.1179 -0.2147
22346W        W38480   5.173  15.207   1.728 -0.1642 -0.0663 -0.2928
22347W        W38481  15.872  14.075   2.929 -0.2066 -0.2892  0.0219
22348W        W38482   7.836  14.727  11.768 -0.1589  0.0824 -0.0469
22349W        W38483   3.889  12.909   0.644  0.1546 -0.2994 -0.0135
22350W        W38484   6.197   5.207   2.799 -0.0960 -0.2619  0.1624
22351W        W38485   3.461  15.876   0.429  0.2105  0.0018 -0.0446
22352W        W38486   9.729   0.878  10.292 -0.0215  0.1404 -0.0569
22353W        W38487   7.808   0.341   1.548 -0.1505 -0.1569 -0.4117
22354W        W38488  17.804  11.680  11.237 -0.3503  0.0518 -0.3297
22355W        W38489   5.801  15.044  14.006  0.2732  0.2250 -0.0838
22356W        W38490   8.890   2.215  12.661  0.1840  0.1930  0.1868
22357W        W38491  10.115   4.377  10.798 -0.1504  0.2754 -0.1365
22358W        W38492   8.305  19.168  14.001  0.1694  0.3410  0.0958
22359W        W38493  10.178  16.251  14.502 -0.1131 -0.1696  0.0885
22360W        W38494  10.190  15.108  13.044  0.1277  0.3582  0.4046
22361W        W38495   6.777   5.661  14.630  0.4472 -0.3685  0.0016
22362W        W38496   3.692   7.563  13.138  0.3464  0.2365  0.2213
22363W        W38497   5.379  12.759   0.544 -0.1493 -0.1827 -0.0091
22364W        W38498   9.443   5.717   0.005 -0.2830 -0.0023 -0.0382
22365W        W38499  10.217  11.402   3.359 -0.2775 -0.0361  0.2212
22366W        W38500  11.240  18.940   1.861 -0.2475  0.0847 -0.2183
22367W        W38501  15.934  11.187  10.612 -0.3290 -0.1368 -0.2216
22368W        W38502   3.678   8.147   4.807 -0.0046 -0.3068 -0.0540
22369W        W38503  11.018   8.194   9.867  0.1517 -0.1066 -0.0661
22370W        W38504  13.419  14.489  13.522 -0.0638 -0.0309 -0.2999
22371W        W38505   1.418   3.404   2.790 -0.1430  0.3272  0.1721
22372W        W38506  14.942   2.562  13.685 -0.1888 -0.0657 -0.1364
22373W        W38507  10.059  18.258  12.351  0.1283  0.1038 -0.3105
22374W        W38508   2.051   3.850  14.491  0.2208  0.1410 -0.0564
22375W        W38509  13.235   0.269   1.611  0.2580  0.1336 -0.2371
22376W        W38510  14.569  16.327  14.921  0.0457 -0.1618  0.0005
22377W        W38511   5.084   6.325   2.479 -0.0360  0.0291 -0.2423
22378W        W38512   0.624  16.995  13.892  0.1904 -0.1357  0.2033
22379W        W38513   1.271   4.684   5.224  0.0692  0.0284  0.0139
22380W        W38514  11.336   1.501   4.650 -0.2083 -0.1997 -0.1253
22381W        W38515   4.157  12.373  11.729 -0.0030 -0.2008  0.1362
22382W        W38516   5.705  10.109   3.085  0.0634  0.0956  0.1680
22383W        W38517  14.127  15.948  13.327 -0.0328 -0.2456  0.0343
22384W        W38518   5.024   2.706   2.880  0.2166 -0.0044  0.3059
22385W        W38519  15.587   3.932   5.555 -0.1773 -0.0264  0.0662
22386W        W38520   1.108   3.105   3.025  0.2041 -0.0980 -0.3105
22387W        W38521  11.171  16.813  11.133 -0.1044 -0.2269  0.1105
22388W        W38522  14.197   4.470   5.252  0.1032  0.1491 -0.2500
22389W        W38523  17.899  12.115  14.849  0.2156 -0.1699 -0.3794
22390W        W38524   3.584  16.034   5.781  0.3172 -0.1137  0.1809
22391W        W38525  17.173   5.872   0.814 -0.0367  0.0146 -0.1945
22392W        W38526   3.838  11.435   0.026  0.0468  0.0068  0.1183
22393W        W38527  10.559  15.292  12.723  0.4293 -0.1291 -0.1818
22394W        W38528   3.369   7.292   3.201  0.0905  0.1663  0.0262
22395W        W38529   0.590  12.421   2.245  0.1848 -0.1753 -0.1546
22396W        W38530   0.088   0.099   4.999 -0.2289 -0.2502  0.2083
22397W        W38531  10.786   0.485  13.810  0.2284 -0.2279 -0.3355
22398W        W38532   7.624  14.626  11.250  0.4139  0.0002  0.1657
22399W        W38533   8.670  17.776   0.814 -0.3131  0.1935 -0.2226
22400W        W38534   6.140  13.925  14.936  0.2438  0.2425  0.1703
22401W        W38535   9.392  10.399   2.386 -0.0177  0.0129  0.1010
22402W        W38536   1.856  18.142   5.467 -0.1141  0.0148 -0.3724
22403W        W38537   2.411   7.347  12.575  0.0480  0.2628  0.0068
22404W        W38538  19.179   2.975  12.218 -0.0029 -0.4954 -0.2058
22405W        W38539   6.315  16.581   1.945  0.1077 -0.1256  0.1885
22406W        W38540   1.085   1.012   1.939 -0.1580  0.0575 -0.0014
22407W        W38541  13.792   8.259  11.027 -0.3189  0.1397  0.0161
22408W        W38542  16.779   1.155  11.323  0.0836  0.1311  0.3085
22409W        W38543  10.155   4.794   3.935  0.1154 -0.2184 -0.0897
22410W        W38544   6.497  12.533   1.524 -0.0370  0.1147 -0.3904
22411W        W38545   3.307   6.967  12.568  0.2133 -0.0465 -0.3456
22412W        W38546   7.593  11.615   1.793 -0.0483 -0.0116 -0.1277
22413W        W38547  14.713  17.490  14.139 -0.0673 -0.0999  0.4074
22414W        W38548   2.946   9.403  12.114 -0.0625 -0.1440 -0.0308
22415W        W38549   9.034  17.925   4.828 -0.1811  0.1927 -0.1184
22416W        W38550  11.153  10.060  12.002 -0.0100 -0.2563 -0.0626
22417W        W38551   2.814  16.917   3.717 -0.2698 -0.0329  0.1249
22418W        W38552   6.867  16.377   1.724 -0.1541  0.1319  0.1456
22419W        W38553   7.954  15.187   1.288  0.2940 -0.0779  0.0647
22420W        W38554  10.374  11.816  12.196  0.1675 -0.0192  0.2735
22421W        W38555   5.920  11.767   0.974 -0.1134  0.1648  0.1441
22422W        W38556  10.845   8.787   2.185 -0.1187  0.1709  0.1377
22423W        W38557   8.947   4.435  13.129 -0.1329 -0.0211  0.1011
22424W        W38558   2.739   0.172   0.553 -0.0322  0.1341  0.1644
22425W        W38559  13.036  13.226  14.036  0.0621 -0.2247 -0.2393
22426W        W38560   4.463  15.657  13.514  0.1527  0.0746 -0.0341
22427W        W38561   0.137  19.050   3.163  0.1673  0.4005 -0.2381
22428W        W38562  15.269   7.345   1.188  0.0519 -0.0697 -0.1496
22429W        W38563   7.937  15.487   4.815  0.0182 -0.4042 -0.0365
22430W        W38564  16.308   8.666  14.015 -0.2832 -0.0855  0.1627
22431W        W38565   1.444   9.445   1.810 -0.0326 -0.2911 -0.2466
22432W        W38566   5.023  16.555   3.244  0.2439  0.2526 -0.1825
22433W        W38567   3.934  18.478  14.848 -0.1633  0.0015  0.1638
22434W        W38568   8.337  11.517  14.517 -0.0841 -0.2168  0.2779
22435W        W38569   1.129  17.733  11.429  0.3329 -0.0508 -0.1386
22436W        W38570  18.231  15.656   2.809 -0.1032 -0.4822 -0.1527
22437W        W38571  13.250  17.812   5.353  0.1668 -0.1497 -0.0410
22438W        W38572   9.065   7.546  14.676 -0.3148  0.0685 -0.1038
22439W        W38573   1.745  12.057   5.111  0.1940  0.2285 -0.0033
22440W        W38574  18.085   4.861  11.134 -0.2068  0.3427 -0.1141
22441W        W38575  10.888   8.756   3.825  0.1299  0.1944  0.0272
22442W        W38576  12.264   9.556   4.848 -0.2114 -0.0657 -0.0671
22443W        W38577  17.568  12.399   3.242  0.0029 -0.2785  0.0881
22444W        W38578   8.928   0.430   2.983 -0.1468  0.3469  0.2761
22445W        W38579  18.409  15.333   2.476  0.2069  0.2466 -0.0122
22446W        W38580  15.823   5.765   2.694 -0.3948 -0.0164 -0.2260
22447W        W38581   2.453   4.436   9.949  0.1675  0.1891  0.0634
22448W        W38582  11.763  12.310  11.070  0.2543 -0.0487 -0.0082
22449W        W38583  13.074   1.386   3.072 -0.1427  0.0412 -0.2228
22450W        W38584  10.770  11.600  10.637 -0.2292  0.0291 -0.0884
22451W        W38585  18.062  12.125  12.002 -0.1030  0.1812 -0.3157
22452W        W38586   3.811  11.463   4.016  0.0310 -0.0572  0.2168
22453W        W38587   4.026  13.737   1.620 -0.1386 -0.0589 -0.2868
22454W        W38588  18.727  13.502  11.095  0.0032  0.1161 -0.1908
22455W        W38589   9.431   4.043   9.970 -0.0972  0.2075  0.2860
22456W        W38590   1.943   1.418  12.449 -0.0402  0.0445 -0.1967
22457W        W38591   1.643   1.896   4.769  0.1577 -0.5562  0.1404
22458W        W38592  15.060  14.024  14.322  0.1392  0.0240 -0.3331
22459W        W38593   1.139  16.613   5.124  0.2370  0.0106 -0.0668
22460W        W38594   3.898  11.754  12.269  0.1902  0.2507  0.2180
22461W        W38595   9.561   3.161   3.839  0.2572  0.0813  0.0489
22462W        W38596  18.730  15.572  11.964 -0.1275  0.0228 -0.0484
22463W        W38597   7.147   1.680   1.411  0.1165 -0.1781 -0.0297
22464W        W38598   3.928  14.781  11.377  0.1322  0.0647 -0.2255
22465W        W38599  11.912  13.023   4.238  0.0067  0.1973 -0.0969
22466W        W38600  17.175   7.366  11.110 -0.1714 -0.2340 -0.1099
22467W        W38601  12.006  11.252  12.936  0.0958  0.0848  0.0375
22468W        W38602   7.711  17.607  11.140 -0.0451  0.1475 -0.1013
22469W        W38603   9.565   7.650  14.543 -0.4011  0.3288  0.1588
22470W        W38604  17.517   5.296  14.512 -0.1414 -0.0943  0.0951
22471W        W38605  18.014   9.062  10.212  0.3040  0.0592 -0.3376
22472W        W38606   2.823   0.530   4.420 -0.0034  0.0504  0.0575
22473W        W38607   1.377  17.540   4.985 -0.0644  0.1016 -0.1623
22474W        W38608   6.575  16.073   4.051 -0.2620 -0.3582 -0.0529
22475W        W38609   3.673  11.520  13.699 -0.1426 -0.2055 -0.2224
22476W        W38610  18.447   0.545   2.423  0.1813 -0.0786 -0.4423
22477W        W38611  14.277  17.637   1.078  0.1046  0.6330 -0.2345
22478W        W38612   6.589   0.937   4.388  0.1352  0.3134 -0.2554
22479W        W38613  12.873  12.501   3.375  0.0800  0.2356  0.2654
22480W        W38614   3.347   8.114   4.338  0.1567  0.1560 -0.2041
22481W        W38615  10.162   0.642   0.004  0.0969 -0.1466 -0.2018
22482W        W38616   1.094   5.205  13.445  0.1118 -0.0089  0.0410
22483W        W38617  13.030   1.016  13.584  0.1946 -0.1570 -0.1610
22484W        W38618  10.902   9.592  13.912  0.8658  0.2162 -0.1379
22485W        W38619   9.401  16.973  14.692  0.0406  0.0605 -0.2638
22486W        W38620  10.888   2.847  12.384 -0.1784  0.0952 -0.0582
22487W        W38621  10.077  17.759  14.662 -0.1574 -0.2370  0.2398
22488W        W38622   4.399   1.221  10.499  0.0011  0.1921 -0.0337
22489W        W38623  15.602   7.586   2.608 -0.0740 -0.1652  0.1247
22490W        W38624   5.162  14.057  13.176  0.1598 -0.1639 -0.0413
22491W        W38625  12.970  16.415   0.305 -0.2847 -0.4616 -0.4010
22492W        W38626   5.602   1.684   3.925  0.0575 -0.3849  0.1043
22493W        W38627   5.413  18.819  13.292  0.0124 -0.2948 -0.2030
22494W        W38628   9.224  13.662  10.678 -0.0432 -0.0542 -0.3062
22495W        W38629   1.353  15.842  13.517  0.3691  0.0235 -0.2838
22496W        W38630  16.455   0.909   0.100  0.1247  0.2593 -0.1169
22497W        W38631  10.445   5.159  10.615  0.0882  0.0496 -0.0764
22498W        W38632   7.708   6.696   3.788  0.1630  0.1551  0.1030
22499W        W38633  10.188  18.165   2.699 -0.2196  0.0476 -0.1779
22500W        W38634  12.338   4.385  13.881 -0.0021 -0.2920 -0.3691
22501W        W38635  13.846   9.720  13.500  0.1675  0.1590  0.0365
22502W        W38636  15.420  14.220   2.759  0.1706 -0.1347  0.0742
22503W        W38637  15.856   8.859  14.009 -0.0892 -0.1285 -0.1064
22504W        W38638  14.816  15.484   2.236  0.1546 -0.2075  0.2686
22505W        W38639  16.653  12.675  10.987 -0.0871  0.5853  0.1997
22506W        W38640  18.377   6.970   1.027  0.1734  0.0178  0.1847
22507W        W38641   0.944   3.194   5.454 -0.1210  0.0994  0.2346
22508W        W38642  16.084   6.676   1.872  0.0800 -0.0257  0.1996
22509W        W38643   9.304  15.047  12.797  0.0849 -0.2398 -0.1620
22510W        W38644  12.278   9.959  10.284  0.2878 -0.0225  0.1723
22511W        W38645   1.320   8.059   2.533 -0.1195  0.0682  0.1801
22512W        W38646   2.593   5.207   4.116  0.4603 -0.1016  0.1614
22513W        W38647  19.194   2.254  10.640  0.1100 -0.0274  0.0845
22514W        W38648  14.888   9.371   5.016 -0.3170  0.2845  0.1028
22515W        W38649   0.470   4.034  14.841 -0.0662  0.0895  0.2031
22516W        W38650  10.801  14.217   4.900 -0.1386  0.1330  0.2935
22517W        W38651   9.087  11.787   0.586 -0.0615  0.0574 -0.0931
22518W        W38652  13.745   5.775  12.871  0.2202 -0.1511  0.0327
22519W        W38653   2.907  15.405   9.565  0.3279  0.2643 -0.0220
22520W        W38654   9.223   2.248   4.983 -0.1374 -0.1180 -0.1121
22521W        W38655   8.102   7.049   3.728  0.0480 -0.0746 -0.2119
22522W        W38656   2.779   4.462  12.369 -0.3170 -0.1536  0.0578
22523W        W38657  18.927  14.065   1.165 -0.2273 -0.0826 -0.0665
22524W        W38658  17.149   9.009  12.646 -0.1809  0.1940  0.1043
22525W        W38659   5.253   1.324  14.529 -0.1521 -0.1376  0.0737
22526W        W38660   5.630   2.483  14.110  0.2128  0.1017 -0.0382
22527W        W38661   3.575  14.172   4.826  0.0801  0.1595  0.1410
22528W        W38662   0.023   0.091  11.797  0.3175  0.0832 -0.0042
22529W        W38663   0.948  13.234   4.082  0.0685 -0.0511 -0.0355
22530W        W38664  12.639  16.399   9.612  0.0377  0.1275  0.1140
22531W        W38665   9.417   6.859   2.523 -0.0376 -0.0321  0.0260
22532W        W38666   0.510   6.370  11.758 -0.2174  0.5274  0.0727
22533W        W38667  15.944  18.613  10.525 -0.0148  0.0693  0.2271
22534W        W38668  17.163   8.537   4.384  0.3151  0.0273  0.0873
22535W        W38669   2.919   9.654   5.083 -0.0721  0.0553 -0.0596
22536W        W38670   7.115   1.294   0.532  0.1224  0.1762  0.2823
22537W        W38671   7.765   3.935  12.840  0.2387 -0.0386 -0.2558
22538W        W38672  14.098  13.876  10.882  0.2017  0.3161 -0.3558
22539W        W38673   7.889   7.790  14.284 -0.1143 -0.2488 -0.1089
22540W        W38674   1.942   0.105   5.072  0.0059  0.0612 -0.0518
22541W        W38675   1.957   3.172   4.215 -0.0643  0.0999 -0.1289
22542W        W38676  13.845   4.243   1.515 -0.1375  0.2438  0.1972
22543W        W38677  10.641   2.977  13.568  0.2321 -0.0018 -0.3792
22544W        W38678   3.386   9.372   3.997  0.3542  0.0296 -0.1715
22545W        W38679   1.162  15.544  14.784 -0.2331 -0.2549  0.2082
22546W        W38680  16.637  18.236  14.775 -0.2478 -0.0109  0.0469
22547W        W38681   8.542   2.357   3.597 -0.2857  0.1130 -0.0058
22548W        W38682   3.068   1.856   1.164 -0.2684  0.3504 -0.4233
22549W        W38683  10.422   5.461  14.827  0.0384 -0.2868 -0.1625
22550W        W38684  15.166  15.670  14.722  0.0180 -0.1307 -0.1863
22551W        W38685  11.750   0.593  12.617  0.0115  0.1874 -0.1962
22552W        W38686  11.536   1.106   2.025 -0.2511 -0.1656 -0.1016
22553W        W38687   8.103   1.270   2.865 -0.0550  0.0651  0.1602
22554W        W38688   1.504   1.026   0.076  0.0883  0.3499 -0.1183
22555W        W38689   2.033  16.504   9.921 -0.1235  0.1891 -0.2784
22556W        W38690  10.622   7.013   3.388 -0.0799 -0.1666  0.2236
22557W        W38691  16.477   8.908  10.707  0.0737 -0.3764 -0.2331
22558W        W38692  13.717  11.013  13.830  0.0706  0.0486  0.0605
22559W        W38693  16.364  15.593   4.794  0.0152 -0.2339  0.0046
22560W        W38694  17.816   6.851   1.796 -0.0749 -0.1437 -0.0120
22561W        W38695  14.291  12.602   3.088 -0.2079 -0.1502  0.1249
22562W        W38696  10.702   6.236   2.658 -0.1825  0.0252  0.0200
22563W        W38697  18.388  14.761  14.594  0.5848 -0.0919  0.0636
22564W        W38698   1.112  10.076  14.899 -0.1131  0.0445  0.1047
22565W        W38699   4.163  15.915  13.062 -0.0238  0.1073  0.4798
22566W        W38700  11.511  18.993  10.878 -0.2206 -0.0547  0.2381
22567W        W38701   1.986   7.497   2.561 -0.0437  0.0829 -0.0602
22568W        W38702   7.230   9.027  10.393 -0.1414  0.1279 -0.2705
22569W        W38703   7.898   6.033  10.235 -0.2295  0.1715 -0.1165
22570W        W38704   1.459  18.622   3.301  0.0238  0.2121 -0.1117
22571W        W38705   8.669   2.662   9.528  0.1549  0.0294 -0.0907
22572W        W38706  18.525   0.745  12.127 -0.1002 -0.2006  0.2177
22573W        W38707   1.177  16.351   1.232  0.0969 -0.2388 -0.1217
22574W        W38708  10.113  18.678   4.371 -0.1704  0.3175 -0.0278
22575W        W38709   4.236   6.859  12.748  0.0510  0.2799 -0.1858
22576W        W38710   2.792   9.202  14.075  0.1862 -0.2699  0.0916
22577W        W38711  11.885   4.845  10.691  0.1653 -0.2049  0.0142
22578W        W38712   2.310  11.855   1.401  0.2219  0.3631  0.0672
22579W        W38713   3.419   3.114   2.814 -0.2625  0.0895 -0.0943
22580W        W38714   0.773  16.335   4.875 -0.0375  0.0326  0.0225
22581W        W38715   7.354   3.329  10.848  0.0857 -0.0585  0.2178
22582W        W38716   4.100  17.838   2.083 -0.0467 -0.0863 -0.1739
22583W        W38717   6.075  17.047  11.498  0.0455  0.1152 -0.4350
22584W        W38718  16.268  13.143  11.366 -0.2368 -0.2027  0.3231
22585W        W38719  18.558  13.785   2.984 -0.0914 -0.0782  0.3643
22586W        W38720  13.223   6.811   2.501  0.0556 -0.1140 -0.2925
22587W        W38721   8.378   8.305  10.370 -0.1182  0.1097  0.1544
22588W        W38722   5.247  11.307  13.121 -0.0800  0.0073  0.2497
22589W        W38723   2.799   8.885  12.167 -0.1523 -0.0420 -0.2911
22590W        W38724  17.481   2.643  11.620 -0.2588 -0.1325  0.0208
22591W        W38725   1.477  15.498  12.169  0.1211  0.2759 -0.0895
22592W        W38726  12.801   1.004   2.875  0.2274  0.0483 -0.4112
22593W        W38727   2.261  14.296  11.933  0.4773  0.2807 -0.0238
22594W        W38728  11.684   3.201   0.938  0.0449  0.2060 -0.2334
22595W        W38729  14.724  15.349  12.648 -0.2248 -0.1589 -0.5356
22596W        W38730   9.154  16.229   0.763  0.0192 -0.1447 -0.4699
22597W        W38731  11.847   7.677  12.001 -0.2390  0.0254 -0.0833
22598W        W38732   5.433   0.179  14.043 -0.2201 -0.0075  0.1129
22599W        W38733   2.689  15.039  12.530 -0.0926  0.1655  0.0947
22600W        W38734  11.033   8.373   4.054 -0.1371  0.0578  0.1716
22601W        W38735   5.557   1.244   2.367 -0.0368  0.0314 -0.1902
22602W        W38736  18.810   6.116   0.698 -0.4233  0.0207 -0.2854
22603W        W38737  11.733  16.975  12.869  0.0590 -0.4876 -0.3097
22604W        W38738  18.684   8.548  14.731  0.2312  0.0320  0.1346
22605W        W38739  17.601   4.130   3.271  0.3666  0.0925  0.0087
22606W        W38740  13.030   7.036   0.074 -0.0107  0.2484 -0.2137
22607W        W38741   3.824  15.796   9.479 -0.0618  0.0543  0.1101
22608W        W38742  15.760  16.709   3.089  0.1056  0.1222 -0.1589
22609W        W38743  12.435  16.419   0.240 -0.0156  0.1744 -0.1792
22610W        W38744  12.920   0.750   3.683  0.1790  0.2163  0.0165
22611W        W38745   8.547  12.061  12.024  0.0583  0.5750 -0.1044
22612W        W38746  17.114   2.364   3.855  0.0416  0.3772  0.1519
22613W        W38747   7.055  18.428  14.491 -0.3512  0.2516  0.0852
22614W        W38748  14.897   2.689   1.769  0.1703 -0.0474  0.1010
22615W        W38749   3.060  16.607   0.356  0.3621  0.1942 -0.1568
22616W        W38750  17.616   5.427   0.261 -0.1450 -0.1333 -0.2107
22617W        W38751   5.242  12.060  13.893  0.2775 -0.0266  0.1633
22618W        W38752   0.676   5.057  14.251  0.2623  0.2443 -0.2295
22619W        W38753   2.963  15.515  12.343  0.1255 -0.2626  0.3194
22620W        W38754  19.196  14.960  12.484 -0.2037  0.0223 -0.0936
22621W        W38755  14.754   5.157  14.988 -0.0304 -0.1024  0.2154
22622W        W38756  12.453  15.147  10.760  0.0934  0.0669  0.2540
22623W        W38757   0.962  18.315   3.453  0.1598  0.2328  0.2448
22624W        W38758  19.068   1.697   1.318  0.0728 -0.1285 -0.0954
22625W        W38759   8.771   7.325   3.309  0.0655 -0.2385 -0.1860
22626W        W38760  19.070   1.316  10.959  0.0043 -0.2180 -0.0548
22627W        W38761   8.563   2.515  11.728 -0.2159 -0.4485 -0.1078
22628W        W38762   1.084   2.603  11.906  0.2952  0.0155 -0.4284
22629W        W38763  18.891   7.146   4.692 -0.1047 -0.0636  0.1967
22630W        W38764   0.079   6.450  13.550  0.2157 -0.3156  0.2877
22631W        W38765   1.278  17.331   4.529  0.2730 -0.4599 -0.1007
22632W        W38766   6.653   0.688  13.131 -0.2536  0.1870 -0.0314
22633W        W38767  15.644  18.557  12.280  0.1387 -0.0553  0.0142
22634W        W38768   0.537  11.545   0.285  0.3075 -0.0803  0.0179
22635W        W38769  12.717   5.686  13.636  0.0601  0.0040 -0.1447
22636W        W38770   7.364   3.050   4.159 -0.0913 -0.1975 -0.5022
22637W        W38771  16.211  16.496  12.794  0.0378  0.0530  0.2555
22638W        W38772   7.933   3.639   2.141  0.0258  0.1695  0.2432
22639W        W38773  15.275  14.250   4.596  0.1462  0.1346  0.3259
22640W        W38774  18.353  15.158  13.757 -0.0600 -0.2125  0.0176
22641W        W38775  17.100  12.636  13.573 -0.1485 -0.0170  0.0943
22642W        W38776   8.405   9.596   4.310 -0.1310  0.0909  0.1852
22643W        W38777  17.370   6.775   5.526  0.2557 -0.1078  0.1070
22644W        W38778   9.049   1.480  14.006 -0.2055  0.1974  0.0114
22645W        W38779   3.364  13.169  13.416  0.1592  0.0152 -0.1512
22646W        W38780   4.079   9.882   1.776  0.1610  0.0113 -0.0472
22647W        W38781  16.348  10.772   0.055 -0.1783  0.3451 -0.0236
22648W        W38782  12.505   5.281  11.485 -0.0940 -0.0856 -0.2056
22649W        W38783   0.796   1.118   3.146  0.1035  0.1436 -0.0541
22650W        W38784   7.508  12.669  12.369  0.1417  0.1868 -0.1692
22651W        W38785   6.921   1.140   4.756 -0.1194 -0.0950  0.1763
22652W        W38786  10.272  13.996   0.890  0.3522  0.0666  0.3003
22653W        W38787  11.634  12.629   0.350 -0.2009  0.3780  0.1548
22654W        W38788  14.285  16.342   0.337 -0.1107 -0.3295 -0.0442
22655W        W38789   9.837   4.642   3.556  0.4572  0.1494 -0.1808
22656W        W38790  13.591   7.333  11.008  0.0421  0.1539 -0.0746
22657W        W38791   3.675  12.596   5.894  0.1527  0.2055  0.1984
22658W        W38792  18.856   7.591   4.739 -0.1667  0.2524 -0.0463
22659W        W38793  18.550   0.271  10.333 -0.0473  0.0437  0.1176
22660W        W38794  10.110   5.534   2.460 -0.1497  0.1939 -0.0072
22661W        W38795   5.046   9.501  10.690  0.0280 -0.2606 -0.0037
22662W        W38796   3.321  10.938  11.251  0.2262 -0.2378  0.1426
22663W        W38797  15.551  17.437  13.878  0.3455  0.2662 -0.0410
22664W        W38798  17.597  15.214  11.359  0.0010  0.1145 -0.0945
22665W        W38799  14.202   4.802   3.285  0.0931  0.2818 -0.6201
22666W        W38800  12.675   4.093   1.069 -0.1029 -0.0667  0.1741
22667W        W38801  15.777   6.184  13.348 -0.1496  0.2114 -0.1326
22668W        W38802   3.484  15.356  12.001 -0.1452 -0.3386  0.2286
22669W        W38803   6.175  15.899  11.244 -0.1420 -0.2414 -0.2518
22670W        W38804  18.951   2.326  12.523  0.0273  0.5986  0.0457
22671W        W38805  16.704  10.864   1.552  0.5972 -0.0434  0.0956
22672W        W38806  13.765   4.758  12.609 -0.1148 -0.1760  0.1287
22673W        W38807   0.872   2.142   3.585 -0.1472 -0.2947 -0.2619
22674W        W38808  16.613   8.874   1.397  0.0566  0.2381 -0.2972
22675W        W38809  11.465  10.646   4.277  0.1198 -0.0108  0.2678
22676W        W38810  15.525   7.416   4.936 -0.3412  0.0894 -0.2109
22677W        W38811  13.681  17.983  14.763  0.1280 -0.2898  0.0378
22678W        W38812  14.446  10.234   2.329  0.2823 -0.0287 -0.3371
22679W        W38813  18.361   7.456   0.844 -0.1180 -0.1057 -0.3019
22680W        W38814   5.194   5.931  11.076 -0.1168 -0.2362 -0.4500
22681W        W38815  18.359   0.309   0.516 -0.0681 -0.0167  0.1486
22682W        W38816   1.094  12.109   2.125 -0.0002 -0.2504 -0.0909
22683W        W38817   8.265  10.566   0.757 -0.1240  0.1603 -0.1532
22684W        W38818   2.636  12.137  10.772 -0.1117 -0.2487 -0.0962
22685W        W38819  16.325  14.900   3.200 -0.0579 -0.0539 -0.2134
22686W        W38820   3.661  12.157  12.431 -0.1208  0.0278  0.1246
22687W        W38821  12.772   4.921  11.318 -0.2385  0.0866 -0.0945
22688W        W38822   4.973  16.896  12.431  0.1223  0.1718  0.1964
22689W        W38823  10.291  14.558   4.774 -0.2908 -0.0809 -0.0075
22690W        W38824  10.922   5.227  15.010  0.0173  0.0843 -0.0117
22691W        W38825  12.053   9.924   0.617  0.0512 -0.3478  0.3590
22692W        W38826   0.456  10.076  14.831  0.1408 -0.1714  0.1733
22693W        W38827  12.185  12.278   4.550  0.0619 -0.0519  0.2512
22694W        W38828   6.896   6.415   0.873 -0.1069  0.0995  0.2227
22695W        W38829  14.040   3.617   3.131  0.1531 -0.0126  0.0452
22696W        W38830  14.289  14.361   4.575 -0.1082 -0.1159  0.1096
22697W        W38831   2.796  10.671   3.603 -0.3269 -0.0225 -0.5055
22698W        W38832  10.548  13.727   2.497 -0.1068 -0.0483  0.0079
22699W        W38833  10.149   8.244   1.102  0.2195  0.1055 -0.1341
22700W        W38834   6.418   9.843   0.691 -0.1012 -0.0102  0.0426
22701W        W38835  14.202   6.784   0.028  0.2271 -0.1614  0.1617
22702W        W38836   0.440  13.040   3.347  0.0078  0.0300 -0.1409
22703W        W38837   7.663   4.969   4.414 -0.3563  0.2840  0.3027
22704W        W38838  18.632   2.319  11.618  0.2469 -0.2179  0.0247
22705W        W38839   5.685   9.132   3.176  0.1408 -0.2924 -0.2987
22706W        W38840  15.095   4.577  10.425  0.1626 -0.0407 -0.0733
22707W        W38841   2.228   9.047  13.068 -0.0578  0.1642 -0.0876
22708W        W38842  10.806   6.794   4.972  0.0848 -0.1427  0.1540
22709W        W38843  11.506  16.097  14.443  0.0816  0.1294  0.1213
22710W        W38844   4.743  13.465   2.787  0.2803 -0.0481 -0.2324
22711W        W38845   6.015   7.932   3.211  0.2040  0.0473 -0.0985
22712W        W38846   3.697  14.152  12.559 -0.0203  0.0618  0.1738
22713W        W38847   9.081  18.249  13.706 -0.3796 -0.0477  0.0372
22714W        W38848   6.165   6.229  10.811 -0.1498  0.1478  0.0509
22715W        W38849   4.504  15.001   2.292 -0.2722 -0.1485 -0.2766
22716W        W38850   1.784   2.666   3.194  0.0234  0.4708  0.2907
22717W        W38851  16.506   1.748  13.917 -0.1037  0.1523  0.3814
22718W        W38852  16.936  18.652  14.998  0.1591  0.0707  0.2037
22719W        W38853   7.422   7.287   4.464  0.0193 -0.1853  0.0571
22720W        W38854   0.585   0.688   3.405 -0.2533 -0.1498 -0.0932
22721W        W38855  12.044  11.831  13.787  0.0564  0.1206  0.2202
22722W        W38856   0.849   0.730  14.442 -0.0163  0.1939  0.1470
22723W        W38857   8.282  18.311  13.271  0.0064 -0.1533 -0.0786
22724W        W38858  13.086   4.325   4.449 -0.1446  0.0321 -0.0545
22725W        W38859  16.132   2.838   0.502 -0.0583 -0.1780  0.0254
22726W        W38860   1.779  19.217   4.108  0.0660 -0.1320 -0.0084
22727W        W38861  17.720  16.429  13.715 -0.0810  0.2930  0.0514
22728W        W38862  10.589   1.990  12.264  0.1241  0.1153  0.1625
22729W        W38863  17.768  11.044   1.592 -0.2788 -0.0046 -0.0576
22730W        W38864   7.250  17.377   3.650  0.0409 -0.0170  0.0348
22731W        W38865  19.009  10.214   2.948  0.0257 -0.1644 -0.2654
22732W        W38866  18.297   8.518   3.720  0.4086  0.1159 -0.2248
22733W        W38867  10.781  13.921   3.391  0.2181 -0.2253  0.0269
22734W        W38868   0.942   7.256  13.177  0.3008  0.2313  0.0673
22735W        W38869  13.091  14.118   0.460  0.1638  0.0717 -0.0853
22736W        W38870   5.687   6.958  12.420  0.0999  0.1529  0.0256
22737W        W38871  10.721   9.186   3.086  0.4127  0.5406  0.0502
22738W        W38872   1.664  13.423   5.614  0.2615  0.1925  0.2358
22739W        W38873  16.141   2.003  15.040 -0.0755  0.2849  0.1277
22740W        W38874  16.276   4.478  12.601  0.3117 -0.2688 -0.2709
22741W        W38875   2.641  15.748   0.015  0.0925 -0.5819  0.4328
22742W        W38876  12.337   3.376  12.841  0.3459 -0.2512  0.4007
22743W        W38877   8.061   7.027   1.180  0.4455 -0.2148  0.0135
22744W        W38878  17.556   3.706   5.011  0.2406  0.0047 -0.0894
22745W        W38879   2.731  14.570  11.630 -0.0516  0.2010 -0.0720
22746W        W38880  16.946   9.083   4.728 -0.1299 -0.6303  0.0297
22747W        W38881  16.821   6.283  12.906 -0.4515  0.0261 -0.0269
22748W        W38882  13.286  12.761   0.918 -0.1644  0.0481  0.2222
22749W        W38883   0.665   2.242   0.342 -0.0423  0.2296  0.1245
22750W        W38884  13.662   8.408   4.764  0.0864 -0.2357 -0.0536
22751W        W38885   3.431   0.921   0.832 -0.2211  0.1555 -0.1571
22752W        W38886   4.448  13.669  11.838  0.0971 -0.0650  0.1951
22753W        W38887  12.432   4.045   1.846 -0.2273 -0.1998  0.0594
22754W        W38888  10.451  16.795  12.295 -0.0259 -0.1289  0.0812
22755W        W38889  10.370   1.469   5.538 -0.1777  0.3163  0.1502
22756W        W38890  18.700   9.937   2.660  0.0917  0.0900  0.0665
22757W        W38891   6.318   6.447  13.885  0.0787 -0.0381 -0.1643
22758W        W38892   9.000   7.515  12.857  0.1783 -0.1688  0.2653
22759W        W38893   2.305  14.593   2.038 -0.1210 -0.0342 -0.1026
22760W        W38894   9.611   4.885   5.093 -0.3345  0.4900 -0.0266
22761W        W38895  15.723   1.614   1.085  0.1347  0.1511 -0.1210
22762W        W38896   8.382   2.769  14.071 -0.0214 -0.1314 -0.4306
22763W        W38897  11.830   9.021   5.604  0.1149 -0.0823  0.1253
22764W        W38898  19.118  11.587  11.662  0.2139  0.3840  0.0214
22765W        W38899   6.896   3.711  12.846  0.0612 -0.0147 -0.2192
22766W        W38900  17.506   2.693  12.667 -0.4297  0.0201  0.2713
22767W        W38901  17.222   3.934  12.927  0.1666 -0.0106 -0.1443
22768W        W38902  10.352   2.874   3.893  0.2555  0.2473  0.3200
22769W        W38903   5.950  10.454  10.887 -0.2510  0.1769  0.2659
22770W        W38904  19.126  13.154  13.924 -0.1508 -0.0990 -0.4081
22771W        W38905   2.355   7.041  14.944 -0.1825  0.0111  0.2023
22772W        W38906  11.653  14.831  12.362 -0.0180 -0.2364  0.0444
22773W        W38907  12.596   8.267   1.145 -0.0552 -0.2589 -0.0965
22774W        W38908   2.183   4.183  13.441 -0.3599 -0.1981  0.2079
22775W        W38909  12.824   4.119   1.581 -0.1361  0.1277 -0.2308
22776W        W38910   4.791  13.569   2.292 -0.5940 -0.1338  0.0442
22777W        W38911   7.259   2.412  11.291  0.0857  0.2530  0.1660
22778W        W38912   2.685   2.636   2.318 -0.0787 -0.3040 -0.0824
22779W        W38913   7.151   0.406  13.215  0.0931 -0.2681  0.1326
22780W        W38914   5.622  15.768  10.089  0.1153  0.1088 -0.0138
22781W        W38915  10.565  10.707   1.369 -0.2443  0.1507 -0.1975
22782W        W38916  17.844   0.596  13.388 -0.1193  0.1757  0.1274
22783W        W38917   0.185  14.116   0.943  0.2460 -0.1683 -0.7065
22784W        W38918   8.597   7.724   9.202 -0.1695  0.3544  0.3265
22785W        W38919  13.493   2.711  10.403  0.1860 -0.4675  0.1283
22786W        W38920   9.397   9.257  14.819 -0.3065 -0.0183 -0.0065
22787W        W38921  18.238  14.761   1.772 -0.2487 -0.0024 -0.2949
22788W        W38922  14.263   6.269   1.645 -0.1334  0.2226 -0.2334
22789W        W38923  18.553  13.479   4.787 -0.2361  0.0738  0.0311
22790W        W38924   3.645   1.898  10.019  0.0145  0.1260 -0.0149
22791W        W38925   7.882   7.492   0.723  0.0359  0.2449 -0.0618
22792W        W38926  10.980   4.599  11.702 -0.0471 -0.1334  0.3230
22793W        W38927   6.907  18.720  11.949  0.0059 -0.3494 -0.3407
22794W        W38928   0.683  11.297  10.965  0.0817  0.1589 -0.0677
22795W        W38929   4.583  16.557   1.026 -0.0315 -0.1176  0.0179
22796W        W38930  14.790   6.205   2.915 -0.3314 -0.4746  0.0428
22797W        W38931   7.050  14.229   4.039 -0.1534  0.1092 -0.1713
22798W        W38932  12.131  16.892  12.653  0.0639  0.0560  0.0374
22799W        W38933   7.389  14.758   3.509 -0.0822  0.4437  0.1430
22800W        W38934   8.274   2.165   2.720 -0.0655 -0.3228  0.0141
22801W        W38935   6.767   1.236   1.380 -0.0146  0.0772  0.2966
22802W        W38936   8.979  19.135  11.809  0.0338  0.0926  0.0479
22803W        W38937  16.765  12.337  11.363 -0.3686  0.1565 -0.1718
22804W        W38938  18.928  10.401   1.675 -0.0918 -0.1963 -0.2666
22805W        W38939  18.251   4.516  12.433  0.3287  0.0056 -0.1332
22806W        W38940  14.727  13.987  11.506 -0.3545  0.0367 -0.1704
22807W        W38941   2.481  14.154   0.737 -0.0462 -0.0754 -0.0986
22808W        W38942  17.529   8.306   0.289 -0.0099 -0.2328 -0.2813
22809W        W38943  18.951   4.106   0.269 -0.1623 -0.2401  0.0340
22810W        W38944   6.961   5.293   2.333 -0.0708 -0.1711  0.0802
22811W        W38945   1.972   7.837  14.589  0.4321  0.1169 -0.1358
22812W        W38946  10.530  16.881  13.670 -0.0701 -0.2642 -0.1151
22813W        W38947  17.719  18.792  10.988 -0.0166  0.0585 -0.0976
22814W        W38948   7.983   4.301  14.598 -0.0125  0.2487 -0.1784
22815W        W38949   2.258   1.768   2.353  0.1203  0.1338 -0.0169
22816W        W38950  15.595   4.722  10.279 -0.4286  0.0113 -0.0943
22817W        W38951   0.784   3.954   3.749  0.4994 -0.3429 -0.2039
22818W        W38952  18.920   6.175  13.380  0.0680 -0.1837 -0.0766
22819W        W38953  11.748   5.920   2.325  0.3505  0.3996  0.1260
22820W        W38954   4.063  13.677  11.144 -0.0740 -0.0977  0.1983
22821W        W38955   1.470   1.930  11.396 -0.6185  0.1849  0.0626
22822W        W38956  12.129  19.013   0.740 -0.0479 -0.0060  0.2306
22823W        W38957  11.364   0.891   2.421  0.2346  0.0343  0.0087
22824W        W38958  12.681  16.404   4.569  0.3928  0.1305 -0.3249
22825W        W38959   7.674  16.718  12.337  0.0232  0.2871  0.2121
22826W        W38960  11.637  10.796   1.539  0.2565  0.0926  0.1463
22827W        W38961  17.511   4.573   2.731  0.1552  0.1900  0.1791
22828W        W38962   9.013   8.349  12.906  0.0298  0.1107  0.0522
22829W        W38963  12.041  18.894   4.631 -0.1089 -0.0164  0.0687
22830W        W38964  10.916   4.865   1.977  0.0577 -0.0686  0.0860
22831W        W38965  15.811   7.578  11.781 -0.1404 -0.4308 -0.3313
22832W        W38966  13.037  16.993  12.785 -0.0538  0.2417 -0.0033
22833W        W38967  16.861  14.248  14.751  0.1733  0.2478  0.0039
22834W        W38968  14.898  10.938   2.184 -0.0085 -0.2258 -0.0263
22835W        W38969   7.614  18.725  12.530 -0.1052 -0.3097  0.0011
22836W        W38970   0.518   5.668   2.361  0.2733 -0.0231 -0.1162
22837W        W38971  19.042   2.537   1.255  0.2375  0.0655 -0.0803
22838W        W38972   9.199  12.020   4.114 -0.1773 -0.5339 -0.3462
22839W        W38973  10.528   4.279  11.597 -0.0571 -0.2315 -0.2041
22840W        W38974  12.321   0.670  11.491  0.0636  0.1039  0.0545
22841W        W38975   5.066  16.333  14.932 -0.0844  0.2546 -0.0113
22842W        W38976   4.502   9.277  11.118 -0.0033 -0.2460  0.0584
22843W        W38977   0.497  14.510  14.318 -0.5702  0.2074  0.0355
22844W        W38978  11.381   4.864   4.608  0.1498 -0.1853  0.1816
22845W        W38979  11.547  17.505   2.890 -0.3803 -0.1689  0.4166
22846W        W38980   0.937   7.389   0.562  0.2019  0.2629  0.1316
22847W        W38981  14.277   5.638  14.633 -0.4146 -0.1114 -0.1883
22848W        W38982  10.856   9.068   1.696  0.1924  0.4015 -0.0175
22849W        W38983  12.553   4.676   5.765  0.1919 -0.1877  0.0108
22850W        W38984   8.878  11.058   4.393  0.0016 -0.0067 -0.1495
22851W        W38985   4.588  12.743  15.016  0.2949 -0.2968  0.1279
22852W        W38986   4.608   0.887   1.078 -0.0230 -0.1921 -0.3609
22853W        W38987   5.408  10.018  12.377  0.1990  0.2092 -0.3395
22854W        W38988  16.926  15.525   1.481  0.1074  0.0591  0.1434
22855W        W38989  16.271  10.414  14.205  0.0667 -0.0122 -0.0323
22856W        W38990  15.110   1.568  14.308 -0.1723  0.0223 -0.0027
22857W        W38991   5.519  10.505  11.954  0.1317 -0.0112  0.1804
22858W        W38992  11.228   0.160   2.073  0.0504  0.1956  0.2308
22859W        W38993  12.656   7.917   2.892  0.0641 -0.3552  0.0040
22860W        W38994  10.378   8.612  14.066 -0.0974  0.0419  0.0823
22861W        W38995   3.877   1.569   2.967  0.2713 -0.0339 -0.2240
22862W        W38996  12.070   4.376   1.695 -0.4530  0.1803 -0.0508
22863W        W38997   1.969  18.760  10.894 -0.2373 -0.0721  0.1691
22864W        W38998   5.889   2.922   1.126 -0.1077  0.0566 -0.0980
22865W        W38999  15.468   8.624  13.652  0.2172 -0.0038 -0.3073
22866W        W39000  10.769   6.081  11.900 -0.2005  0.0290  0.3918
22867W        W39001  17.608  15.923   3.496  0.1612 -0.0783  0.2842
22868W        W39002  16.870   7.952  14.223  0.0532 -0.4081  0.0962
22869W        W39003   7.512  15.199  11.710  0.1717 -0.1507 -0.1283
22870W        W39004   0.129  12.508  14.465 -0.1003  0.1838  0.1763
22871W        W39005   3.807  12.923   4.863  0.1777  0.2894 -0.3103
22872W        W39006   0.388   2.922   2.641 -0.3317 -0.0125 -0.0524
22873W        W39007   9.233  11.571  13.047 -0.1903 -0.1095  0.0606
22874W        W39008  14.965   9.213   1.271 -0.0306  0.1149 -0.3082
22875W        W39009   2.398   4.528  11.414 -0.1616 -0.0946 -0.0974
22876W        W39010   7.120   0.521   2.265 -0.0044 -0.2436 -0.0921
22877W        W39011  15.759  14.561   2.662  0.0805 -0.4327  0.1240
22878W        W39012  11.365  18.946   5.540 -0.1443 -0.1460  0.0885
22879W        W39013  15.400   2.291   0.626  0.0546  0.2340 -0.2480
22880W        W39014   4.386   4.876  14.541  0.1382 -0.1970  0.0510
22881W        W39015   5.556   6.739  11.121  0.4343 -0.1691  0.3268
22882W        W39016   4.253   8.035  10.714 -0.3674 -0.0189 -0.3170
22883W        W39017   2.248   1.178   4.761  0.0979  0.0986 -0.0409
22884W        W39018  18.565   3.915  13.596 -0.3067 -0.1272 -0.1254
22885W        W39019   7.738   1.805   2.841  0.1040  0.2727  0.1124
22886W        W39020   2.023  10.904   2.595  0.0342 -0.2179  0.0347
22887W        W39021   7.109  16.776   9.367 -0.0497 -0.0786  0.0580
22888W        W39022   3.034   3.332   1.372 -0.1067  0.1057  0.3292
22889W        W39023  17.998   3.356   1.765 -0.0642  0.0451 -0.0247
22890W        W39024  13.327  19.224  13.899 -0.2034 -0.4609  0.0279
22891W        W39025  12.433   0.025   1.241 -0.1263  0.0758  0.0673
22892W        W39026   3.463   4.667  13.574  0.0910  0.0054  0.1295
22893W        W39027  11.189  14.064  12.828 -0.1962 -0.2717 -0.4308
22894W        W39028  13.062   0.245  10.716  0.0831 -0.1489  0.1008
22895W        W39029  10.109   2.149  12.276 -0.1166  0.0142 -0.1114
22896W        W39030  15.325  15.571   1.581  0.1269 -0.0485  0.3728
22897W        W39031  13.284   5.925   1.507  0.1299 -0.0178  0.0161
22898W        W39032   4.818  18.872   3.613 -0.1415  0.1840  0.0153
22899W        W39033   3.283   0.115   4.960  0.1999 -0.2104  0.2410
22900W        W39034   1.581   8.521   1.574  0.1128 -0.1019  0.2840
22901W        W39035   7.742   1.199  14.072 -0.1155  0.1446 -0.1233
22902W        W39036   4.229   8.325   1.322 -0.0871 -0.3873 -0.0317
22903W        W39037  17.936   3.233  14.623  0.3163 -0.2369 -0.2060
22904W        W39038   0.052  13.522  11.238 -0.2520 -0.0139  0.1120
22905W        W39039  12.263  15.554  10.702 -0.3908 -0.0161  0.0567
22906W        W39040   0.130   1.668  14.884  0.1609  0.2440 -0.1613
22907W        W39041   2.128   9.147   3.272 -0.3353 -0.2626 -0.2683
22908W        W39042   0.390  19.105  13.236 -0.3481 -0.1570 -0.0191
22909W        W39043  11.117  13.539  10.993  0.0794 -0.3563  0.0988
22910W        W39044   0.187   8.600  14.910  0.0646  0.4052 -0.2108
22911W        W39045   2.318   0.458  13.686 -0.2810 -0.1641 -0.0228
22912W        W39046   4.563   3.228  12.360 -0.0047 -0.0736 -0.0542
22913W        W39047   0.467   3.142   3.542  0.0080 -0.0008  0.3924
22914W        W39048   6.798  12.432  14.071  0.1906  0.0213  0.1045
22915W        W39049   1.826  17.313  12.556 -0.2166 -0.2121  0.2573
22916W        W39050   5.647   7.523   1.268 -0.1256  0.0412 -0.0889
22917W        W39051  11.676  17.989   2.694 -0.1416  0.0676 -0.2846
22918W        W39052  17.055   5.364   4.237 -0.0310 -0.1077  0.0332
22919W        W39053  17.668  14.957   2.507  0.0734 -0.0568  0.0066
22920W        W39054  17.474  13.571  12.412 -0.1230  0.1814  0.1765
22921W        W39055   2.367   5.484  14.935 -0.3714 -0.1778  0.0078
22922W        W39056  11.394  15.986  10.380  0.0154  0.0645  0.0098
22923W        W39057   0.294   4.428   0.955 -0.0568  0.0033 -0.0186
22924W        W39058  15.337   3.339   0.934  0.0551  0.0409 -0.2562
22925W        W39059   4.160   2.391   5.103 -0.0232 -0.1765 -0.0114
22926W        W39060  13.835   6.004   3.875  0.0233  0.1103  0.1497
22927W        W39061   6.048  15.651   4.079  0.2637 -0.0055 -0.0630
22928W        W39062   0.789   6.992  14.896  0.0788  0.0402  0.0647
22929W        W39063  15.354   7.472  13.891 -0.0255 -0.1703  0.2481
22930W        W39064  16.223  15.745   3.443  0.1945  0.1245  0.3828
22931W        W39065  14.995  17.245  10.393  0.5230 -0.0310 -0.0247
22932W        W39066   6.359   7.590   1.626  0.1430 -0.0841 -0.0081
22933W        W39067  13.433   0.964  11.135 -0.0186 -0.0791  0.0425
22934W        W39068   3.392  11.190   5.698  0.0274  0.0279 -0.0365
22935W        W39069   2.827  19.158   5.214  0.0725 -0.1704  0.1361
22936W        W39070   0.022   5.530  11.170 -0.4939  0.1664  0.0601
22937W        W39071   9.566  17.587  10.002  0.6068 -0.1020  0.3465
22938W        W39072  10.078  14.867   0.975 -0.1284  0.0100 -0.0252
22939W        W39073  11.716  13.841   5.961 -0.1154  0.1458 -0.1594
22940W        W39074  10.320  16.770   4.602 -0.1402  0.1287  0.1302
22941W        W39075  12.683   5.105   0.184  0.1326  0.1523 -0.0038
22942W        W39076   2.474   0.270  14.779  0.2183 -0.3430 -0.0365
22943W        W39077  13.865  10.761   1.219  0.0835 -0.2946  0.0095
22944W        W39078   6.686  11.847  12.739  0.3779 -0.1795 -0.3990
22945W        W39079  17.562  17.873   2.246 -0.0404  0.2252 -0.1484
22946W        W39080  16.379   8.478  10.889 -0.2759 -0.2476 -0.3248
22947W        W39081   2.797   3.803   4.837 -0.2891  0.0640 -0.4133
22948W        W39082  15.638   2.668   0.348  0.1228 -0.0889  0.0417
22949W        W39083  17.011  10.869   9.687 -0.1900  0.1192  0.0658
22950W        W39084  12.292   5.789   5.296  0.3388 -0.2356  0.0739
22951W        W39085  16.635   1.458  11.698  0.1904 -0.0914  0.2159
22952W        W39086   9.760   2.285   4.900  0.5848 -0.4556  0.0325
22953W        W39087  15.904  16.523  13.664  0.0323 -0.0505 -0.0758
22954W        W39088  17.182  14.950   2.682 -0.2399  0.0459  0.2157
22955W        W39089   2.295   6.976   2.076 -0.1075  0.0347  0.1116
22956W        W39090   3.410  19.136   2.019 -0.1985 -0.0162 -0.1563
22957W        W39091  10.992  12.384  12.734 -0.0136 -0.2800 -0.2996
22958W        W39092   1.368   4.938  14.607  0.2212 -0.2370 -0.0075
22959W        W39093   3.868   9.447   1.039 -0.1435 -0.0666 -0.0471
22960W        W39094  17.806  13.890  14.959 -0.2747 -0.1442  0.2302
22961W        W39095  17.343   3.505   6.021  0.1992 -0.1825  0.1578
22962W        W39096   1.709  10.163  10.946  0.2551 -0.2982 -0.0027
22963W        W39097   6.255   4.584  10.426  0.1006 -0.1168  0.0677
22964W        W39098  19.065   4.756  11.034 -0.0470  0.0424 -0.0802
22965W        W39099  11.477  14.321   3.119 -0.0747 -0.1170  0.0277
22966W        W39100  15.782  18.617  14.933 -0.2687 -0.1425  0.0446
22967W        W39101   0.311   1.039  13.635  0.1536  0.0011  0.5667
22968W        W39102   8.148   3.384   0.707 -0.0091  0.1262 -0.0127
22969W        W39103  16.240  15.810   2.954  0.0875  0.1014  0.3256
22970W        W39104   4.448   8.977  14.762 -0.2298 -0.2664 -0.1413
22971W        W39105  18.229  15.096  13.307 -0.0300  0.1785  0.0929
22972W        W39106  15.377   7.999  10.014 -0.0591 -0.3729 -0.0838
22973W        W39107   7.079  12.001  11.869 -0.0072  0.3426 -0.1351
22974W        W39108   8.550  10.091  10.033  0.2404  0.0012  0.1326
22975W        W39109  11.413   3.404   4.454  0.1446 -0.1223  0.1836
22976W        W39110   0.757   9.116   3.401 -0.2494 -0.2915  0.0597
22977W        W39111  16.073   5.231  10.294  0.0757  0.0062 -0.3411
22978W        W39112   7.258  15.332  12.486  0.2841 -0.3485  0.2193
22979W        W39113  14.171   3.546   2.618 -0.1766 -0.2580  0.4735
22980W        W39114  16.815   9.131   5.456 -0.2329 -0.2839  0.3005
22981W        W39115  14.804  12.816   4.409  0.0527 -0.3229 -0.0186
22982W        W39116  13.556   1.334  14.102 -0.0991  0.0123 -0.1697
22983W        W39117   5.724  13.608  10.911 -0.0166 -0.1347 -0.4824
22984W        W39118  13.434   7.905  11.642 -0.1887 -0.0447  0.0185
22985W        W39119  18.882   5.534   5.289  0.2006 -0.2299 -0.1150
22986W        W39120  14.447   4.966   1.902 -0.0054 -0.0387 -0.1089
22987W        W39121  14.904  12.875   2.483  0.3394  0.2196  0.1253
22988W        W39122  13.535   9.872   2.225 -0.1234 -0.2854 -0.0813
22989W        W39123   7.944  15.725   2.140  0.2270  0.2621 -0.1080
22990W        W39124   0.835  18.637   2.316 -0.0235  0.1055  0.3403
22991W        W39125   2.862   2.102  12.118 -0.0477 -0.1216 -0.0796
22992W        W39126   6.508  16.328  14.291 -0.0285 -0.0240 -0.0806
22993W        W39127   1.533   3.360   1.520  0.0543 -0.1875 -0.3647
22994W        W39128  18.130   3.125   4.750  0.2276 -0.5978 -0.0927
22995W        W39129  10.213  13.401  13.561  0.1108  0.1322 -0.1868
22996W        W39130   3.727  11.963   4.123  0.3111 -0.0029  0.0576
22997W        W39131   1.888  13.539   3.034 -0.0656  0.1319  0.1551
22998W        W39132  16.983   2.933  14.607  0.2162  0.1726 -0.1991
22999W        W39133  16.688   9.731   5.194  0.0639  0.4003  0.2673
23000W        W39134   0.994   8.456  12.771  0.1885  0.2661 -0.0094
23001W        W39135  14.906   3.695  11.855  0.0163  0.3403 -0.3629
23002W        W39136  10.434   3.526  12.088  0.1447 -0.1882  0.0138
23003W        W39137   9.094  15.410  11.508 -0.1118  0.0349  0.2266
23004W        W39138   6.680  18.799   1.608 -0.0218 -0.0427  0.0895
23005W        W39139   6.052  10.700  11.396  0.1578 -0.0957  0.0595
23006W        W39140   7.517   5.023   2.633  0.0521  0.0356 -0.1570
23007W        W39141   3.822   7.482  11.495 -0.0030  0.0740  0.1513
23008W        W39142   7.209  16.370   3.502 -0.1109  0.1689 -0.1164
23009W        W39143   8.160  17.131  14.764  0.1244 -0.2075  0.1243
23010W        W39144  15.936   1.812  10.136 -0.0219 -0.1439 -0.3589
23011W        W39145   6.376   7.481  14.428 -0.2665 -0.0506 -0.1498
23012W        W39146   6.370  16.580   3.817 -0.1569 -0.2868 -0.4834
23013W        W39147  14.847  10.629   2.655 -0.1681  0.0203 -0.1417
23014W        W39148  14.515   7.252  13.415  0.0987 -0.1338  0.1533
23015W        W39149   4.875  16.810  14.206 -0.2066  0.1920  0.1078
23016W        W39150  13.029  12.572  13.951  0.1233 -0.0511  0.0686
23017W        W39151  12.049   7.969   2.077  0.1980  0.0682  0.1922
23018W        W39152   4.072   5.937   3.404  0.1747  0.0321 -0.0845
23019W        W39153  14.928   2.723  13.232 -0.1008  0.1045  0.1118
23020W        W39154   3.727   3.920   4.056  0.1157 -0.1269 -0.0123
23021W        W39155   9.089  14.838   0.870 -0.0570 -0.0635 -0.0908
23022W        W39156   0.399  14.262   2.735  0.0128 -0.2859  0.1906
23023W        W39157   3.472   5.369   3.308 -0.2024  0.2230  0.0527
23024W        W39158   1.625   3.957  11.475 -0.2035 -0.2208 -0.0181
23025W        W39159  18.868   9.358   0.557  0.3739 -0.4020  0.0384
23026W        W39160  14.545  12.367  12.505  0.0264  0.1098  0.2502
23027W        W39161  10.678  10.886   2.544 -0.1157  0.0912  0.0698
23028W        W39162  16.119   1.876  14.305  0.2180 -0.4298 -0.2507
23029W        W39163  11.050  17.270   4.345 -0.1671  0.0688 -0.1407
23030W        W39164   7.386   8.237  11.569  0.1612 -0.1766  0.0684
23031W        W39165   0.059   1.333  12.199 -0.1356  0.0762  0.2192
23032W        W39166   8.714   9.419  14.240 -0.1186  0.0476 -0.4664
23033W        W39167  11.810   1.048   1.594  0.0712 -0.0576 -0.0630
23034W        W39168   2.908   4.562   2.793  0.3469  0.1835 -0.2578
23035W        W39169   9.910  11.629   3.693  0.1628  0.0493  0.3620
23036W        W39170  15.405   9.013  13.984  0.2931  0.1714  0.0190
23037W        W39171  16.001   8.796   1.145 -0.2230 -0.1091  0.1768
23038W        W39172  11.931   1.691   3.408  0.1632  0.2665 -0.0982
23039W        W39173  10.021   2.717   1.169 -0.0412  0.3653 -0.0645
23040W        W39174   9.014   2.280  11.709 -0.0565 -0.2696  0.4244
23041W        W39175  14.764   0.832   3.046  0.0354  0.3440  0.0322
23042W        W39176   9.888  14.342   2.673 -0.0913  0.0585 -0.1843
23043W        W39177  10.689  15.949  14.566 -0.1501  0.0864  0.2293
23044W        W39178  16.129   3.878  10.945  0.0979  0.0594  0.0815
23045W        W39179   6.133  13.395   4.945  0.1007 -0.0623  0.4911
23046W        W39180  18.207   7.741  12.393  0.3110 -0.1088  0.0412
23047W        W39181  14.142  18.515   3.933  0.1088  0.3454  0.1668
23048W        W39182  17.514  14.508   4.382 -0.1042 -0.2943  0.1091
23049W        W39183   6.819  14.848  14.478 -0.0491  0.1410  0.1885
23050W        W39184  15.398   8.362   1.918  0.1713 -0.0810  0.0671
23051W        W39185   5.848   9.465   2.012  0.1285 -0.0881 -0.1436
23052W        W39186  17.163   2.196   2.549 -0.0169  0.1767  0.0710
23053W        W39187  14.254  10.723  14.488 -0.0384  0.0520 -0.2496
23054W        W39188  18.438   2.520   4.817 -0.0030  0.2295  0.0704
23055W        W39189   4.668   6.421  12.980  0.0230 -0.0225  0.1435
23056W        W39190   5.694   2.257   1.676  0.3683 -0.2386 -0.0945
23057W        W39191   5.023  14.109   3.200  0.1457  0.1644  0.0716
23058W        W39192   2.136  15.345  11.086 -0.1505  0.0095 -0.1083
23059W        W39193   1.867  17.076  12.994 -0.1435  0.0859 -0.1067
23060W        W39194   4.808  10.694  14.350 -0.0722  0.0918  0.0177
23061W        W39195   6.585   6.583   8.885 -0.0282  0.0829 -0.3560
23062W        W39196  17.830   6.269   3.689  0.1195 -0.2142 -0.0519
23063W        W39197   9.677   2.695   3.052 -0.0969  0.4326 -0.3327
23064W        W39198  19.229  14.136   3.564  0.0005  0.1208  0.1182
23065W        W39199   5.858   7.819   0.942 -0.1021 -0.1205  0.0346
23066W        W39200  16.369  17.161  13.790 -0.0073 -0.1709  0.2893
23067W        W39201  15.593   0.572  11.272  0.0213 -0.0985 -0.2113
23068W        W39202  17.395  11.552  13.007  0.0044  0.0679 -0.3895
23069W        W39203   4.901   3.128   2.498  0.1950 -0.0907  0.3043
23070W        W39204  18.403  19.072   3.146 -0.2410  0.0537  0.2987
23071W        W39205   9.364   4.104  13.130 -0.0048  0.2726 -0.0663
23072W        W39206   3.343  11.206   5.106  0.3767  0.0956 -0.0141
23073W        W39207  15.660  18.932   3.252  0.1857  0.0198  0.2733
23074W        W39208  15.931  17.202   3.905 -0.0380 -0.1810 -0.4599
23075W        W39209   9.783  16.643   2.058  0.1638 -0.0903 -0.0611
23076W        W39210   2.201  15.771   5.698  0.1233  0.0911  0.0888
23077W        W39211   8.805   5.882  10.678  0.1736 -0.1566  0.0545
23078W        W39212  18.111  13.754  10.289  0.2193  0.1459  0.0718
23079W        W39213   0.981   5.929   2.283 -0.0638  0.0301  0.0257
23080W        W39214   5.626   6.235  11.161 -0.0595 -0.1240  0.1067
23081W        W39215   8.733   2.395  13.106  0.1415 -0.1504  0.0045
23082W        W39216   6.400  16.122   1.767  0.0258  0.4749 -0.1028
23083W        W39217  12.505   0.546   5.558  0.1380  0.1045 -0.0919
23084W        W39218  16.105   3.150  12.831  0.1599 -0.1134  0.2023
23085W        W39219   9.873   0.823   1.598  0.1139  0.1847  0.2084
23086W        W39220  13.752  11.224  11.200 -0.2861  0.1137  0.1668
23087W        W39221   2.839   6.154   2.120 -0.0402  0.1264  0.0602
23088W        W39222   5.556   3.368  12.395 -0.0423 -0.0810 -0.0697
23089W        W39223   3.868  13.765   4.576  0.1492 -0.0379 -0.0891
23090W        W39224  13.709   8.048   2.656 -0.3891  0.0422  0.1356
23091W        W39225  15.571   7.636  12.297  0.1753  0.1710 -0.0494
23092W        W39226  17.637   0.105   4.950 -0.0916 -0.0020 -0.0723
23093W        W39227   2.145   0.898   3.239  0.1838 -0.5286  0.1874
23094W        W39228   7.000   4.543   1.853 -0.0912  0.0720  0.2667
23095W        W39229  18.486  12.421  12.043 -0.0855 -0.0524  0.0318
23096W        W39230  11.621   0.038  11.405 -0.0685 -0.4000 -0.1170
23097W        W39231   0.383  10.280  10.222  0.2418  0.0911 -0.0687
23098W        W39232   3.197  17.739   1.600  0.2136 -0.0692 -0.0786
23099W        W39233  12.972   6.843   0.535 -0.0185 -0.0969  0.2578
23100W        W39234  12.864   7.423  14.649 -0.2390  0.1006 -0.0045
23101W        W39235  12.309   7.527  14.668 -0.2625 -0.1126 -0.0538
23102W        W39236  13.560   5.881   2.983  0.0859 -0.1656 -0.0512
23103W        W39237  12.528  19.006   1.764  0.0335 -0.1825  0.0319
23104W        W39238  10.257  14.039   4.208 -0.3658 -0.2928  0.0618
23105W        W39239   8.932  13.499   4.121 -0.0578 -0.2970 -0.2493
23106W        W39240   7.680  16.993  13.211  0.3825 -0.2189 -0.1983
23107W        W39241  14.619   6.008   3.513  0.1555 -0.1813  0.1037
23108W        W39242  14.538   1.769  11.688  0.0684  0.1433 -0.3659
23109W        W39243  11.052  14.636  12.888 -0.0409  0.0728  0.2323
23110W        W39244   8.321  17.743  10.741 -0.2176 -0.1992  0.3514
23111W        W39245   8.827   3.390   3.218 -0.4322 -0.1467 -0.0938
23112W        W39246   8.512  11.687  13.644  0.2674 -0.2124  0.0433
23113W        W39247   6.176  17.429   0.580  0.1358  0.0367  0.4073
23114W        W39248  15.414  16.897  14.621 -0.2495 -0.0178 -0.3405
23115W        W39249   3.715  19.136   1.551 -0.0916  0.0415  0.0488
23116W        W39250  12.233   1.860   4.270  0.0964  0.2912 -0.2578
23117W        W39251  12.310   2.945  13.071 -0.1990  0.2175 -0.2324
23118W        W39252  11.721  10.284   0.838 -0.0392 -0.0580 -0.4080
23119W        W39253   5.632   9.368  10.782  0.1997 -0.0866  0.0163
23120W        W39254   2.614   7.410   3.795  0.4125 -0.2596  0.2300
23121W        W39255  16.743   8.166   3.016 -0.1468  0.1700 -0.5761
23122W        W39256   9.716   0.488   0.332 -0.2213 -0.0675 -0.1991
23123W        W39257  14.097   9.760   4.641 -0.0011  0.0198 -0.4528
23124W        W39258  18.917   0.008   1.441 -0.0942 -0.1285  0.0013
23125W        W39259   6.743   6.597  12.031 -0.1350 -0.1536 -0.1920
23126W        W39260   9.223   5.068   0.584  0.0592 -0.0493  0.0254
23127W        W39261   6.480  16.902  10.250  0.2669  0.0856  0.0010
23128W        W39262   4.163   8.062  13.826  0.1182  0.1970  0.1848
23129W        W39263   1.545   4.027   3.028  0.0675  0.1688 -0.1937
23130W        W39264  15.186   4.965  12.593  0.0266  0.0577 -0.0907
23131W        W39265  14.429  14.345   4.054 -0.0488  0.0907 -0.3463
23132W        W39266  15.668   4.000  13.012  0.1432 -0.2702  0.1934
23133W        W39267  14.491  10.165   1.824  0.1252  0.1387 -0.0782
23134W        W39268  14.755  14.461  14.393 -0.1532 -0.3069 -0.0987
23135W        W39269   3.442   7.638  14.332 -0.0628  0.1523 -0.3731
23136W        W39270   8.593  16.275   1.985 -0.4001  0.0563  0.1166
23137W        W39271  16.947   9.695   3.817 -0.1435  0.2401 -0.0965
23138W        W39272  15.876  16.668   2.611 -0.1088  0.1008 -0.1302
23139W        W39273  10.906  15.338   4.997  0.1451 -0.1203  0.3064
23140W        W39274  16.974  14.765   5.318  0.2035  0.2615  0.0040
23141W        W39275   4.868  18.659   4.809 -0.1414 -0.2797 -0.1096
23142W        W39276  11.169  18.629   1.280 -0.0976  0.0244 -0.1320
23143W        W39277   0.748  10.493   0.321 -0.0484  0.0024 -0.0542
23144W        W39278  17.941  17.142   4.412  0.3423 -0.3022 -0.3669
23145W        W39279   2.588  11.985   4.895 -0.0274 -0.0292 -0.3021
23146W        W39280  18.328  18.106  12.614  0.0402 -0.0027  0.0232
23147W        W39281  16.823  12.512   1.231  0.0161  0.0455 -0.1333
23148W        W39282  12.564   2.421   4.744 -0.1237 -0.0857  0.2143
23149W        W39283   1.512   7.810  13.117 -0.1070 -0.1142  0.0191
23150W        W39284  15.671  14.991   1.452  0.1362 -0.4118  0.0503
23151W        W39285  13.692  13.719  10.557 -0.0228 -0.1642 -0.4968
23152W        W39286  11.916  10.651  14.262  0.0871  0.0123  0.2503
23153W        W39287   8.927   1.316  12.589  0.0524 -0.4301 -0.0311
23154W        W39288  11.925   2.506  14.663  0.5196 -0.1293  0.0571
23155W        W39289  10.917   9.630  11.376 -0.1357  0.2230 -0.5801
23156W        W39290   2.752  18.676  11.359 -0.1442  0.0811 -0.2264
23157W        W39291   6.611  12.838   2.077  0.3889  0.0432 -0.2987
23158W        W39292   5.216  18.652   0.288  0.0869  0.0648 -0.0016
23159W        W39293  11.945   2.311  12.359  0.0837  0.2645 -0.2088
23160W        W39294   8.731   5.203   0.487 -0.0175 -0.2301 -0.0547
23161W        W39295   7.648   3.995   2.305  0.0476 -0.2283  0.0841
23162W        W39296  17.085  12.052   5.637  0.0190 -0.2936  0.0084
23163W        W39297   1.487   2.682   4.803  0.0150 -0.0533  0.2088
23164W        W39298  11.597   5.314  14.471  0.3658  0.0646  0.0031
23165W        W39299  14.055  18.673  13.899  0.2515 -0.2286 -0.1730
23166W        W39300   9.682  18.720   4.042 -0.0483 -0.0493 -0.1639
23167W        W39301   8.962   6.450  14.584  0.1415  0.1425  0.0106
23168W        W39302   4.071  16.353  14.135  0.1998 -0.0441  0.3785
23169W        W39303  13.858   3.939   2.255 -0.1816 -0.0826  0.0333
23170W        W39304   0.123  15.305  10.547 -0.1813 -0.2482 -0.0960
23171W        W39305  18.802   6.751   1.182  0.1970  0.1375 -0.0896
23172W        W39306  12.889  18.018   1.555  0.3247  0.3028  0.1877
23173W        W39307   1.142   9.159  12.163  0.0292 -0.1396  0.2265
23174W        W39308   3.043  17.840  14.952 -0.0022 -0.0434  0.0514
23175W        W39309   4.258   2.557   3.784  0.1032 -0.1579  0.1521
23176W        W39310   9.906  12.302  14.897  0.1788  0.2671 -0.1916
23177W        W39311  18.432  12.142  13.399 -0.2494 -0.2188  0.1029
23178W        W39312   7.315   3.406  12.695  0.2482 -0.1367 -0.0469
23179W        W39313   3.179   8.050  11.813  0.0149 -0.0246  0.1663
23180W        W39314   1.959   4.863  11.841 -0.1772 -0.0513  0.1184
23181W        W39315  14.505  13.104   1.410 -0.2158 -0.2412 -0.0672
23182W        W39316  14.734  14.028   3.837 -0.1748 -0.2906  0.0397
23183W        W39317   2.079   4.569   4.225  0.0595 -0.0094  0.4390
23184W        W39318   4.905  11.913   0.400 -0.1102 -0.0845  0.1580
23185W        W39319   9.486   1.684  13.117 -0.1801 -0.2535  0.2252
23186W        W39320   1.648  12.348   4.596  0.2205  0.1455 -0.3633
23187W        W39321   1.103  12.223  11.370  0.0838 -0.1083 -0.0129
23188W        W39322  13.996   1.981   3.237  0.3221 -0.0810 -0.1792
23189W        W39323   2.736   0.924   1.361 -0.0730  0.1186 -0.0487
23190W        W39324  14.049  13.673  14.837 -0.1755 -0.1762 -0.0145
23191W        W39325   4.484  16.612  12.307  0.4356  0.4648 -0.0673
23192W        W39326   5.495   5.059   0.841 -0.2100 -0.0905 -0.1453
23193W        W39327   6.033   7.292  11.122 -0.0435 -0.0563  0.0605
23194W        W39328  10.035   2.942  12.771  0.0036 -0.0715 -0.4242
23195W        W39329   5.904   6.022   2.303  0.0250 -0.1410  0.1177
23196W        W39330   2.169  14.795  14.350  0.1796 -0.0623  0.0430
23197W        W39331  10.053   1.607  13.078 -0.0402 -0.1327 -0.0210
23198W        W39332   3.232  15.728  10.096  0.0557  0.1423  0.3245
23199W        W39333   7.626   7.403  13.454  0.0585  0.0819  0.0437
23200W        W39334   7.577  10.024  10.485 -0.1261  0.0353  0.2424
23201W        W39335   8.625   5.491  14.848 -0.1202  0.3305 -0.0013
23202W        W39336   9.207  18.496  14.650  0.1019  0.0648 -0.4207
23203W        W39337   3.686  11.033  14.777 -0.1484  0.2255  0.6331
23204W        W39338  15.329  11.996  14.079  0.0198 -0.1382 -0.0058
23205W        W39339   4.956  19.179  14.676  0.3679 -0.1677 -0.1050
23206W        W39340  17.573  16.144   5.664 -0.1965  0.0537  0.1867
23207W        W39341  15.828  16.716  14.253 -0.2928  0.2646  0.0746
23208W        W39342  10.128   5.791  13.379 -0.0334  0.2341  0.0086
23209W        W39343  18.032  13.905   2.979 -0.0195  0.0550 -0.2448
23210W        W39344   9.136  15.993  14.248  0.1837 -0.1337 -0.0846
23211W        W39345  11.093  10.733   2.767 -0.0206  0.1647 -0.3849
23212W        W39346  11.550   3.866   5.229  0.1339 -0.0407 -0.2199
23213W        W39347   8.803  10.562   4.402 -0.1366 -0.0437  0.0103
23214W        W39348  12.648  11.401  11.752  0.0804  0.0997  0.0084
23215W        W39349   5.211   0.095   4.875 -0.0876  0.1472  0.1087
23216W        W39350   7.592   3.773   1.818  0.0604 -0.0632  0.1344
23217W        W39351   3.156   2.745  12.867 -0.3400 -0.1863  0.1525
23218W        W39352   2.781  13.769   1.118  0.3086  0.1659  0.0614
23219W        W39353  18.582  14.358   1.441 -0.1905 -0.2199 -0.0584
23220W        W39354   7.827   6.598  10.418 -0.1101  0.2459 -0.0526
23221W        W39355   3.466   4.582   3.855 -0.1356 -0.0974 -0.1705
23222W        W39356  11.600  15.337   0.553 -0.1308 -0.1682 -0.2756
23223W        W39357  15.789   1.747   0.235  0.1485 -0.3484  0.2096
23224W        W39358   7.826   6.947   1.635 -0.1745 -0.0216  0.0758
23225W        W39359   8.820  11.372  13.268  0.1001 -0.0658  0.1734
23226W        W39360   5.174   7.958  14.706  0.0687 -0.1663  0.0634
23227W        W39361  12.195  18.716  13.274 -0.1029 -0.1142 -0.0109
23228W        W39362  18.235   9.932   3.585  0.0685 -0.3456 -0.1190
23229W        W39363   7.803   0.740  13.777 -0.0092  0.0123  0.0041
23230W        W39364  15.636  13.738   0.659 -0.0612 -0.1887 -0.1316
23231W        W39365  17.543   8.847   1.669  0.2948  0.3037 -0.1721
23232W        W39366  16.148  17.977  11.016 -0.0510 -0.0375  0.0399
23233W        W39367  12.271   6.773  14.322  0.4547 -0.3296 -0.2769
23234W        W39368   3.302  13.136   0.174  0.2818  0.2000  0.1430
23235W        W39369   9.757  17.964  13.821  0.1833  0.1008  0.2023
23236W        W39370   5.439   5.206  10.195 -0.2081  0.0994 -0.1901
23237W        W39371   6.343  13.051  14.622  0.4702 -0.2008  0.5414
23238W        W39372   5.926  14.575   2.178 -0.5185  0.1508  0.1048
23239W        W39373   3.222   5.774   3.230  0.0925 -0.1590 -0.0383
23240W        W39374   3.445  18.465   2.642  0.1362  0.0769  0.0439
23241W        W39375  12.469  14.225   1.299  0.1821  0.0627 -0.0817
23242W        W39376   7.255  15.861  12.496 -0.1350  0.1015 -0.2424
23243W        W39377   2.021  17.474  14.049  0.1330 -0.1296  0.2033
23244W        W39378  13.900   4.443   2.406  0.0825 -0.2699 -0.0310
23245W        W39379   1.333   7.168   1.191  0.3657 -0.1980  0.2429
23246W        W39380  17.838   9.419  11.135  0.0963 -0.0856 -0.1095
23247W        W39381  15.119   6.452  12.046 -0.1243  0.3461  0.1009
23248W        W39382   9.464   6.963  10.794  0.2087  0.3369  0.1268
23249W        W39383   2.944   6.124  12.220 -0.1728 -0.0227 -0.2249
23250W        W39384   0.235   9.691   3.219  0.0115 -0.2797  0.1158
23251W        W39385   5.392  15.563   4.282 -0.3591  0.2155  0.0164
23252W        W39386  15.114   9.831  14.487  0.0395 -0.2987 -0.0470
23253W        W39387  10.777   6.005  12.913  0.1113 -0.2058 -0.2834
23254W        W39388   3.440   4.477   2.842  0.2323  0.0230 -0.1444
23255W        W39389  14.143  12.782   1.051 -0.1691  0.1317 -0.0307
23256W        W39390   9.548   5.742  13.679 -0.0837  0.0423 -0.1593
23257W        W39391   3.994   5.029   4.606 -0.0541  0.0421  0.1912
23258W        W39392   3.168   0.930   4.476  0.2227 -0.0112  0.1044
23259W        W39393  12.788   4.838   3.546 -0.1107  0.0493 -0.3878
23260W        W39394  17.275   3.928  11.496  0.0663  0.2746  0.0479
23261W        W39395   1.977   7.584  11.341 -0.0620 -0.1363  0.2751
23262W        W39396   6.393   7.625   3.112 -0.1653 -0.0140 -0.1756
23263W        W39397  18.372   8.962  12.803 -0.1423 -0.0809  0.0273
23264W        W39398   2.394   7.390   5.718 -0.1585  0.2216  0.1966
23265W        W39399  16.921   6.175  14.097 -0.0847  0.1956  0.0637
23266W        W39400   6.814   1.618  13.494 -0.0678 -0.0778 -0.2072
23267W        W39401  15.568  17.450   3.659 -0.1399 -0.2427  0.0873
23268W        W39402   6.051   5.291  10.814 -0.0817 -0.1983 -0.1256
23269W        W39403  12.110  10.355   3.059 -0.0608  0.3111  0.0731
23270W        W39404  11.233   9.101   2.349 -0.4834 -0.1660 -0.1857
23271W        W39405   8.887  19.099   0.382  0.2550 -0.0478 -0.1126
23272W        W39406   3.673   5.357   4.388 -0.1577 -0.1490 -0.0279
23273W        W39407   4.407  11.675  10.819 -0.2233 -0.1410 -0.0426
23274W        W39408   0.706   1.920   4.414  0.0377 -0.0647 -0.1323
23275W        W39409  10.237  16.134  10.909  0.1507  0.0233 -0.2896
23276W        W39410   0.599  12.879   3.880 -0.0499  0.2216 -0.3231
23277W        W39411  11.824  13.700  14.344 -0.1955 -0.0280  0.1811
23278W        W39412   3.209  11.289   2.335  0.0109  0.0039 -0.1109
23279W        W39413  10.083  16.905  11.093  0.1232 -0.1396  0.0975
23280W        W39414   5.750   1.021  14.695 -0.0202  0.1117 -0.0362
23281W        W39415  10.804   0.103   1.838  0.2279  0.1285  0.0261
23282W        W39416   7.864   6.249  11.646 -0.0721 -0.0637  0.2479
23283W        W39417  12.221   6.907  11.248 -0.0115  0.1147 -0.0439
23284W        W39418   0.127   1.808  13.450  0.2087 -0.0827 -0.4120
23285W        W39419   8.390   9.225   3.210  0.2259  0.1976 -0.1322
23286W        W39420   8.260   9.475  13.519 -0.0521  0.5241 -0.0681
23287W        W39421  13.326   6.010  14.145 -0.2875 -0.0186 -0.3373
23288W        W39422   0.168   6.957  12.705 -0.1021  0.1316 -0.2453
23289W        W39423   7.699   3.275   1.754 -0.2445 -0.1994 -0.5944
23290W        W39424   9.460   3.639  10.278  0.1583 -0.0581 -0.4967
23291W        W39425  13.749   9.682  14.556 -0.1061  0.1472 -0.5009
23292W        W39426  11.908  18.475   2.685  0.0567  0.2557 -0.0948
23293W        W39427  10.410  14.505   0.832 -0.2250  0.0296 -0.2228
23294W        W39428   7.007   9.331  12.419  0.3092 -0.0904 -0.0850
23295W        W39429   0.325  18.081   3.538  0.3546  0.1117 -0.0190
23296W        W39430   0.290  16.285   5.142 -0.0867 -0.2671  0.0807
23297W        W39431  18.201  10.089  13.157  0.0367 -0.1047  0.1858
23298W        W39432  12.492  11.310  13.023 -0.3266  0.0581  0.1257
23299W        W39433   2.060   3.018   9.325  0.2750 -0.2921  0.1773
23300W        W39434   4.006   6.110   4.882 -0.1049  0.2383 -0.1889
23301W        W39435  13.007   7.961   4.924 -0.0188  0.1182  0.1343
23302W        W39436  18.456   9.726  10.707  0.1448 -0.3488  0.1970
23303W        W39437  15.162  12.525   2.849  0.0319  0.1306 -0.2029
23304W        W39438  15.082   3.305  14.730 -0.2128  0.1044 -0.1410
23305W        W39439   2.474  12.958   3.574  0.2138 -0.0419 -0.3685
23306W        W39440   3.012  15.835  10.624 -0.0988  0.0075  0.1181
23307W        W39441  15.691  13.417  12.904  0.1173 -0.1251 -0.2544
23308W        W39442  14.104   6.071  13.048 -0.0255 -0.0450 -0.0233
23309W        W39443   5.321   2.390  10.918 -0.3176  0.1446  0.0826
23310W        W39444  14.573   0.267   2.551  0.1078 -0.1064  0.0613
23311W        W39445   0.945  11.250  13.506 -0.0589 -0.2235  0.1991
23312W        W39446  16.605   2.828  13.427 -0.2174  0.0006 -0.1111
23313W        W39447  13.617  14.184   2.175  0.3827  0.0151  0.0751
23314W        W39448  11.924  14.552   3.103 -0.1228  0.0826 -0.0708
23315W        W39449   8.404  11.426  10.361 -0.1253 -0.3329 -0.0332
23316W        W39450  18.296  15.345  12.071 -0.3626  0.3919  0.2968
23317W        W39451   2.334   5.542  11.482  0.2101  0.0824 -0.1901
23318W        W39452   7.183  17.396   2.356  0.1266 -0.0831 -0.2630
23319W        W39453  11.369   0.037  14.680  0.2741 -0.1760  0.3150
23320W        W39454  11.385  15.972  13.788  0.1996 -0.3417  0.0201
23321W        W39455  10.083  13.494   1.607  0.1953  0.1696 -0.2553
23322W        W39456   1.822  16.724  13.371 -0.1542  0.4080 -0.0425
23323W        W39457  13.464   0.036  13.400  0.3233 -0.1329  0.2905
23324W        W39458   2.442  10.204  10.561  0.0008 -0.2077 -0.1311
23325W        W39459  14.452   1.946  11.204  0.1479  0.3378  0.3355
23326W        W39460  18.152  15.960   1.016 -0.0514  0.0955 -0.1619
23327W        W39461   3.014  15.149  11.392 -0.0753 -0.1636 -0.1584
23328W        W39462  16.642  13.472   3.066  0.0838  0.0615  0.2069
23329W        W39463   6.876  14.913  10.965 -0.0399 -0.0684 -0.1580
23330W        W39464   1.710   6.191   4.840  0.0820  0.1404 -0.5555
23331W        W39465  11.726  10.026  10.933 -0.1339  0.1598 -0.1126
23332W        W39466  15.915  10.942   4.916  0.0485  0.0483 -0.2970
23333W        W39467   0.650   4.745  10.447 -0.0077  0.0735  0.0734
23334W        W39468   2.529  15.465  13.251  0.0049 -0.0529  0.1178
23335W        W39469  16.128  10.350  10.650 -0.1355  0.1816 -0.1672
23336W        W39470  19.170  17.977  11.891 -0.0807  0.2918  0.0058
23337W        W39471   8.685   3.998  13.309 -0.5113 -0.2014 -0.3147
23338W        W39472   1.686  12.273  12.915 -0.0155 -0.1581 -0.3472
23339W        W39473   8.810   4.619   1.740  0.0319  0.0730 -0.3106
23340W        W39474  14.568   6.382  11.942  0.0118 -0.3732  0.0539
23341W        W39475  11.972  12.623  11.390  0.1808  0.2108  0.1890
23342W        W39476  14.639   2.167  10.737 -0.3556  0.2491 -0.3248
23343W        W39477   6.091  17.740   2.483  0.0954  0.1439 -0.1335
23344W        W39478   4.425  11.738  14.660 -0.0587 -0.0954  0.0759
23345W        W39479   8.076   8.684  11.041  0.2267 -0.0036  0.0184
23346W        W39480   4.444  15.174   5.800  0.0177 -0.1034 -0.0054
23347W        W39481   9.694  13.556  10.876  0.2564 -0.0360  0.1523
23348W        W39482  18.542  15.956  13.971 -0.0270  0.1809  0.0718
23349W        W39483   9.059  16.017   3.838 -0.0707 -0.1694  0.2305
23350W        W39484  16.429   0.124   2.940  0.2576 -0.2282  0.2937
23351W        W39485  18.620   4.678  12.910  0.4073 -0.1739 -0.0755
23352W        W39486   7.978   6.867  13.501 -0.1664  0.0767 -0.4026
23353W        W39487   9.694  16.910  10.675 -0.0022 -0.0364 -0.3341
23354W        W39488   1.674   9.105  14.105  0.0539 -0.1484  0.0268
23355W        W39489  13.042   1.419   1.189  0.1852  0.0499 -0.2513
23356W        W39490  14.656   3.670   2.704 -0.1526  0.0124  0.2615
23357W        W39491   9.704  19.153   3.229 -0.1653 -0.1917 -0.0244
23358W        W39492  12.476  10.929  14.848  0.1730  0.3091  0.0163
23359W        W39493  11.977   6.980  14.846 -0.2094 -0.1295  0.0628
23360W        W39494  13.654  16.775   2.578 -0.0951 -0.3237 -0.0207
23361W        W39495  10.652   9.216  14.955  0.0501 -0.0940 -0.1198
23362W        W39496  18.770  15.255   1.691 -0.1130  0.1311 -0.1172
23363W        W39497  13.160   2.625   2.281  0.2061 -0.1317  0.1031
23364W        W39498  15.091  18.651   0.987  0.1064  0.0865  0.1323
23365W        W39499   2.444  11.700  10.695  0.2098 -0.1217  0.4366
23366W        W39500   3.663   9.845  13.806  0.2138  0.2561  0.0074
23367W        W39501   6.254   2.004   0.825  0.2200  0.0276  0.1719
23368W        W39502  11.662   9.567  13.299 -0.0539  0.1323 -0.1583
23369W        W39503  12.021  18.584  12.497  0.1809 -0.0221 -0.1246
23370W        W39504  14.824   5.019  14.016 -0.2099  0.1006 -0.3547
23371W        W39505   2.022  14.448   0.697  0.1125 -0.0128 -0.2193
23372W        W39506   7.033  12.287   5.961  0.0908  0.0144 -0.2022
23373W        W39507  16.421   6.677  10.941  0.1494  0.0590  0.0997
23374W        W39508  13.324   0.538  13.165 -0.0214 -0.0588  0.3347
23375W        W39509  15.058   4.266   0.070  0.0536  0.0168  0.2955
23376W        W39510   6.357   6.279   3.052 -0.0299  0.0616 -0.2263
23377W        W39511  18.757  15.316   3.505 -0.2969  0.0543  0.1381
23378W        W39512   1.433  16.214   3.093 -0.1234  0.1537  0.0413
23379W        W39513  10.901   1.361  10.428 -0.0842 -0.1636  0.1327
23380W        W39514   6.750   0.623  10.854  0.1140  0.0591  0.0750
23381W        W39515  11.485   3.743  10.812 -0.1769  0.2336  0.2859
23382W        W39516  13.342   4.870   4.233 -0.0490  0.1868 -0.2210
23383W        W39517   6.856  10.153  13.020 -0.2382  0.0284 -0.0048
23384W        W39518   4.593   4.127   0.962  0.0759 -0.3990 -0.2247
23385W        W39519   2.183  13.830  13.886 -0.1618  0.0412  0.1034
23386W        W39520  18.599   7.094   1.986  0.1077  0.2046  0.0032
23387W        W39521   6.940  16.756  10.442 -0.3520  0.1641 -0.0119
23388W        W39522   6.916   6.060  10.300 -0.0242 -0.0278  0.0084
23389W        W39523   4.713   9.345   2.692  0.4489  0.0141 -0.0794
23390W        W39524  14.427  17.113   5.329  0.1480  0.3630 -0.0761
23391W        W39525   0.276   7.963   4.206 -0.1130  0.2718  0.0901
23392W        W39526  19.229   1.249   1.546 -0.1303  0.0447  0.0094
23393W        W39527  15.426   2.661   2.051 -0.0147 -0.0498 -0.0253
23394W        W39528  14.463  17.881  13.904 -0.1632  0.4366 -0.0358
23395W        W39529   5.663  13.944   4.255 -0.3068  0.1802 -0.0122
23396W        W39530   0.621  16.460   2.029 -0.0318  0.0796  0.1809
23397W        W39531  17.461   9.138  11.772  0.1167 -0.0783 -0.5302
23398W        W39532   3.679   6.199   2.692  0.2101 -0.4491 -0.1391
23399W        W39533   7.276  11.751  12.466  0.0564 -0.0424  0.1643
23400W        W39534   5.965  18.260   4.073 -0.3829 -0.0446  0.3002
23401W        W39535  17.931   8.778   3.339 -0.1814 -0.5168  0.4383
23402W        W39536   5.624  16.451  12.201 -0.0088 -0.1280 -0.0303
23403W        W39537  17.915  12.127   1.246  0.1075  0.1708  0.0963
23404W        W39538  13.781   3.774   4.868 -0.0261  0.2475 -0.0253
23405W        W39539   5.273  19.029   3.390 -0.1018  0.1550 -0.3039
23406W        W39540  16.329  18.687   0.741  0.0931 -0.0288  0.0494
23407W        W39541   1.902  16.803  12.587 -0.2921 -0.3999  0.1832
23408W        W39542  17.856   7.819   3.055  0.3226  0.2559  0.0073
23409W        W39543   4.968  12.573   0.778  0.1823  0.1147 -0.4435
23410W        W39544   7.460  13.735   3.546  0.0187 -0.2309 -0.0885
23411W        W39545   8.554   7.404   3.772  0.0430 -0.0993  0.3330
23412W        W39546  16.593  10.575  13.764 -0.0830  0.2511  0.2340
23413W        W39547  14.529   9.225   1.729  0.0410 -0.1500 -0.2828
23414W        W39548  17.928  15.594  14.968 -0.1965 -0.1908  0.1267
23415W        W39549   9.794  11.726   0.694 -0.0479 -0.0222  0.4104
23416W        W39550   4.182   5.080  12.249 -0.0011 -0.3289 -0.0601
23417W        W39551  14.621   1.315   2.774  0.2119  0.0891 -0.1175
23418W        W39552  16.710  17.035   2.956  0.1110 -0.0294 -0.0549
23419W        W39553  10.230   7.856   3.290 -0.0158  0.0762  0.0722
23420W        W39554  11.234   0.249  11.871 -0.1893 -0.3557 -0.2294
23421W        W39555  14.177  14.777  11.500 -0.1483  0.0633 -0.1445
23422W        W39556   4.429   0.847   3.534 -0.1938 -0.1106  0.0986
23423W        W39557   6.687   3.755  10.238  0.0634  0.0111  0.0505
23424W        W39558  14.627  14.095  14.660 -0.0440  0.0907 -0.1814
23425W        W39559   6.951  12.958   3.504  0.1724  0.4515  0.0813
23426W        W39560   0.144   0.872   3.563  0.0463  0.3868 -0.1970
23427W        W39561   0.057  12.096  10.101 -0.0226  0.0206  0.0221
23428W        W39562  10.783  12.258  13.141 -0.0646 -0.0090 -0.0250
23429W        W39563   8.588  13.297   0.787  0.1464 -0.1407 -0.1172
23430W        W39564   7.845   7.021  13.048 -0.1298  0.0054 -0.0248
23431W        W39565  16.952  10.992   4.252  0.0282  0.0082  0.1341
23432W        W39566   2.260  12.836   4.142  0.0675 -0.2023  0.2231
23433W        W39567   2.653  12.386   5.721  0.1592 -0.1586 -0.3173
23434W        W39568  15.681   2.833   2.469  0.0732  0.1433  0.0501
23435W        W39569   1.421   8.452  13.188  0.2340 -0.1269  0.0848
23436W        W39570  12.512   1.614  14.621  0.0610  0.0122  0.1091
23437W        W39571   3.997  14.292   4.991  0.0765 -0.1131  0.2094
23438W        W39572  14.069   2.017   1.401 -0.0296  0.1698  0.2145
23439W        W39573  15.969  11.658   3.742 -0.1429  0.0315 -0.0844
23440W        W39574   8.600   1.335   2.151  0.0725  0.1456 -0.0448
23441W        W39575  11.432   4.432   1.000  0.0950 -0.3036 -0.2000
23442W        W39576   6.719   2.148  10.697 -0.0783 -0.2843 -0.1871
23443W        W39577   2.581  13.090  12.859 -0.0384 -0.1225 -0.3508
23444W        W39578  18.908   3.550  13.650 -0.1183  0.4821 -0.2471
23445W        W39579  10.431  12.320   3.657 -0.0972  0.1045  0.2824
23446W        W39580   8.230   1.310   5.345 -0.0453 -0.1885 -0.1444
23447W        W39581   1.311  11.116  13.082  0.0944  0.1263  0.0841
23448W        W39582  11.124  10.377  14.743  0.1775 -0.1637 -0.4099
23449W        W39583  10.419  11.763   1.694  0.1338  0.1654  0.1874
23450W        W39584   2.470   2.319   0.566  0.0296 -0.2086 -0.0188
23451W        W39585   8.974   8.965   4.245  0.0671  0.1089 -0.3571
23452W        W39586   6.613  15.196   2.446  0.0846 -0.2064 -0.2267
23453W        W39587  16.273  15.121   4.802  0.0898  0.1954  0.0713
23454W        W39588   7.200  15.552   3.477 -0.0675 -0.1749  0.3877
23455W        W39589  19.053   1.793   5.817  0.1597  0.1726 -0.1045
23456W        W39590  10.990   9.603   3.284 -0.3722 -0.3133  0.1752
23457W        W39591   9.494  13.459   1.845 -0.1152 -0.1163 -0.0281
23458W        W39592  11.901   8.772  11.614  0.1735  0.1783  0.2316
23459W        W39593   0.428   8.669  12.831 -0.4708  0.1196 -0.0973
23460W        W39594   0.510   3.905   2.752  0.1739  0.1540 -0.1360
23461W        W39595  15.793   4.399  11.959  0.0474 -0.3109  0.1530
23462W        W39596  18.116  14.800   0.005  0.3010 -0.0614  0.1324
23463W        W39597  19.079   5.611  14.706 -0.2375  0.0393 -0.0331
23464W        W39598  18.062   7.995   0.134 -0.1098  0.1432  0.0042
23465W        W39599  18.210   0.179   5.365 -0.0247  0.1986 -0.1829
23466W        W39600  13.465   9.292  14.872 -0.1160  0.3383  0.1798
23467W        W39601   9.666  10.706   4.102 -0.0065  0.0563 -0.0120
23468W        W39602   6.573  11.252   2.207 -0.0222  0.0502 -0.1793
23469W        W39603  18.639  18.729   3.854  0.0327 -0.0619 -0.2165
23470W        W39604  13.516   3.413  13.706 -0.2426 -0.1006  0.1396
23471W        W39605   1.528   5.102   9.748  0.3687  0.2583 -0.3206
23472W        W39606   8.264   5.661   1.794 -0.0203 -0.0188  0.0066
23473W        W39607  16.148   4.308   0.291  0.4195 -0.0292 -0.1815
23474W        W39608  18.129  19.196   0.214 -0.2357 -0.0561  0.0229
23475W        W39609   3.823   6.748   2.719  0.3231 -0.1062  0.1621
23476W        W39610   9.964   0.101   9.403 -0.2152 -0.1684  0.3210
23477W        W39611  15.599   6.635  14.576  0.0726  0.1267  0.0645
23478W        W39612   3.142   6.171  12.694 -0.0348  0.3192  0.0033
23479W        W39613  13.941  10.233  13.586 -0.0168 -0.3391  0.3397
23480W        W39614  15.216   7.912   1.900  0.3442 -0.1099 -0.1332
23481W        W39615  11.144  15.466  13.863 -0.0814  0.3146  0.1310
23482W        W39616  17.315   0.394  14.071  0.0942  0.0043 -0.2123
23483W        W39617   8.036  18.586  11.778  0.0784 -0.0135 -0.2759
23484W        W39618  16.524  15.304   1.703 -0.1791 -0.2037 -0.0620
23485W        W39619   1.262   8.114   1.562 -0.1218 -0.5000 -0.1602
23486W        W39620   1.914   0.260   2.486  0.1579 -0.3187  0.1944
23487W        W39621  14.200  12.147   1.727 -0.0484 -0.0733  0.2056
23488W        W39622  13.374   6.401   3.891 -0.3242 -0.2831 -0.0853
23489W        W39623  12.084   5.833   3.076  0.0707  0.2657  0.1447
23490W        W39624   0.333  15.911  12.889  0.1176 -0.0388 -0.2389
23491W        W39625   9.831  12.932  11.771 -0.1640 -0.0790  0.2191
23492W        W39626   0.199  15.072   2.331 -0.1659  0.0253  0.1085
23493W        W39627  17.732  14.992  13.238  0.1633  0.1833 -0.4415
23494W        W39628  12.168   0.210  13.849  0.1279 -0.1661  0.0495
23495W        W39629   9.064   0.087  13.511 -0.1445 -0.4313 -0.0554
23496W        W39630   6.973   0.447   5.578  0.2039 -0.0272  0.3533
23497W        W39631   7.608  11.894  13.909  0.0891  0.3129 -0.2837
23498W        W39632   4.177   0.254   2.087 -0.4257  0.3454 -0.0894
23499W        W39633  16.699   0.750  11.104  0.0776 -0.0350 -0.0256
23500W        W39634  12.789  17.076  14.158 -0.1946  0.1839 -0.2021
23501W        W39635  13.887  10.854   2.765  0.2278  0.1723  0.1930
23502W        W39636  18.367   2.871  11.077  0.1794 -0.0452  0.2666
23503W        W39637   8.362  13.927   1.479 -0.2643 -0.0743  0.0848
23504W        W39638  18.136  11.470   2.156  0.0709  0.2762  0.3829
23505W        W39639   0.675   1.407   0.685  0.0458  0.4692  0.1246
23506W        W39640  12.706   4.288  13.323  0.2364  0.1774  0.3158
23507W        W39641   0.343  10.827  11.992 -0.0299  0.0779 -0.1472
23508W        W39642   1.184   0.163   5.182  0.0104  0.0940  0.0076
23509W        W39643  10.696   5.342  14.038 -0.0916 -0.1167 -0.0219
23510W        W39644   2.673   6.382   2.569 -0.1795 -0.0638  0.0269
23511W        W39645   6.755   6.171   4.366  0.0343 -0.1205 -0.0359
23512W        W39646   7.546  13.124  12.851 -0.0238 -0.0616  0.1220
23513W        W39647  16.899   4.826  13.328 -0.1734  0.2271  0.1678
23514W        W39648   9.837   1.498  10.285 -0.1022  0.0893  0.1069
23515W        W39649   2.118   3.854  11.599  0.0766  0.0858 -0.0581
23516W        W39650  10.950   2.174   4.245 -0.0280 -0.3253  0.2309
23517W        W39651  17.601  12.716  11.561  0.0006 -0.0528 -0.1955
23518W        W39652  18.009   9.182   1.507  0.0875  0.0533 -0.2114
23519W        W39653   5.838   1.772  11.387  0.0036  0.1449 -0.2301
23520W        W39654   2.147  16.554   2.570 -0.0293 -0.3549  0.2940
23521W        W39655  18.683  13.475   1.696 -0.1362  0.1395 -0.1875
23522W        W39656   7.905  18.522   2.553  0.0439  0.0699 -0.0574
23523W        W39657  14.416   9.419  14.741 -0.0316  0.0549  0.0658
23524W        W39658   5.177  15.884  11.602  0.0858 -0.2267  0.3817
23525W        W39659  11.730   9.959   3.726 -0.3077  0.1257  0.0255
23526W        W39660   7.476  10.660  13.234  0.2103  0.0122 -0.1730
23527W        W39661   4.071  14.985  10.540  0.3064  0.1261 -0.0976
23528W        W39662  15.342   1.322   1.365 -0.0404  0.2708  0.0810
23529W        W39663   4.774   7.729  12.836  0.2553  0.0293 -0.0117
23530W        W39664  19.237  12.219   4.192 -0.3806  0.2623 -0.1960
23531W        W39665   6.071   3.201   2.026  0.0529  0.3963 -0.3585
23532W        W39666   3.287   9.397   4.822 -0.1176  0.0267 -0.0352
23533W        W39667   1.751  16.348  10.313  0.0688 -0.4588 -0.3474
23534W        W39668  10.182  11.379   4.151 -0.2327  0.0149  0.3536
23535W        W39669  14.245  14.006  13.699 -0.3954 -0.1825  0.0267
23536W        W39670  15.924  16.780   0.589 -0.2507  0.1244  0.0223
23537W        W39671  13.294   0.775  14.007 -0.0468  0.2807  0.1170
23538W        W39672  16.329  12.608   2.035  0.3232 -0.2938 -0.2350
23539W        W39673   0.162  18.868   0.316  0.2599 -0.1233  0.0955
23540W        W39674   4.443   4.661  10.294  0.2925 -0.0774  0.1165
23541W        W39675   2.915   1.150   1.981 -0.0192 -0.0807 -0.1562
23542W        W39676   6.438   1.080  11.002  0.2734 -0.1279  0.1443
23543W        W39677   8.827   5.670   2.648  0.0157  0.1592  0.3561
23544W        W39678   8.909   6.443   1.566  0.0436  0.2705 -0.1991
23545W        W39679   5.012  17.768   2.926 -0.1136 -0.1443  0.1949
23546W        W39680  14.134  17.246   4.653 -0.3380  0.0647 -0.0326
23547W        W39681  16.701   8.348   0.540  0.0975 -0.0792  0.2831
23548W        W39682   4.424  14.948   0.098  0.1057  0.3353 -0.1856
23549W        W39683  10.549   8.162  12.394 -0.0290 -0.3646  0.3497
23550W        W39684  12.658   9.272   3.763  0.1940  0.0580  0.0457
23551W        W39685   9.122  16.235   1.264  0.0707  0.0603  0.2350
23552W        W39686   0.773  13.689   0.517 -0.0018  0.4224  0.2593
23553W        W39687  17.250  17.067  11.533 -0.1033  0.2980 -0.1506
23554W        W39688   7.142  15.301   0.084  0.1756  0.2280 -0.2633
23555W        W39689   5.652   4.675   3.689 -0.0666  0.0384 -0.2663
23556W        W39690   3.461   1.752  10.468 -0.2644 -0.1574 -0.0616
23557W        W39691  15.995  15.065   2.460 -0.0275 -0.0022  0.0400
23558W        W39692   5.368   4.455   0.082 -0.1121  0.2147  0.0207
23559W        W39693   1.953   2.096   2.118 -0.0999 -0.2008 -0.4554
23560W        W39694   1.548  10.053   0.292 -0.2114 -0.1738 -0.0195
23561W        W39695   2.286  17.272   4.817  0.1578 -0.3063 -0.3662
23562W        W39696  16.495  17.153   1.892 -0.0268 -0.2752  0.0059
23563W        W39697   6.168  19.109  15.037  0.1052 -0.0412  0.0384
23564W        W39698   9.206   8.431   2.735 -0.1677  0.0907  0.0161
23565W        W39699   7.563  14.296   3.814  0.2475 -0.0978 -0.1902
23566W        W39700  14.716   0.819   2.457 -0.0800  0.0904  0.0548
23567W        W39701  11.686   9.753   4.785 -0.3746  0.3864 -0.3256
23568W        W39702  15.260   0.144  12.917 -0.1376 -0.3507 -0.0561
23569W        W39703   4.996   3.196  12.673 -0.3356 -0.1022  0.0855
23570W        W39704   4.445  13.056   0.344 -0.1294  0.0171 -0.1506
23571W        W39705   7.573  17.547   0.750  0.2274  0.2332  0.1657
23572W        W39706   0.650  17.936   2.388  0.2826  0.3335 -0.1556
23573W        W39707   5.644   4.891  12.155 -0.0288  0.0990 -0.3109
23574W        W39708  14.105   4.495  10.072 -0.0974  0.2332  0.0677
23575W        W39709   9.868   9.399  12.785 -0.2873 -0.0263 -0.0823
23576W        W39710   0.753   6.109  13.268 -0.0312  0.1608 -0.2528
23577W        W39711  17.893  13.145   9.604 -0.4339  0.0268  0.1114
23578W        W39712   7.501   5.102  12.125 -0.0335 -0.3768  0.1051
23579W        W39713   9.307   7.671  13.219 -0.0071  0.1451 -0.1731
23580W        W39714   2.414   1.180   3.865  0.1509 -0.2483 -0.0671
23581W        W39715  13.477   9.983  12.748  0.0531 -0.1172  0.2493
23582W        W39716  16.806  12.381   4.064 -0.0879 -0.0784 -0.0622
23583W        W39717   4.064   9.662   2.240  0.3514  0.0260  0.3114
23584W        W39718  11.015   1.351  12.993  0.1191 -0.1773  0.0597
23585W        W39719   5.139  13.258   4.378  0.0229 -0.0763  0.0609
23586W        W39720   6.484  16.862   2.961 -0.0212  0.3609  0.3910
23587W        W39721   9.549   4.314  11.720  0.0397  0.1719 -0.1756
23588W        W39722   7.804   9.725   2.294 -0.1175 -0.0950 -0.1502
23589W        W39723  10.046  17.990   0.718 -0.0749  0.2697  0.1808
23590W        W39724   6.149  14.191   0.919  0.0765 -0.1372  0.1154
23591W        W39725  17.035  10.249   3.048  0.0087 -0.1745  0.1046
23592W        W39726  14.839   4.833  13.524  0.0041 -0.1839 -0.0361
23593W        W39727   6.670  11.799   5.007 -0.3037  0.0084 -0.0542
23594W        W39728  13.311  10.296   1.938  0.1404  0.0032 -0.2403
23595W        W39729   5.797  11.213  13.172 -0.0758 -0.1242  0.0893
23596W        W39730  15.579   1.604  12.730  0.0341  0.2414 -0.0121
23597W        W39731  16.474  18.490   4.904  0.1165  0.0722 -0.1247
23598W        W39732  10.916  15.269   0.613 -0.0541  0.1626 -0.2741
23599W        W39733   5.660   0.989   2.787  0.1297 -0.0025 -0.0553
23600W        W39734  10.990   9.530  12.104  0.0552  0.1851  0.0621
23601W        W39735  15.130   0.277   4.532  0.0661  0.0106  0.0103
23602W        W39736  16.986  12.345  10.631 -0.3587 -0.0132  0.2498
23603W        W39737  16.718   6.121  13.384 -0.0980 -0.0117  0.0622
23604W        W39738   3.227   9.797  12.967  0.1648 -0.1530  0.4299
23605W        W39739   8.842  11.058   3.062  0.2421 -0.1454  0.2433
23606W        W39740   2.928   9.472  10.498 -0.2231  0.2034  0.0202
23607W        W39741  14.035   1.742  10.069  0.0098  0.2754  0.0802
23608W        W39742   6.898  17.773   1.866  0.1900 -0.0805 -0.0272
23609W        W39743  13.038   7.526  10.887 -0.1953  0.3048  0.3409
23610W        W39744  16.868   4.359   4.174 -0.0086  0.0419  0.3261
23611W        W39745  15.399   3.827  11.967  0.1642  0.3186  0.2000
23612W        W39746  12.951  12.207   5.782 -0.2967  0.1911 -0.2785
23613W        W39747   7.693   1.815  11.947  0.0629  0.1667  0.0110
23614W        W39748  17.614   5.658  14.044  0.3492 -0.0761  0.5462
23615W        W39749  15.442  13.187   1.365  0.2580 -0.2606  0.0111
23616W        W39750   5.121  12.380   1.967 -0.2012 -0.0705  0.0892
23617W        W39751   6.011   5.822  14.232 -0.0460  0.0917 -0.1716
23618W        W39752  11.821   9.287  14.132  0.2919 -0.0062 -0.0346
23619W        W39753  12.882   4.435   0.778  0.0035 -0.1988 -0.0491
23620W        W39754  13.071  14.673  10.711  0.1120  0.2237 -0.0690
23621W        W39755   3.320   1.769  14.438  0.0844 -0.1686 -0.0285
23622W        W39756   3.627   3.387  10.508 -0.3708 -0.1287  0.0685
23623W        W39757  12.341   2.482  13.432 -0.1892  0.2892 -0.2316
23624W        W39758   3.423   4.826  12.864 -0.0822 -0.1180 -0.4068
23625W        W39759  18.793   8.273  13.944 -0.2781 -0.2812 -0.2978
23626W        W39760   2.246  18.842  12.419 -0.0323  0.3426  0.2407
23627W        W39761   3.269  14.985  10.972 -0.0800  0.2410  0.0873
23628W        W39762   0.460   7.924   1.154  0.0301  0.1725  0.1829
23629W        W39763  14.225   5.723   3.650  0.1274  0.2443 -0.2973
23630W        W39764   5.054  14.406   3.628 -0.1675  0.0279  0.1041
23631W        W39765  10.894  17.216   0.627  0.1910 -0.0852  0.1138
23632W        W39766   9.417  11.493   0.937  0.1518 -0.0952  0.1271
23633W        W39767   2.946  19.180  13.019 -0.0837  0.0713 -0.0026
23634W        W39768  14.031   3.769   0.237 -0.0107  0.0841 -0.0507
23635W        W39769   0.794   6.234  10.181  0.1454  0.0884 -0.3717
23636W        W39770  13.454   7.338   4.131 -0.0876  0.0715  0.3591
23637W        W39771   9.188   1.496   0.560  0.0746 -0.0488 -0.1958
23638W        W39772  11.069  15.802   4.789 -0.0156 -0.2234  0.1464
23639W        W39773   7.320  18.387  13.769  0.3196  0.4142 -0.1285
23640W        W39774   0.261  10.157   2.989 -0.0920  0.1593  0.0937
23641W        W39775   6.167  17.662  10.739  0.1551  0.2176 -0.0616
23642W        W39776  11.637   6.040  10.137  0.0110  0.1524 -0.1645
23643W        W39777  12.615  17.551   1.663  0.2188 -0.2118 -0.1200
23644W        W39778   3.089   6.109   0.787  0.1220 -0.0383 -0.0999
23645W        W39779   7.550   2.821  10.104 -0.0860  0.1988  0.0165
23646W        W39780  17.728   7.376   3.298 -0.0303 -0.1236  0.2122
23647W        W39781  13.915  13.067  11.348  0.1654 -0.2853 -0.2547
23648W        W39782  17.745   2.892   1.501  0.0265 -0.0652  0.0320
23649W        W39783  17.425   7.089   2.602 -0.1218  0.0087  0.0651
23650W        W39784   4.078  12.493  14.208  0.1719 -0.2279 -0.1849
23651W        W39785   5.210  10.967  10.741  0.0156 -0.0097 -0.4770
23652W        W39786   2.554  17.429   2.109 -0.1640  0.1631 -0.1761
23653W        W39787   8.159  18.289   5.540  0.2661 -0.0883 -0.0542
23654W        W39788  10.345   9.817   4.804 -0.2597 -0.0693  0.0642
23655W        W39789   4.499  12.247  14.913  0.0740  0.1433 -0.1946
23656W        W39790  13.529  16.128   0.959 -0.1936 -0.2228 -0.0794
23657W        W39791   3.547  10.384   3.980 -0.0281  0.2077 -0.1766
23658W        W39792   5.422   2.876   3.400 -0.1659  0.0092  0.0679
23659W        W39793  12.099  18.392   1.347 -0.3135  0.0192 -0.1005
23660W        W39794  18.779  14.284   3.536  0.0661  0.1059 -0.2123
23661W        W39795  14.396  15.176   1.582  0.3860  0.1509 -0.0767
23662W        W39796   3.302   9.402   1.678 -0.0403  0.2653 -0.1468
23663W        W39797  10.323  17.186   9.195  0.2935 -0.2219 -0.0910
23664W        W39798   2.823   4.458  14.222 -0.0859  0.0771 -0.1774
23665W        W39799   4.659  13.972   1.504 -0.1685 -0.2322  0.0303
23666W        W39800  16.567   9.825  11.142  0.2846  0.1247 -0.1781
23667W        W39801   5.327   1.340   2.826 -0.2016 -0.0687 -0.3014
23668W        W39802  13.653  11.259   3.738  0.1644  0.0717  0.2839
23669W        W39803  17.118  18.127   0.117  0.1762 -0.0386  0.1812
23670W        W39804  10.469  15.993  14.135  0.1845  0.1935  0.0838
23671W        W39805  13.705  17.513  13.752  0.0292 -0.0285  0.1022
23672W        W39806   2.927   7.678  11.119  0.1423  0.0613 -0.3542
23673W        W39807  10.860   7.035   0.617 -0.0503  0.0558 -0.3679
23674W        W39808   8.025   2.877   0.696  0.0793  0.1457  0.0156
23675W        W39809  10.965   2.020  14.658  0.0633  0.2612  0.1627
23676W        W39810  17.727   6.033  13.655 -0.1037  0.2605  0.2391
23677W        W39811   4.736  17.392  14.830 -0.2055  0.2258 -0.2755
23678W        W39812   8.494  11.621  11.261  0.0733  0.3280 -0.2588
23679W        W39813  16.468   0.655   0.538 -0.0724  0.1050  0.1766
23680W        W39814   0.298   7.848  11.586  0.4769 -0.1961 -0.0373
23681W        W39815   8.529  11.054  11.916  0.2925  0.0250 -0.0986
23682W        W39816   6.242   9.330   2.365 -0.0430 -0.1774  0.0025
23683W        W39817   5.298   4.990   3.405 -0.0265 -0.2294  0.2899
23684W        W39818  16.846   5.087  12.058 -0.0476  0.1253 -0.0073
23685W        W39819   1.638  14.040   4.307 -0.1583  0.0813 -0.0971
23686W        W39820  12.324  13.504   2.356 -0.1593 -0.4253 -0.2393
23687W        W39821   2.258   7.829   1.855 -0.0545  0.1139  0.1483
23688W        W39822  19.139   0.022  13.143 -0.0182 -0.0148 -0.2286
23689W        W39823   6.234   8.204  11.954 -0.4631 -0.2162  0.3935
23690W        W39824  14.297  14.966  15.017  0.1810  0.0749  0.4442
23691W        W39825  16.465  17.256  11.501  0.0692  0.0530 -0.0188
23692W        W39826   6.985   2.963  13.593  0.0380 -0.0210 -0.0514
23693W        W39827  10.899  15.704   4.226  0.2540 -0.0594  0.1745
23694W        W39828   7.888  11.873  12.442  0.4053 -0.0934  0.1851
23695W        W39829  13.105   2.701   2.812  0.1698  0.1963 -0.2167
23696W        W39830  17.240  14.703   0.420  0.2050 -0.0356  0.0701
23697W        W39831  18.696   5.243  13.859  0.0290  0.1011  0.0698
23698W        W39832   8.448  11.486   2.045  0.1850 -0.1534  0.0635
23699W        W39833   6.040   5.521   2.423 -0.1425 -0.2510  0.2555
23700W        W39834  14.658  13.119   3.406  0.4508 -0.0228  0.4254
23701W        W39835  18.372  13.580   3.550 -0.0769  0.0886 -0.0573
23702W        W39836   8.960  10.956  14.483  0.0278 -0.0668  0.2275
23703W        W39837  13.830  11.617   0.933 -0.0639  0.4393  0.0035
23704W        W39838  14.784  16.769   5.249 -0.0313 -0.0271 -0.1832
23705W        W39839   0.629  14.985   4.346  0.0262 -0.0686 -0.3960
23706W        W39840   4.188   0.280  11.005  0.3102  0.0803  0.0860
23707W        W39841  17.664  13.653  10.456 -0.1991  0.0252  0.2345
23708W        W39842   2.654   5.303   9.749  0.0477 -0.6930 -0.0626
23709W        W39843   5.920  14.655   4.618  0.0065 -0.0608 -0.0185
23710W        W39844   5.881   7.480   0.514 -0.1439 -0.0055 -0.0277
23711W        W39845   6.538   0.038   1.850  0.0878  0.0417 -0.2297
23712W        W39846   1.971   7.363  12.773  0.0410 -0.0966  0.0703
23713W        W39847  12.236   9.164  12.400  0.1141  0.0013  0.2360
23714W        W39848  11.256   0.928   3.016  0.0624 -0.1536  0.1861
23715W        W39849  10.915   3.157  14.415  0.0007  0.2262 -0.3099
23716W        W39850   0.766  11.331   1.180 -0.3041  0.0092 -0.1266
23717W        W39851   1.176  12.746   1.570  0.2838 -0.3945  0.2871
23718W        W39852   2.496  13.959  14.625 -0.0026  0.5025  0.4009
23719W        W39853   0.482   1.801   9.777  0.4943 -0.0678  0.0597
23720W        W39854   4.015  11.546   0.912  0.4093 -0.0352  0.1935
23721W        W39855   1.412  14.063  13.231  0.0183 -0.1470 -0.2006
23722W        W39856  18.958  14.942   4.043 -0.2054  0.1398  0.0049
23723W        W39857   9.148  11.712  12.574  0.0486  0.0600  0.0653
23724W        W39858   0.889   4.664  13.081  0.0144 -0.1462  0.2406
23725W        W39859  10.406   6.789  15.029 -0.0044  0.4847  0.1649
23726W        W39860   6.360   6.564  13.014 -0.1191  0.2388 -0.1173
23727W        W39861   8.110  10.572   5.419 -0.1163 -0.0895  0.0655
23728W        W39862   3.454   8.862  13.762 -0.0905  0.1253  0.3751
23729W        W39863  13.212  13.554  12.432 -0.0334  0.0018  0.3391
23730W        W39864   8.050   6.436  13.263  0.2083  0.2037  0.1077
23731W        W39865   3.207   8.477   3.320 -0.3334 -0.1380 -0.2663
23732W        W39866   8.197   5.460  13.492  0.0397  0.4953  0.1029
23733W        W39867   9.639  11.866  12.644 -0.0234 -0.0059 -0.0678
23734W        W39868   6.260  13.438   0.306 -0.0646 -0.2612  0.1015
23735W        W39869  16.422   2.940   0.987 -0.0711 -0.0644 -0.0519
23736W        W39870   2.127   0.496  14.479 -0.0218  0.0417  0.0704
23737W        W39871  13.048  15.612   4.094 -0.0307 -0.1852 -0.1702
23738W        W39872   8.312   7.456   0.342  0.3272  0.1824 -0.0300
23739W        W39873  14.254  10.280  12.365 -0.1055 -0.1238 -0.0487
23740W        W39874   7.131   0.347  13.776  0.0142 -0.3155 -0.0937
23741W        W39875   0.280   2.461   5.161  0.0641  0.3280  0.2372
23742W        W39876   3.771   6.294   3.266  0.2229  0.1541  0.0290
23743W        W39877   7.359   4.482   3.510 -0.0716  0.0445  0.1086
23744W        W39878   3.740  15.656  11.142 -0.2359  0.2105  0.1488
23745W        W39879  17.324  17.690   4.486  0.0357 -0.2144  0.1883
23746W        W39880  11.930  18.147   0.855  0.1152 -0.1423  0.3445
23747W        W39881   6.030   7.072  10.282 -0.1200  0.0911  0.1203
23748W        W39882   7.344   0.415   0.057 -0.1807 -0.0567 -0.3059
23749W        W39883   4.835  19.076  10.697  0.0985 -0.1044  0.2946
23750W        W39884  10.883  19.205  13.108  0.2369 -0.1523 -0.2131
23751W        W39885   8.443  12.717  13.845  0.1377 -0.2545 -0.0295
23752W        W39886   2.266  17.596   0.285 -0.0437 -0.1720 -0.0218
23753W        W39887  13.033  12.928   3.603 -0.0611  0.1914  0.0391
23754W        W39888  10.847   8.040   4.596  0.0319 -0.1773  0.1508
23755W        W39889  11.446   1.595   0.438 -0.2901 -0.2767 -0.0256
23756W        W39890   5.511   2.607   0.427  0.1497  0.3404  0.0827
23757W        W39891   8.936  18.050   0.441 -0.2567  0.0472  0.3090
23758W        W39892  16.050  17.139   0.251  0.2237 -0.3305 -0.3984
23759W        W39893   4.739   6.162   0.760 -0.2114  0.2261 -0.3471
23760W        W39894   1.325   4.990  14.028 -0.2169  0.0677 -0.1080
23761W        W39895   6.092   3.438   3.687 -0.3088 -0.0527 -0.0850
23762W        W39896   1.668  12.021  12.521  0.0408  0.2715  0.2687
23763W        W39897  13.346  15.927   1.390  0.0048  0.0576 -0.0652
23764W        W39898   2.091  11.303   1.318 -0.1511 -0.3000  0.2097
23765W        W39899  14.125  10.053   0.415  0.2541  0.2331  0.0611
23766W        W39900  12.639   0.910   1.330 -0.1308  0.1428 -0.0248
23767W        W39901  16.426  17.302   3.267 -0.1859  0.0273  0.0091
23768W        W39902   0.208   7.494   0.920  0.2221  0.0340  0.0663
23769W        W39903   7.504  16.163  12.075 -0.2424  0.1536 -0.0898
23770W        W39904  11.062   8.212   3.046 -0.1947  0.0352  0.3547
23771W        W39905   2.633  13.891   0.117  0.3731  0.0671  0.0613
23772W        W39906  10.855   6.185  13.392 -0.0731 -0.2964 -0.3670
23773W        W39907   2.693   8.752   0.425 -0.2780  0.1923  0.4156
23774W        W39908  12.894  18.325   4.178 -0.3386  0.1036  0.2114
23775W        W39909   0.295  12.673  14.043 -0.0329 -0.4292 -0.2339
23776W        W39910  14.141  10.140   9.672  0.1214 -0.3717  0.4125
23777W        W39911   8.287   8.651  13.949 -0.0517 -0.1737 -0.0405
23778W        W39912  13.253   6.301   1.165  0.0494 -0.0871  0.0419
23779W        W39913  13.549  10.763  13.144 -0.1398 -0.3419 -0.0179
23780W        W39914   4.968  13.499  12.089 -0.1901 -0.5048  0.0486
23781W        W39915   2.688  16.929   0.636  0.1444  0.1005 -0.0463
23782W        W39916   9.451   4.101  14.937 -0.0653  0.2127 -0.2096
23783W        W39917  12.577   9.281   3.260 -0.0654  0.2696  0.0179
23784W        W39918  13.561  15.425   3.954 -0.0618 -0.2491  0.1795
23785W        W39919  10.217   7.084   3.710  0.0648 -0.0140  0.0562
23786W        W39920  11.927   3.343  13.820  0.4426 -0.2068  0.2125
23787W        W39921   0.171   8.239  10.477  0.0206 -0.2268  0.0166
23788W        W39922   1.441  18.888  12.928 -0.1210  0.0730 -0.0458
23789W        W39923   6.086   5.690   1.965 -0.1906  0.1064  0.1768
23790W        W39924   9.699  10.502   2.823  0.0743 -0.0345  0.1547
23791W        W39925  17.659   2.897  10.155 -0.0361  0.0153  0.5091
23792W        W39926   4.971   2.273   4.282 -0.1836 -0.0701 -0.3761
23793W        W39927  12.351  17.132   1.758  0.1312  0.0066  0.2430
23794W        W39928  15.149  18.561   4.531  0.0400 -0.1210 -0.0599
23795W        W39929   3.056  13.052  13.071  0.1904  0.1404  0.2488
23796W        W39930   1.908   5.521   1.486  0.0286  0.0462 -0.2667
23797W        W39931  16.511  16.704  13.550  0.0634  0.2137  0.0529
23798W        W39932   2.351   8.551   5.043 -0.1415 -0.1520 -0.0121
23799W        W39933  12.083  12.609   3.979 -0.0411  0.0734  0.1810
23800W        W39934   0.723  14.697   3.519  0.1277 -0.1921  0.2160
23801W        W39935  15.183   8.349   3.839 -0.3038 -0.4630  0.2327
23802W        W39936  15.104  11.922   1.628  0.0994  0.0076  0.4021
23803W        W39937  18.204   7.064   3.340  0.1022  0.0988 -0.1863
23804W        W39938  16.593  13.798   4.923 -0.0863  0.1093 -0.3890
23805W        W39939  18.993  14.913   0.612 -0.0148  0.0808  0.0182
23806W        W39940  11.337  10.064  13.088  0.1474 -0.0856 -0.2077
23807W        W39941   9.950   9.706   5.111 -0.1404  0.0562  0.2742
23808W        W39942  15.456  13.568   2.762  0.1297  0.0397 -0.0413
23809W        W39943   2.840   2.577  12.444  0.1395 -0.0917 -0.0485
23810W        W39944   8.566  13.399  13.299  0.2517 -0.3610 -0.0350
23811W        W39945   8.294  13.305  13.789  0.0447 -0.1002  0.0006
23812W        W39946   2.020  11.424   3.666  0.0398  0.1443 -0.1379
23813W        W39947   5.867   7.881   4.166  0.2725  0.1833  0.0516
23814W        W39948   6.153   7.476  12.717 -0.0685  0.4120 -0.1660
23815W        W39949  17.327  17.464   2.277 -0.2055 -0.0747 -0.2283
23816W        W39950   3.175   4.167  10.286  0.1743 -0.1640 -0.1696
23817W        W39951  13.423   3.518   3.027 -0.0913  0.3980 -0.2036
23818W        W39952  16.088  15.582  11.230 -0.1037 -0.0918  0.0029
23819W        W39953  18.395   3.977   0.200 -0.1750  0.3182  0.1174
23820W        W39954   9.276   5.262  12.402  0.0815  0.2558 -0.0994
23821W        W39955   4.198  14.662  14.159  0.0523 -0.2177  0.1058
23822W        W39956   1.924  18.258   0.781 -0.0061  0.2356 -0.1543
23823W        W39957   6.166  10.680  14.212 -0.4052 -0.1119 -0.2798
23824W        W39958   3.337  15.174   3.219  0.0709  0.1930 -0.3522
23825W        W39959  13.474  14.965  14.709 -0.1445  0.2857  0.1407
23826W        W39960  12.928  11.407  12.269 -0.1078  0.0746 -0.0748
23827W        W39961  16.858   4.304  13.250 -0.0150 -0.0190 -0.0986
23828W        W39962   2.111   8.981   0.520 -0.0382  0.2331  0.1388
23829W        W39963   2.949  12.721   4.941 -0.0880  0.0025  0.1075
23830W        W39964  13.450   5.266   2.549 -0.0769 -0.1092  0.0500
23831W        W39965  13.669   3.613  10.313 -0.0312  0.1100 -0.3686
23832W        W39966   3.895   1.239   1.714 -0.3227  0.1779 -0.1253
23833W        W39967   5.824  18.303  14.683 -0.1665 -0.4669 -0.6937
23834W        W39968   8.922  14.971   9.488  0.2198 -0.2199  0.1011
23835W        W39969   1.679   3.379  10.895  0.1083  0.1948 -0.0760
23836W        W39970  11.132   1.152   3.470 -0.1224 -0.1951  0.1404
23837W        W39971   0.715   9.296   5.073 -0.1749 -0.2101  0.0410
23838W        W39972  16.924  16.947  11.129 -0.0598 -0.1477  0.2161
23839W        W39973   2.659  17.355   0.980  0.0660  0.1070 -0.1605
23840W        W39974   7.176   4.644  13.286  0.2745  0.0597 -0.0431
23841W        W39975  15.525   2.617   3.816  0.0125  0.4130  0.1430
23842W        W39976  12.660  16.406  11.739 -0.1962 -0.2359  0.1518
23843W        W39977  14.436  11.750   1.929  0.3770  0.0203 -0.1656
23844W        W39978  16.015   5.864   4.632  0.0950  0.1380 -0.0653
23845W        W39979   8.118   4.031   9.809 -0.2193 -0.0312  0.0727
23846W        W39980   7.272  10.097   0.501 -0.2352 -0.0409  0.0719
23847W        W39981   8.426  12.899   5.266  0.0880  0.3479  0.1307
23848W        W39982   0.894   6.717  10.284 -0.0906  0.3499 -0.1690
23849W        W39983   8.839  13.994   9.299  0.0877 -0.0268  0.0705
23850W        W39984  12.780   4.370   3.919  0.0129 -0.0164 -0.1594
23851W        W39985   3.318  14.625   4.420 -0.1311  0.2391 -0.0502
23852W        W39986   2.626   3.658   0.655 -0.0368 -0.1628  0.0141
23853W        W39987   6.001   8.717   1.955  0.3743 -0.0433 -0.1723
23854W        W39988   7.623  12.838   0.105  0.2387  0.1730 -0.3071
23855W        W39989  16.968   1.288  10.306 -0.2462  0.0114 -0.1967
23856W        W39990  16.379   8.773   0.214 -0.1635 -0.1332  0.0019
23857W        W39991   6.434   7.422  11.380 -0.1051  0.2617 -0.0676
23858W        W39992  13.858   9.907  13.980 -0.0444  0.1065  0.2490
23859W        W39993   9.083   5.991   1.782 -0.3149 -0.3082  0.1042
23860W        W39994  16.016  15.362  14.209 -0.0743  0.0073  0.0143
23861W        W39995  16.296   0.929   2.957 -0.0325 -0.1469  0.0231
23862W        W39996  17.009   6.184   0.221  0.3335 -0.2700 -0.0382
23863W        W39997  16.462  17.781   2.987  0.0217  0.0171 -0.2373
23864W        W39998   8.316  17.361   5.748 -0.0591 -0.1816  0.1576
23865W        W39999   0.689   7.355  13.977 -0.0466 -0.1879  0.1349
23866W        W40000   4.482   0.320   3.502  0.3222  0.0126  0.0833
23867W        W40001   6.324  19.176   0.861 -0.3722 -0.1193  0.1465
23868W        W40002   3.305   3.383  12.862 -0.0540  0.0359 -0.1183
23869W        W40003   8.192   9.706  11.173 -0.1032 -0.5887 -0.1491
23870W        W40004   5.819  15.286   0.241 -0.0786  0.0853 -0.1164
23871W        W40005   7.283  13.428   5.707  0.0279  0.3074  0.0859
23872W        W40006  10.701  13.253   0.445  0.0733  0.2860 -0.0419
23873W        W40007  11.482   6.171   3.811  0.0526 -0.0009 -0.2649
23874W        W40008  18.869   3.221   5.330 -0.3344  0.1138 -0.1646
23875W        W40009   4.512  18.671   1.644 -0.0930  0.3114 -0.2045
23876W        W40010  14.673   0.921   1.976  0.2425  0.2451 -0.2282
23877W        W40011  13.639   7.201  12.564 -0.1331 -0.2035 -0.0900
23878W        W40012   9.679   4.441   4.810 -0.0703 -0.1286 -0.0411
23879W        W40013  12.287  12.887   2.230 -0.5183 -0.0712  0.2885
23880W        W40014  10.884  18.305   4.174  0.2480  0.0227  0.0431
23881W        W40015   2.107   6.028   1.672 -0.0482 -0.3771  0.1794
23882W        W40016  17.350  10.050  14.034  0.0720  0.1007  0.0181
23883W        W40017  12.216   0.637  13.588  0.1156 -0.2716  0.0945
23884W        W40018  18.746  10.327  12.327 -0.3575 -0.3248 -0.0415
23885W        W40019  13.925  13.821  11.908  0.0446  0.1312 -0.1814
23886W        W40020   8.182   0.929  13.123 -0.1593 -0.1954 -0.0329
23887W        W40021   5.289  10.563  14.203 -0.4264 -0.2416 -0.0015
23888W        W40022  12.682   7.872   4.593  0.1539 -0.1169  0.1414
23889W        W40023  13.516  15.057  13.660 -0.0027  0.1039  0.4548
23890W        W40024   1.411   7.819   4.277  0.2151 -0.3310 -0.0630
23891W        W40025   3.442   4.910  10.833  0.5694 -0.0726  0.0535
23892W        W40026  15.094  13.761   4.578 -0.0948 -0.0659 -0.3415
23893W        W40027   7.842   1.372   1.064  0.1129 -0.1529 -0.0182
23894W        W40028   3.004  17.854  10.838  0.1298 -0.0551  0.0251
23895W        W40029  16.024   3.809   0.153 -0.0239 -0.0739 -0.1387
23896W        W40030   3.150   9.186   3.531 -0.0795  0.0012 -0.1853
23897W        W40031  14.469  18.357   0.552 -0.1816  0.2973 -0.1671
23898W        W40032   5.729   5.773  11.014  0.2464  0.0439 -0.1062
23899W        W40033   0.317   1.747   1.593  0.0816  0.1104 -0.4088
23900W        W40034  15.488  17.827  14.334 -0.0630 -0.0745 -0.0309
23901W        W40035   2.778  18.215  10.562 -0.1424  0.3853 -0.4350
23902W        W40036   9.023   1.425   2.442  0.1072 -0.1475 -0.1038
23903W        W40037  14.123  13.497  11.577 -0.2174  0.2851 -0.1820
23904W        W40038   5.790  17.936   0.740  0.0843  0.0835  0.1666
23905W        W40039   7.606  11.475  11.528  0.4357 -0.0908 -0.2259
23906W        W40040   0.008  18.852  14.790 -0.1462 -0.1190  0.0574
23907W        W40041   0.764  14.793   4.966 -0.2918 -0.0701  0.1928
23908W        W40042   8.575   7.760   3.236 -0.0059  0.0740  0.2469
23909W        W40043  12.067  13.596   1.021 -0.0198  0.0611 -0.1640
23910W        W40044   3.016   4.628  13.131  0.2346 -0.1882  0.0384
23911W        W40045  14.833   1.924   4.003  0.0340  0.0422 -0.3189
23912W        W40046   4.323   8.500  14.592 -0.1349 -0.1081 -0.0335
23913W        W40047  12.227  10.453  14.919 -0.1744 -0.0153  0.2068
23914W        W40048   9.357  15.595  11.086 -0.0387  0.1848  0.1726
23915W        W40049   2.652   9.857  14.669  0.0810 -0.0486 -0.1208
23916W        W40050  10.256  11.634  14.973  0.2467 -0.1368 -0.1051
23917W        W40051   0.525   3.960   3.289  0.1300 -0.2720 -0.0240
23918W        W40052   5.962  18.757   2.436 -0.1117  0.0380  0.0120
23919W        W40053   5.882   1.691   1.004  0.5018  0.0397 -0.1043
23920W        W40054  15.482   3.238   4.464 -0.0656 -0.0298 -0.1482
23921W        W40055   7.169  17.795   0.578  0.3453 -0.0886 -0.0936
23922W        W40056  17.962   0.152  14.408 -0.2708  0.2607 -0.1301
23923W        W40057   2.263   2.458   1.976  0.1121  0.1304  0.0086
23924W        W40058   7.851  16.291   3.795 -0.0350  0.1281 -0.1839
23925W        W40059   7.281   1.808  14.766 -0.2041  0.1902  0.0575
23926W        W40060   5.051  12.332  12.061 -0.2246  0.1642 -0.0595
23927W        W40061   4.015  10.805   0.541  0.0754 -0.0797 -0.1450
23928W        W40062  14.631   4.948  11.377 -0.1976 -0.0551  0.0021
23929W        W40063   6.335   2.252  14.181  0.1670 -0.2381 -0.1481
23930W        W40064  16.391   8.170   1.669  0.1206  0.0882 -0.1548
23931W        W40065   9.239  11.722   3.740  0.0008  0.1310  0.2227
23932W        W40066  14.516  13.090  14.090 -0.1726  0.0674 -0.0309
23933W        W40067   4.656  12.462  13.622  0.0614  0.2372 -0.0778
23934W        W40068  16.245  18.850   3.864  0.0234  0.1650  0.1162
23935W        W40069   7.786   9.635  14.040 -0.0744 -0.2431  0.0688
23936W        W40070   4.934   2.024  10.973  0.0621 -0.2743 -0.2641
23937W        W40071   2.159  19.120   9.717 -0.0063  0.2072 -0.1509
23938W        W40072   0.410  11.630   2.788 -0.0916 -0.1053 -0.3810
23939W        W40073  13.316  18.927   2.901  0.0236  0.2150  0.0814
23940W        W40074  11.745   0.518   3.979 -0.2000  0.1693  0.1814
23941W        W40075  18.778  10.802   1.233 -0.0063  0.1281  0.0764
23942W        W40076  11.819  14.283  12.287  0.1298 -0.0873 -0.1199
23943W        W40077  16.451   8.921   0.918  0.4460  0.3088 -0.1868
23944W        W40078   4.446  17.566  13.024  0.1474 -0.0038  0.0339
23945W        W40079   5.370  15.179  12.385  0.2018 -0.0472 -0.1098
23946W        W40080   3.635   8.461   3.043 -0.2003 -0.0202  0.1040
23947W        W40081  12.154  14.206   2.815  0.1007  0.2792  0.3136
23948W        W40082   6.841   2.270  14.089  0.1017  0.0487  0.1996
23949W        W40083   7.571  14.906  12.729  0.0433 -0.1468 -0.2215
23950W        W40084   7.496  16.435   4.504  0.0341 -0.1530 -0.0391
23951W        W40085  16.981  13.772   3.860  0.0534  0.1005 -0.0771
23952W        W40086   4.694   2.498   1.070 -0.2189  0.0411  0.0898
23953W        W40087   0.360   3.372   0.619  0.0072 -0.1024  0.2260
23954W        W40088   8.531   9.249   0.164  0.1051  0.4424  0.0936
23955W        W40089  15.667   0.699  11.729  0.1147 -0.0187 -0.0299
23956W        W40090   3.414  12.664   4.678  0.0111 -0.0876 -0.1651
23957W        W40091   9.346   2.663   2.350 -0.0417  0.0782 -0.0823
23958W        W40092  10.156   9.135   3.296  0.0706  0.2266  0.1557
23959W        W40093  14.252  13.087   9.842  0.0269  0.2271 -0.1854
23960W        W40094   5.047   2.971   2.073  0.0936  0.0139 -0.1944
23961W        W40095   6.412  16.254  13.829 -0.3162 -0.0751 -0.5302
23962W        W40096   5.725  12.913  13.622  0.2890  0.1388  0.1723
23963W        W40097   0.937  10.079   2.619 -0.1047 -0.2335  0.2188
23964W        W40098  18.711  16.062  12.880  0.0931 -0.2071 -0.3247
23965W        W40099  11.364   7.253  14.788 -0.0135  0.2175  0.0053
23966W        W40100  13.505   6.761  10.940 -0.1961  0.1585  0.1729
23967W        W40101  15.380   2.977  14.464 -0.0402 -0.0373  0.0946
23968W        W40102  12.415   0.120   4.903  0.3767 -0.1763  0.1085
23969W        W40103   8.605  16.099  14.035 -0.0584  0.0387  0.0505
23970W        W40104   1.895  17.051   1.803 -0.0645  0.0111  0.0038
23971W        W40105  17.451  13.326  13.804  0.0132  0.3618  0.0251
23972W        W40106   2.854  15.739   3.879 -0.2538 -0.4060 -0.2189
23973W        W40107  18.257  11.066  10.678 -0.1340 -0.0081 -0.0198
23974W        W40108  12.896  14.362  14.324 -0.1986  0.1207 -0.1844
23975W        W40109  18.774  12.108   4.264  0.3663 -0.2252 -0.0760
23976W        W40110  11.935  15.286  14.518  0.0916 -0.0891  0.1454
23977W        W40111  15.126  10.709  14.753 -0.0516  0.2364 -0.2714
23978W        W40112   4.808   0.593   3.301  0.3087  0.1391  0.1363
23979W        W40113   8.227  13.388   5.224 -0.0269  0.1478 -0.0625
23980W        W40114  11.464  11.005   3.888  0.2510  0.0231 -0.0922
23981W        W40115   1.665  18.164   3.437 -0.0387  0.1745 -0.0416
23982W        W40116  16.185   5.324  10.851  0.0382  0.0670 -0.0346
23983W        W40117   0.167  18.647  14.328 -0.0911  0.2597  0.4255
23984W        W40118   9.759   8.963  14.521 -0.1869 -0.1507 -0.1960
23985W        W40119   2.339   8.428  11.285 -0.0075 -0.0267  0.0682
23986W        W40120   6.255  11.743  15.039 -0.1278  0.0080  0.1740
23987W        W40121   6.198   8.944  11.751  0.2657 -0.2187  0.0783
23988W        W40122   5.066  10.631  11.147  0.3164 -0.2867 -0.1022
23989W        W40123   2.614  16.953   4.653 -0.0392  0.0124 -0.0554
23990W        W40124   9.714   9.338  10.670  0.1653 -0.4479  0.2613
23991W        W40125  17.492  10.415  13.708 -0.1474  0.0723 -0.1801
23992W        W40126  10.790  17.220  12.243 -0.1029  0.1375  0.0912
23993W        W40127   8.038  12.673   1.320  0.2100  0.0840  0.0407
23994W        W40128   0.151  17.642  13.501  0.2462 -0.0174  0.1803
23995W        W40129   4.753   9.223   1.320  0.1809 -0.0701 -0.0319
23996W        W40130  18.392   7.803  13.387 -0.0243 -0.1962 -0.0207
23997W        W40131   5.619   0.384   1.640 -0.0238 -0.1506 -0.0706
23998W        W40132   4.972  18.779   5.232  0.1805  0.0154 -0.1492
23999W        W40133  18.663  11.316   2.005  0.1089 -0.2442 -0.0165
24000W        W40134   5.433  11.015   2.260 -0.3904  0.0532 -0.3521
24001W        W40135  16.503   4.983  10.481  0.3849  0.2251 -0.0014
24002W        W40136   9.711  10.209  14.508 -0.0364  0.2568  0.0080
24003W        W40137   5.367  19.011  14.960 -0.0726 -0.1346  0.1645
24004W        W40138   9.338  13.105  11.470 -0.0806  0.1808 -0.0603
24005W        W40139  14.400  16.754   2.669 -0.4023  0.0221  0.2574
24006W        W40140   3.313   7.870  12.288  0.2537  0.0493 -0.0061
24007W        W40141  13.453  16.610   1.305 -0.1932  0.0717  0.1505
24008W        W40142   4.443   0.096   0.424  0.0263 -0.3052  0.1935
24009W        W40143   4.439  18.516  11.359  0.2872 -0.2117  0.0214
24010W        W40144  12.725   7.988  10.519  0.1031  0.0397 -0.0008
24011W        W40145   2.173   3.317  12.016  0.0234  0.0017  0.1735
24012W        W40146   4.454  12.223  10.856 -0.3085 -0.0927  0.1204
24013W        W40147  12.796  18.154   3.272  0.2015  0.1282  0.1399
24014W        W40148   4.832  13.589   5.199  0.1058 -0.1641 -0.1356
24015W        W40149   8.580  17.186  11.864 -0.1459 -0.2001 -0.2560
24016W        W40150   2.470  18.684   1.707 -0.0243 -0.1534  0.3795
24017W        W40151   9.582   8.470  14.494  0.0298  0.0669  0.2508
24018W        W40152  18.853   9.409   1.972  0.0076  0.3052 -0.3405
24019W        W40153   5.449  17.782   2.276 -0.2093  0.0634 -0.0194
24020W        W40154   9.709  10.900   2.517  0.1589 -0.0867  0.0591
24021W        W40155   6.877   4.344  10.032 -0.3960 -0.0939 -0.1339
24022W        W40156  12.777   8.254  12.947 -0.4396  0.1128  0.1826
24023W        W40157   4.033   6.101   0.831 -0.2687  0.0324  0.4196
24024W        W40158  15.294  10.241   3.274  0.3690  0.1550 -0.2266
24025W        W40159   3.285  11.257   3.912 -0.0584 -0.0240  0.1209
24026W        W40160   8.208   9.324  10.736 -0.0309 -0.0303 -0.1081
24027W        W40161  14.548  15.553   3.663  0.0760  0.2052  0.1325
24028W        W40162  13.328  14.599   0.165 -0.1298  0.1495 -0.2585
24029W        W40163   3.777   9.185   2.449  0.0515 -0.0852  0.2197
24030W        W40164   8.205   0.777  12.644 -0.1794 -0.1851 -0.2342
24031W        W40165  13.202   5.936  13.690  0.0056 -0.0452 -0.0872
24032W        W40166  14.917  12.682   2.036  0.0924 -0.0080  0.1561
24033W        W40167  13.926   1.224  11.877 -0.2934 -0.0358  0.1058
24034W        W40168   4.832   4.757  10.685 -0.0299 -0.0063 -0.2578
24035W        W40169   2.309  14.180   1.636  0.0883  0.0166 -0.2683
24036W        W40170   1.981   1.998   4.247  0.2561  0.1515  0.3355
24037W        W40171  17.013   8.493  14.122  0.2297  0.1733 -0.0148
24038W        W40172   4.302   3.830   1.299  0.2847  0.2535  0.0395
24039W        W40173  15.347  16.198   1.342  0.3251 -0.0279  0.1673
24040W        W40174  13.249  11.470   3.507 -0.0685 -0.0593  0.0686
24041W        W40175   9.671   8.917  12.762 -0.1889 -0.0467 -0.0783
24042W        W40176  15.903   7.948   3.277 -0.1706  0.2207  0.4397
24043W        W40177  13.288  15.817  12.421  0.0822  0.0284 -0.2955
24044W        W40178   2.123   3.539  14.840 -0.3195 -0.1456 -0.0164
24045W        W40179   3.451  10.208   3.428 -0.0163 -0.3359  0.1404
24046W        W40180  13.038  10.349   2.529  0.2898 -0.3369  0.2223
24047W        W40181   4.291   9.769   3.157 -0.0008  0.0027  0.3005
24048W        W40182  18.290   9.109  11.166 -0.0486  0.1003  0.2281
24049W        W40183  18.409  11.558  12.148 -0.0464  0.4757  0.3763
24050W        W40184   8.890   1.437  10.916 -0.0053 -0.2864 -0.0706
24051W        W40185   0.699  14.389  13.395 -0.1025 -0.0412  0.2296
24052W        W40186  18.279  15.974  14.435 -0.0521  0.1588  0.2085
24053W        W40187   4.415  19.121   3.862  0.2036  0.1032  0.0759
24054W        W40188  13.831   7.750  10.358  0.2663  0.5282  0.1576
24055W        W40189   0.052  10.179   0.642  0.0978 -0.0147  0.1347
24056W        W40190   6.729   1.961  14.472 -0.1877 -0.2617 -0.1516
24057W        W40191  11.303   8.969  10.809  0.0407 -0.0472  0.0345
24058W        W40192   3.971   5.058   0.183 -0.1790  0.0158  0.1153
24059W        W40193  16.834  14.776  12.996  0.1189  0.0444  0.0099
24060W        W40194   4.419  14.259  14.417 -0.2565 -0.1222 -0.1956
24061W        W40195  15.996   8.991  14.865 -0.2046 -0.1906 -0.1668
24062W        W40196   0.895  13.997  11.695 -0.0070 -0.0484 -0.3957
24063W        W40197  14.838  15.854   0.698  0.2432  0.3663  0.1987
24064W        W40198  17.026   4.893   2.104 -0.0825 -0.2024 -0.0752
24065W        W40199  14.992  14.805   3.506 -0.1446  0.0794 -0.1759
24066W        W40200   7.544  19.090   1.669  0.1224 -0.1085  0.0765
24067W        W40201  15.714   6.208   5.297  0.1721 -0.1494  0.0789
24068W        W40202   5.603   3.851  14.663 -0.1157 -0.2818  0.0619
24069W        W40203  16.620  17.578   5.830  0.0627 -0.0849  0.1134
24070W        W40204  18.030   0.853  12.067  0.0116 -0.2689  0.2874
24071W        W40205  11.157   4.244   3.482  0.1892 -0.1510  0.0426
24072W        W40206   8.297   6.486  14.315 -0.3189 -0.3985 -0.3004
24073W        W40207  12.190   2.554   3.221  0.0622  0.0395 -0.1985
24074W        W40208  18.861   6.947  12.866 -0.1675  0.1735  0.0557
24075W        W40209   6.056  14.247   4.118  0.1070  0.2314  0.1935
24076W        W40210   5.280  18.717  11.775  0.0412  0.0868 -0.0404
24077W        W40211   9.995   3.690  10.821 -0.1396 -0.0489  0.2082
24078W        W40212   4.353   0.216   5.604 -0.0284  0.0376  0.0316
24079W        W40213   0.528   8.630   0.521 -0.0252  0.1093  0.2396
24080W        W40214  10.860  13.297   2.525  0.0807  0.1028  0.0209
24081W        W40215  15.227  13.852   0.444  0.0295  0.0231 -0.0221
24082W        W40216   0.259  18.982   3.982 -0.1750 -0.2246  0.2246
24083W        W40217  16.166  18.540  12.491  0.0779 -0.0773 -0.1532
24084W        W40218   7.236   0.134   1.983 -0.1591  0.1704  0.0891
24085W        W40219  13.211  11.659   1.402 -0.1005  0.0776  0.0887
24086W        W40220   9.901  12.827  14.829  0.2319  0.0884 -0.0497
24087W        W40221  17.882  14.798   3.041  0.0303 -0.1391 -0.2007
24088W        W40222   1.685  11.203   1.605  0.1150 -0.0371  0.0801
24089W        W40223   7.959  10.430   0.338 -0.0261 -0.2096 -0.1599
24090W        W40224   2.455   4.106  14.261 -0.1974  0.1114 -0.0093
24091W        W40225  10.913   4.089   2.056  0.0742 -0.0618  0.0506
24092W        W40226   3.711  15.797  12.797 -0.2207  0.1600 -0.0214
24093W        W40227  15.457  12.625  11.702  0.0390  0.1897 -0.1737
24094W        W40228  17.609  14.119   0.805 -0.0331  0.2238  0.0816
24095W        W40229  18.558  16.697   4.795 -0.4666 -0.0051 -0.1112
24096W        W40230  12.646   3.313   5.062 -0.3359 -0.1658 -0.0344
24097W        W40231  16.278   7.211   0.721 -0.1074  0.0929  0.3292
24098W        W40232   8.340   8.168  12.742 -0.1353  0.1565  0.1158
24099W        W40233   5.774  11.679   5.150 -0.0979  0.0375 -0.1555
24100W        W40234  12.762  19.148  10.512  0.1216  0.3018 -0.1302
24101W        W40235  12.329   3.222  12.358 -0.0113 -0.0866  0.0791
24102W        W40236  13.371   3.107  11.864 -0.4301  0.1004 -0.3628
24103W        W40237   0.749  17.857  11.836  0.1275 -0.1944  0.4337
24104W        W40238   1.146  18.173  11.759  0.3120  0.3776  0.0584
24105W        W40239   9.882  16.340   2.554  0.1195  0.2017 -0.3689
24106W        W40240  16.620   4.257   0.124 -0.0165  0.1329 -0.0835
24107W        W40241   5.790   4.593  13.874 -0.3257  0.1726  0.0579
24108W        W40242  12.135   3.126   1.224 -0.0487 -0.0130  0.0737
24109W        W40243   1.489  11.440  14.401  0.3049 -0.0721 -0.0158
24110W        W40244  18.898  15.097   5.235  0.2967  0.0267  0.3556
24111W        W40245  17.262  15.829   3.027  0.1080  0.0994 -0.2983
24112W        W40246  16.712  18.237   0.458  0.1118  0.4353 -0.1947
24113W        W40247  13.512   3.887  13.482  0.3877 -0.1445 -0.3380
24114W        W40248   6.272   5.265  13.084  0.4317 -0.3652  0.1575
24115W        W40249  16.368  10.196  12.999 -0.3070 -0.1229  0.2165
24116W        W40250   9.427   5.392  11.416 -0.0880 -0.2029  0.3001
24117W        W40251  12.078   3.509  14.873  0.1747  0.0433  0.0960
24118W        W40252   9.506  13.652   4.827  0.0383 -0.2562 -0.1008
24119W        W40253   6.122   3.162  14.018 -0.1176  0.1175 -0.0138
24120W        W40254   0.692  10.843  11.628  0.0324  0.1369  0.1514
24121W        W40255   8.740   5.963  12.065  0.1302 -0.1875 -0.1493
24122W        W40256  11.611  18.793   3.417  0.1141 -0.0893 -0.2555
24123W        W40257   1.022  17.586  13.146  0.0298  0.3076 -0.2684
24124W        W40258  17.848  17.770  13.295 -0.2773 -0.0671 -0.2045
24125W        W40259   3.911  18.414   0.982 -0.1001  0.1511  0.1799
24126W        W40260  12.041  12.514   0.130 -0.2017  0.1290 -0.3774
24127W        W40261  17.925   4.613   0.593 -0.1334 -0.1116 -0.0130
24128W        W40262   7.955   2.701  11.108  0.0675 -0.2102  0.3139
24129W        W40263  19.047  15.985  11.940  0.2189  0.2271 -0.3551
24130W        W40264  13.431   8.665   3.886  0.2208  0.2664  0.0582
24131W        W40265   6.002  15.970   4.477 -0.2497  0.2046 -0.1484
24132W        W40266   0.411   9.109  10.639  0.0858 -0.0378  0.2832
24133W        W40267  18.573  17.141   0.246 -0.0074  0.0232 -0.1499
24134W        W40268   5.867   5.124   3.228 -0.0409  0.1560  0.0398
24135W        W40269  10.354   4.488   3.612  0.2586  0.1556  0.1836
24136W        W40270   0.247  17.533   1.296 -0.0912  0.2639  0.1717
24137W        W40271   4.792   4.098   2.409 -0.3071 -0.1268  0.1216
24138W        W40272  14.486  12.388   4.132 -0.3928 -0.0906  0.1846
24139W        W40273  15.791  18.330  10.901  0.0318  0.0442 -0.1769
24140W        W40274  13.930   6.610  11.729  0.1733  0.0959 -0.1893
24141W        W40275   0.589   0.844  11.911  0.0025  0.3065  0.2904
24142W        W40276  13.657   3.213  14.819  0.1539  0.2185  0.0428
24143W        W40277  19.116  12.364   0.304 -0.0036 -0.1540  0.2507
24144W        W40278  19.203  13.615   0.758  0.0677 -0.0841 -0.1644
24145W        W40279   4.882  11.036  11.876  0.0971  0.0333 -0.1759
24146W        W40280   8.590   9.934  13.410 -0.2479  0.1125  0.0004
24147W        W40281  11.470   1.755   2.722 -0.3637  0.0986 -0.1084
24148W        W40282   6.745  18.061  13.832 -0.0146  0.2130 -0.1625
24149W        W40283  16.790  15.826  11.885 -0.3330 -0.2045 -0.0569
24150W        W40284  11.730   1.765   4.930  0.0181  0.2915 -0.0841
24151W        W40285  12.375  16.666  10.441 -0.3121 -0.1620 -0.1228
24152W        W40286  10.532   4.007   4.641  0.0743  0.1690 -0.2739
24153W        W40287   3.449  16.649  11.032 -0.0838  0.3594  0.0077
24154W        W40288  14.846   6.963  13.687  0.0597  0.3678  0.2534
24155W        W40289   1.027   3.797  10.775 -0.1883 -0.0169  0.3252
24156W        W40290  18.202   2.938   3.857  0.2217 -0.1115  0.3557
24157W        W40291   9.651  15.412  14.004  0.3364 -0.4097 -0.0628
24158W        W40292   5.866   9.599   0.715 -0.0537  0.0634 -0.1631
24159W        W40293  12.252  14.700  11.626  0.1937  0.6413  0.0338
24160W        W40294  13.962  15.071  14.654  0.0025  0.0547 -0.0355
24161W        W40295   5.356   0.467  12.119 -0.1970 -0.2364 -0.1442
24162W        W40296   3.692  11.731  11.053 -0.0399  0.0145  0.0992
24163W        W40297  10.408  17.360  13.924 -0.0149 -0.2678  0.1176
24164W        W40298  14.557  18.175   3.850  0.3507 -0.0295  0.2345
24165W        W40299  13.063  11.857  12.685 -0.0503  0.2113  0.0650
24166W        W40300  12.648  18.493  13.497 -0.1229 -0.0346  0.0289
24167W        W40301   9.233  17.420   5.251 -0.0119 -0.0438 -0.0565
24168W        W40302   0.986   4.988   2.874 -0.0256 -0.0690 -0.3758
24169W        W40303   7.413   3.697   0.955  0.1579 -0.0443 -0.1598
24170W        W40304  17.432  13.413   5.461  0.3543  0.1630 -0.2834
24171W        W40305   5.608  15.589  14.015  0.0102  0.2171 -0.0801
24172W        W40306   5.509   4.620  11.718 -0.1065  0.0046 -0.1572
24173W        W40307   0.056  14.134  13.054  0.0039  0.3547 -0.0570
24174W        W40308   6.419  15.638   2.664  0.0498  0.0160 -0.0507
24175W        W40309   1.282   8.704  10.358  0.2023  0.0453 -0.2981
24176W        W40310  16.186  14.646   4.704  0.3905  0.0930 -0.0746
24177W        W40311  17.723  16.917  14.739 -0.0176 -0.1167 -0.2929
24178W        W40312  16.532   4.138  13.935 -0.1899 -0.3418  0.2176
24179W        W40313  12.215   4.302   2.182 -0.1603  0.0160  0.1712
24180W        W40314  14.439   1.334  15.015  0.0680 -0.1071  0.0968
24181W        W40315  10.910  17.995  10.105 -0.2514 -0.3788 -0.1426
24182W        W40316   3.033   4.437   4.144 -0.2238  0.2418  0.2216
24183W        W40317  15.660   2.344   4.895 -0.1237  0.2217 -0.0586
24184W        W40318  12.393  16.644   3.178  0.0367 -0.0104  0.1176
24185W        W40319  17.451   2.867   9.164 -0.1191  0.0155  0.3787
24186W        W40320   3.528   1.357   0.186  0.4742  0.1807 -0.2098
24187W        W40321   0.381   6.336  14.858  0.1728  0.1292 -0.0371
24188W        W40322  16.117  18.877   3.029  0.1802 -0.1360 -0.0254
24189W        W40323   4.773   3.970  14.211 -0.0242 -0.3544  0.0420
24190W        W40324  12.425  10.014  10.771 -0.0006 -0.5312  0.1908
24191W        W40325  10.312   2.317   4.189  0.3974  0.1100  0.0364
24192W        W40326   8.535   0.789   2.885 -0.0519 -0.2937  0.1947
24193W        W40327   6.146  12.358   0.722  0.0646  0.1029 -0.0832
24194W        W40328  14.931   1.890   4.502 -0.1122 -0.3252  0.1025
24195W        W40329   0.576   1.500  14.712 -0.0529 -0.1862 -0.2771
24196W        W40330  10.895  11.276   4.948  0.1065 -0.0830  0.0653
24197W        W40331   5.654   4.824   4.586  0.0013  0.1015  0.0877
24198W        W40332  16.269  17.731  11.455  0.0160  0.0275  0.4367
24199W        W40333  12.876   7.087   5.265 -0.2169  0.3137 -0.1405
24200W        W40334  14.653   6.070   4.386  0.0108 -0.1023 -0.1328
24201W        W40335   0.731  10.919   1.507 -0.0343 -0.0736  0.0066
24202W        W40336  15.114   0.030   9.725 -0.3132  0.0660  0.1197
24203W        W40337   4.940  11.599  15.017 -0.2137 -0.1417  0.0263
24204W        W40338  12.748  17.271   0.860 -0.1027  0.2307  0.1462
24205W        W40339   9.694  11.238  13.118 -0.1082  0.1897  0.2376
24206W        W40340   2.341  11.040  10.933 -0.0367 -0.0874  0.1290
24207W        W40341   6.891   3.543   4.288  0.0707 -0.0569  0.0370
24208W        W40342   3.089  13.665  13.286  0.2344  0.1881 -0.4188
24209W        W40343   2.942  10.032   5.443  0.1125 -0.1912  0.2769
24210W        W40344  18.179   6.753   4.786  0.0376 -0.0130  0.0712
24211W        W40345   4.309   8.097  11.281  0.4199  0.1531  0.2549
24212W        W40346   5.857   2.887  11.069 -0.2257 -0.2367  0.2426
24213W        W40347   9.730  18.309   3.181 -0.1418 -0.1605 -0.4209
24214W        W40348  15.601  13.862   2.004 -0.1507 -0.2489  0.1972
24215W        W40349   5.262  18.691   3.797  0.0799  0.1803  0.4971
24216W        W40350   8.278   5.184  12.622  0.2973  0.1071  0.0870
24217W        W40351   7.599  19.160   0.720  0.0686  0.0676 -0.0874
24218W        W40352   1.873   3.747   2.797  0.1845 -0.0816 -0.1619
24219W        W40353   9.418   0.745   4.326  0.1880 -0.1764  0.2135
24220W        W40354   3.722   1.803   0.398  0.6205  0.0773 -0.3729
24221W        W40355  15.759   9.078   0.284  0.1158 -0.1756  0.1442
24222W        W40356  13.624   3.285   3.425 -0.3036  0.0159 -0.1842
24223W        W40357  15.042  16.196   2.939  0.4981  0.1284 -0.2675
24224W        W40358   2.064  13.112  10.444  0.2305  0.2739  0.0455
24225W        W40359  12.422  12.661  13.483 -0.0185  0.0492 -0.1864
24226W        W40360  18.817   3.799   3.011 -0.0919 -0.3327  0.1276
24227W        W40361  12.653   0.189  13.655 -0.0672  0.2395  0.0322
24228W        W40362  15.586   6.507   0.248 -0.0464 -0.0656  0.2695
24229W        W40363   3.946  16.152  11.635 -0.0223  0.0396 -0.0600
24230W        W40364  17.877  17.318   5.326 -0.1879 -0.0978 -0.1020
24231W        W40365  12.136   5.060  11.111 -0.0995  0.2800  0.0480
24232W        W40366  16.929   6.564  14.800 -0.4554 -0.0419  0.2103
24233W        W40367  14.740   3.849   5.308  0.0631 -0.2277  0.2144
24234W        W40368  12.087   5.255  12.368  0.0797 -0.2528  0.1037
24235W        W40369  19.149  16.098   1.741  0.0285  0.0758  0.1025
24236W        W40370  10.865   0.006  14.924 -0.1832  0.0345 -0.2295
24237W        W40371   6.507   1.717  12.173 -0.4177  0.0875  0.1029
24238W        W40372  11.027   8.303  11.355 -0.0923 -0.3444 -0.2403
24239W        W40373  10.716  14.210   1.884 -0.1521 -0.4307 -0.3302
24240W        W40374   2.829   2.448   0.151  0.1495 -0.2957  0.3848
24241W        W40375   5.268  13.676  12.842 -0.3713  0.1349  0.0376
24242W        W40376  18.831  12.850   2.246  0.1288 -0.0870 -0.0943
24243W        W40377   3.230   2.488  10.978 -0.3264 -0.1791  0.2585
24244W        W40378   2.425  18.624   9.624 -0.0365  0.0129 -0.2773
24245W        W40379  16.610   4.015  10.969  0.3245  0.3512 -0.0649
24246W        W40380  16.874   8.696  10.807 -0.1552 -0.2304  0.0864
24247W        W40381   9.831  10.486   0.462 -0.2965  0.1969  0.0323
24248W        W40382   2.135   8.607   1.572  0.1850 -0.0765  0.0194
24249W        W40383   8.807  14.636   5.030  0.0792  0.2742 -0.0431
24250W        W40384   8.677  16.602   3.914  0.1730 -0.0881 -0.1772
24251W        W40385   8.900   4.710  11.568 -0.0124 -0.0040 -0.0454
24252W        W40386  15.865  18.996  14.077 -0.1329 -0.2951 -0.1391
24253W        W40387  11.846   2.645  13.269  0.1589  0.1389  0.2576
24254W        W40388   6.910  13.729  13.772 -0.1168 -0.0370 -0.1053
24255W        W40389   7.508  13.612   2.145 -0.1195  0.0529 -0.3103
24256W        W40390  15.752  14.662   0.959 -0.2622  0.2088 -0.1019
24257W        W40391  18.374   1.841   4.065 -0.1157  0.2366  0.0260
24258W        W40392  13.223   1.560   0.748  0.0758 -0.0127 -0.2138
24259W        W40393   0.342  16.122   2.718  0.0418 -0.0342 -0.0200
24260W        W40394   1.972  13.812  11.947  0.2541  0.2510  0.2033
24261W        W40395  16.790  14.168  11.954 -0.1182 -0.1878  0.1767
24262W        W40396   5.060   2.818   1.177  0.0189  0.0230 -0.2675
24263W        W40397  13.533  10.672  14.143 -0.0162  0.1166 -0.0584
24264W        W40398  17.461   4.678   3.619  0.1009 -0.2391  0.2186
24265W        W40399   1.130  17.939   0.129 -0.0027  0.0158 -0.1784
24266W        W40400  15.256   9.917  11.119  0.0926  0.3583 -0.0942
24267W        W40401   7.299  12.292  11.439  0.3300 -0.0463 -0.0793
24268W        W40402  19.110  10.953   5.554 -0.1131  0.3012  0.0287
24269W        W40403  10.087   3.578  11.745 -0.0586  0.0722  0.2152
24270W        W40404   7.671   5.449  11.338  0.0484 -0.4563  0.0221
24271W        W40405   4.126  17.432  11.061 -0.0988 -0.0970  0.1569
24272W        W40406  17.150  10.537   3.842  0.0336 -0.1653  0.1044
24273W        W40407  15.546   6.129   3.515  0.1016  0.1801 -0.1972
24274W        W40408  14.087   7.424  11.356 -0.1139 -0.1428 -0.1527
24275W        W40409   6.441   5.543  14.027  0.1692  0.2462  0.1562
24276W        W40410   8.604  15.635   4.069  0.4799  0.2238 -0.0268
24277W        W40411   4.378  13.193   4.426 -0.0042  0.0384 -0.0131
24278W        W40412   9.380   6.119  12.992  0.0580  0.0561  0.2329
24279W        W40413   3.815   2.393   4.744  0.2417  0.1377  0.1206
24280W        W40414  13.381   5.684   9.426  0.1404  0.2756  0.0004
24281W        W40415  10.078   7.318  10.863  0.3300 -0.0922 -0.0677
24282W        W40416  18.983   4.680   9.900  0.1573 -0.2647  0.2753
24283W        W40417   5.431   2.075  10.505 -0.0659  0.0183 -0.1807
24284W        W40418  12.135  11.053  14.259 -0.0319  0.0199 -0.0103
24285W        W40419  18.956   1.253  14.197  0.0293 -0.2449 -0.1037
24286W        W40420  18.656   6.632   3.917 -0.0398 -0.5592  0.0321
24287W        W40421  18.133   3.820  11.186 -0.1223  0.2710  0.1601
24288W        W40422  11.642  16.687   4.227  0.4035  0.1229  0.2379
24289W        W40423  10.101   2.559   3.545 -0.3181  0.0606  0.0565
24290W        W40424   8.512   9.564  14.786 -0.2002 -0.2650 -0.1791
24291W        W40425  13.318   7.296   0.438 -0.1738 -0.1036 -0.1205
24292W        W40426   6.527   3.218   1.873  0.0577 -0.2221 -0.0003
24293W        W40427  11.192  18.995  11.789  0.0122  0.0480  0.3881
24294W        W40428   1.685   1.032  12.650 -0.1276  0.2158  0.1094
24295W        W40429  11.300   2.390  12.521 -0.1111 -0.2109  0.1365
24296W        W40430   7.366   7.786   1.757  0.0659  0.0496 -0.0805
24297W        W40431  16.266   5.645  11.734 -0.1246 -0.0886 -0.4244
24298W        W40432   1.831   6.736  11.350  0.4796 -0.1046  0.0244
24299W        W40433   9.085   1.066  13.101 -0.2203  0.0187  0.1466
24300W        W40434   8.135  11.025  10.336 -0.2602  0.1425 -0.1125
24301W        W40435   9.523   6.776   4.783  0.0547  0.0534 -0.1337
24302W        W40436  15.192  17.742   1.177 -0.0295 -0.2562 -0.0674
24303W        W40437  16.921  16.008   2.332  0.0272  0.1884 -0.1603
24304W        W40438   0.031   2.588  13.388 -0.0990 -0.1552 -0.1214
24305W        W40439   9.173  18.237   1.265  0.0336 -0.0973  0.0522
24306W        W40440   8.122   2.191  10.010 -0.2236  0.1493 -0.1967
24307W        W40441  14.153  14.509   1.739 -0.1599  0.3541  0.1050
24308W        W40442  15.808   4.352   2.159 -0.0956  0.0348  0.2154
24309W        W40443   2.259   6.095   4.566  0.0156 -0.1999 -0.1354
24310W        W40444  18.633   7.324  10.723  0.0577  0.3184  0.2106
24311W        W40445   5.884   1.651   2.730  0.1873 -0.0721 -0.1062
24312W        W40446  12.940  18.700  11.066  0.0201 -0.0133  0.2605
24313W        W40447   1.735  13.137   2.146 -0.2707  0.0678  0.0489
24314W        W40448  14.171   2.480  14.897 -0.0955 -0.1403  0.1197
24315W        W40449  17.711  16.358   4.713  0.2732 -0.1420 -0.2422
24316W        W40450   3.413  15.977   4.754  0.2102  0.0527 -0.1435
24317W        W40451  13.099   6.568  11.861  0.2973 -0.0351 -0.3328
24318W        W40452   1.272   4.834   0.075  0.2163 -0.3324  0.3022
24319W        W40453  19.088  11.395   9.837 -0.2463  0.3699  0.1377
24320W        W40454   1.820   3.356   3.130  0.0417 -0.2180 -0.0785
24321W        W40455   7.788  12.976   4.076 -0.0871  0.0331 -0.0719
24322W        W40456   7.347   4.617   2.986  0.2383  0.1234 -0.1932
24323W        W40457  13.659  14.079  11.098  0.0884 -0.0548  0.0733
24324W        W40458   7.881  14.368   0.905 -0.0101 -0.1221  0.2808
24325W        W40459  18.687   3.067  12.387 -0.1764 -0.0234  0.6740
24326W        W40460  11.053  16.845   5.238 -0.2636  0.2964  0.3789
24327W        W40461   7.990  10.243  12.047  0.0909 -0.1348 -0.1092
24328W        W40462   7.189  10.313  12.504 -0.0513 -0.2454 -0.0004
24329W        W40463  15.288  12.328   1.457  0.1089  0.0689  0.1406
24330W        W40464   6.956  19.231   2.373 -0.1131 -0.3013  0.0200
24331W        W40465  18.038   3.256   0.804 -0.0488  0.1814  0.2931
24332W        W40466  11.021   3.986   4.501  0.0108 -0.0502 -0.0906
24333W        W40467  13.540  11.500   5.812 -0.0701 -0.0919 -0.1495
24334W        W40468  10.443  12.404  12.381 -0.2478  0.2969  0.1151
24335W        W40469   1.674   1.484   3.243  0.3327 -0.1852  0.2739
24336W        W40470  11.437  13.341  14.337  0.2001 -0.1310  0.0619
24337W        W40471  11.623  12.860   0.914  0.0327 -0.1058  0.1834
24338W        W40472   0.570  14.942  14.510  0.0642 -0.2684 -0.0465
24339W        W40473   2.872  14.699  12.238  0.0206  0.2821  0.2136
24340W        W40474   5.687  17.891   4.019 -0.2247 -0.0386  0.0181
24341W        W40475   4.618   5.769   4.238 -0.0945  0.2258 -0.3635
24342W        W40476   1.310  18.657   0.076 -0.0052  0.0870  0.4134
24343W        W40477   5.636  19.025  10.310  0.4635  0.0866 -0.3507
24344W        W40478  17.215   2.483  13.507 -0.0038 -0.2765  0.4508
24345W        W40479  14.243   4.364   0.866 -0.3687  0.1248  0.2468
24346W        W40480   9.139   5.366   3.958 -0.1032  0.0650  0.3688
24347W        W40481  10.412  18.829   4.841 -0.0432 -0.1394 -0.0661
24348W        W40482   5.389   2.474  10.141  0.0966 -0.1299 -0.0514
24349W        W40483  16.482  16.152   2.608  0.0226 -0.1313 -0.0204
24350W        W40484   9.692  10.314  11.225  0.1404 -0.3240 -0.1452
24351W        W40485   6.086  17.117   3.626  0.0105  0.0367  0.1723
24352W        W40486   2.818  17.400   1.494 -0.0066  0.1410  0.0753
24353W        W40487  15.342  14.548  12.658  0.0434 -0.1148 -0.0846
24354W        W40488   9.017  11.476   2.798 -0.1484 -0.0879  0.1777
24355W        W40489  15.818  17.049   0.995 -0.0255  0.0320 -0.0416
24356W        W40490  11.143  14.740  14.404 -0.2601 -0.0878  0.1533
24357W        W40491   5.264   4.962  10.757  0.0979  0.0592  0.1105
24358W        W40492   4.562  13.191   5.093  0.1301  0.0683 -0.0934
24359W        W40493   8.301   1.990   2.212  0.2318  0.0761 -0.1993
24360W        W40494   7.370   1.669  10.787 -0.0978  0.1208  0.1966
24361W        W40495   1.339  12.929   3.247 -0.0733  0.0558  0.0222
24362W        W40496   1.097   0.177   0.988 -0.0194  0.1454 -0.1444
24363W        W40497   8.717   5.883  13.154  0.1021 -0.0335  0.3248
24364W        W40498  17.305  18.412  10.901 -0.5562  0.1738  0.0541
24365W        W40499   7.163  16.069  13.036 -0.1209 -0.1923  0.1994
24366W        W40500  14.913   2.843   4.000  0.2301  0.1939 -0.1939
24367W        W40501   9.374  15.715   3.486 -0.4060 -0.3009  0.0302
24368W        W40502   1.697   6.141   1.998  0.1048 -0.2572  0.1646
24369W        W40503   5.388   9.163   0.764 -0.0154 -0.0486 -0.1918
24370W        W40504   6.844   4.861  14.179 -0.2856  0.1015 -0.2250
24371W        W40505   3.346   2.684   0.654  0.2204 -0.2936  0.2116
24372W        W40506   4.896   4.182   3.787  0.0367  0.0551 -0.0391
24373W        W40507  10.697   2.823  11.931 -0.0858  0.2357 -0.1589
24374W        W40508  17.401   5.851   1.293 -0.2176  0.0472  0.0456
24375W        W40509   3.141   3.851  12.079  0.1760 -0.2979 -0.1195
24376W        W40510   3.687  17.226  11.916 -0.2944  0.1534 -0.1356
24377W        W40511   5.596  10.952  14.668 -0.1462 -0.0618 -0.2491
24378W        W40512  11.510   2.696  10.435 -0.0978 -0.0651 -0.2662
24379W        W40513  10.332  12.273  11.913  0.0398  0.1053  0.1220
24380W        W40514  15.415   5.402  12.651  0.1866 -0.0992 -0.0454
24381W        W40515  13.891   8.643   1.793  0.3873 -0.0633  0.3909
24382W        W40516   3.377  16.360   2.919  0.3488 -0.2054  0.2302
24383W        W40517   0.890   4.444   3.508  0.1018  0.1528  0.0832
24384W        W40518   0.696   4.130  13.133 -0.0439 -0.2379  0.3107
24385W        W40519  18.993  18.935  11.551  0.0561  0.2804  0.3389
24386W        W40520  10.557  11.276  13.474 -0.0159  0.0776 -0.4082
24387W        W40521  16.898  17.759  12.200 -0.0784 -0.0451 -0.3854
24388W        W40522   2.060   6.261  10.792 -0.1577  0.1826  0.2814
24389W        W40523  10.459   0.769   1.430  0.2364 -0.0791  0.1047
24390W        W40524   2.100  13.757  14.937 -0.2594 -0.2861  0.0060
24391W        W40525  15.583  11.178   1.128  0.0143  0.0110 -0.2532
24392W        W40526  10.216   5.037  11.024 -0.0148  0.1029 -0.2451
24393W        W40527   3.607  10.749   4.998 -0.0085  0.0387  0.2049
24394W        W40528   0.451  15.297  13.096 -0.2483  0.1718 -0.1087
24395W        W40529   7.445   5.516   0.394  0.0117  0.1643  0.0027
24396W        W40530   9.096   4.388   3.011  0.1962  0.1457 -0.5232
24397W        W40531   4.152   1.123  14.740  0.2044  0.3864  0.2565
24398W        W40532   6.043   5.618  10.465  0.1025 -0.4366  0.2350
24399W        W40533  11.845  12.239   4.187 -0.1688 -0.0641  0.0353
24400W        W40534   6.026   1.554  12.893 -0.0654 -0.0295 -0.0538
24401W        W40535  16.770  13.759   1.729  0.0960 -0.3977  0.0648
24402W        W40536  18.663  11.216   3.073  0.2121  0.2453  0.1556
24403W        W40537   8.767  16.752   1.855 -0.0261 -0.5373 -0.1003
24404W        W40538   5.019   2.772  12.978  0.2919 -0.0091 -0.0548
24405W        W40539   5.070  18.757   2.322  0.3605  0.1862  0.2916
24406W        W40540   1.902  10.567   3.134 -0.0458  0.0774 -0.2015
24407W        W40541   1.455  12.445  11.084 -0.1179  0.0074  0.0895
24408W        W40542  10.377  13.768   1.994  0.1901  0.2748  0.1095
24409W        W40543   3.137   2.091  12.611  0.2673 -0.2761 -0.0275
24410W        W40544  16.225  18.084   3.709 -0.2286 -0.0595 -0.0459
24411W        W40545   8.208   3.774  10.283  0.0655 -0.0554 -0.3448
24412W        W40546   1.946  16.638   4.047  0.1011 -0.2623 -0.2894
24413W        W40547   2.226  16.139   4.338 -0.0024  0.3619 -0.3287
24414W        W40548   3.907   0.817   4.059  0.2861 -0.0144  0.4500
24415W        W40549  13.607  18.112   3.634 -0.2118  0.2552  0.1513
24416W        W40550   1.236   2.306  13.883  0.1380 -0.2704 -0.1132
24417W        W40551   3.943  15.991   0.201 -0.0248  0.1611 -0.0542
24418W        W40552   5.602  14.003   3.717 -0.0606 -0.2786  0.0423
24419W        W40553  17.408  13.006   1.462 -0.1349  0.0573  0.1704
24420W        W40554  17.517  11.498   1.566  0.0069 -0.2341 -0.2099
24421W        W40555  17.005  11.548   2.296  0.0184  0.3897 -0.1315
24422W        W40556  13.810   3.278   9.244  0.0940  0.0278  0.2447
24423W        W40557  15.539  12.740   5.976 -0.0669  0.1780 -0.1424
24424W        W40558  17.836   3.569   0.462 -0.1154 -0.2263  0.0142
24425W        W40559   8.629  14.521   1.668  0.0296 -0.1043  0.0151
24426W        W40560  16.636   3.227   2.814 -0.0719 -0.3085 -0.0937
24427W        W40561   6.039   0.937   4.363  0.1906  0.3859  0.0444
24428W        W40562  19.064   5.960   3.851  0.2714  0.0352  0.1207
24429W        W40563   3.996   4.689   1.663 -0.1694  0.5703  0.0435
24430W        W40564   4.846  17.891   0.545  0.3454 -0.2807 -0.2278
24431W        W40565  17.739   6.481  13.935 -0.0945 -0.2649 -0.1694
24432W        W40566  14.241   5.371  10.707 -0.3717  0.3729 -0.1681
24433W        W40567  14.180   7.891   2.514 -0.1755  0.0670 -0.3272
24434W        W40568   4.055   0.457   0.252 -0.0687  0.2211  0.1176
24435W        W40569   3.797  11.168   2.262  0.2561 -0.4087  0.0478
24436W        W40570  16.269   8.318   0.817  0.1275  0.2961  0.1042
24437W        W40571   5.681  14.986   2.461 -0.1011 -0.0779  0.0496
24438W        W40572   3.776  15.477   2.851  0.2960  0.1110  0.0184
24439W        W40573   9.792   0.171  12.136 -0.3835 -0.1542  0.2286
24440W        W40574  11.316   0.472   3.765 -0.1144 -0.3028  0.2908
24441W        W40575  10.467  18.209  14.074  0.3197 -0.7561 -0.1396
24442W        W40576  10.951  18.183  10.539 -0.0434  0.1089 -0.3124
24443W        W40577   1.849   9.375   1.455 -0.2694  0.2230  0.0792
24444W        W40578  19.223   0.873  14.553 -0.1338 -0.3741  0.0854
24445W        W40579   8.146   0.055   1.872 -0.0148 -0.0346 -0.1562
24446W        W40580  16.562   9.734   2.437 -0.2205  0.0186 -0.0586
24447W        W40581   2.714  10.757  10.686 -0.4622 -0.1201 -0.2328
24448W        W40582  18.576   1.930  13.537 -0.0943  0.0858 -0.1600
24449W        W40583   4.572   3.764   3.599 -0.0390 -0.1221 -0.0701
24450W        W40584  11.714   7.732   1.107  0.0665 -0.1204 -0.1764
24451W        W40585   1.246  15.891  12.992 -0.0394  0.1806 -0.3006
24452W        W40586  10.812  17.271   2.554  0.1209 -0.0140  0.1781
24453W        W40587  18.934  16.542  14.731 -0.2046 -0.2554 -0.0669
24454W        W40588   9.421   9.270   0.318 -0.4152 -0.1470  0.2992
24455W        W40589  10.791  16.082   1.562  0.2448 -0.0599 -0.1118
24456W        W40590   0.088  18.232  10.801  0.1997 -0.1177  0.0280
24457W        W40591   8.342  10.691   0.120 -0.3136  0.1896 -0.2250
24458W        W40592   6.404  10.630  11.093  0.1984 -0.0152 -0.0972
24459W        W40593   2.761   9.033  13.064  0.2150  0.0281  0.0534
24460W        W40594  17.914   5.635  11.326  0.2312 -0.0843 -0.0405
24461W        W40595  14.429  15.543   2.481  0.1723 -0.2298 -0.0368
24462W        W40596   8.934  18.423   0.055  0.0777 -0.2043  0.2752
24463W        W40597  16.959  16.963  14.574 -0.1965 -0.1363  0.2360
24464W        W40598   1.057   2.189  11.492 -0.0745  0.2277  0.3983
24465W        W40599  17.049   2.422   9.935 -0.1854  0.0208 -0.1248
24466W        W40600  12.179  11.591   5.486  0.0976 -0.1809 -0.0567
24467W        W40601   2.913   6.356   1.622 -0.1009  0.0092 -0.0319
24468W        W40602   4.177  15.517  13.974 -0.3628 -0.0138 -0.1359
24469W        W40603   4.536   0.243   2.491 -0.2143 -0.0848  0.1004
24470W        W40604   8.015  14.524  13.888 -0.2141 -0.4996  0.0793
24471W        W40605   0.719  18.853  13.564 -0.2504 -0.0990 -0.1973
24472W        W40606   5.524  17.187  14.312  0.1273  0.0784  0.1522
24473W        W40607   8.466   8.166   4.044  0.2298 -0.1096 -0.1681
24474W        W40608  10.844  13.687   2.043 -0.0293  0.0093 -0.1431
24475W        W40609  11.969   3.982  10.737  0.0704  0.0252 -0.0907
24476W        W40610   9.496  11.520   1.449  0.3538  0.0020 -0.0882
24477W        W40611   8.982   5.230  11.612 -0.0319  0.0871 -0.3276
24478W        W40612  12.119   3.242   4.819  0.0349 -0.4008 -0.2138
24479W        W40613   8.571  17.501   2.893 -0.0469  0.0514  0.1919
24480W        W40614  15.347  11.299  12.525 -0.2163 -0.0145  0.2015
24481W        W40615  18.003   0.631   2.126  0.0143 -0.0159 -0.0840
24482W        W40616   4.573   5.988   3.699  0.1234  0.1036 -0.0712
24483W        W40617   3.885  15.654  11.637 -0.2051  0.0427 -0.0686
24484W        W40618   6.430  17.235   5.016  0.1250 -0.1477  0.2014
24485W        W40619   3.543  10.082   1.452  0.2800  0.1192  0.4807
24486W        W40620   5.132   5.779   1.956  0.0761 -0.1520 -0.0735
24487W        W40621  15.461   5.021   0.019  0.0787 -0.0132  0.0230
24488W        W40622   3.646   5.574  12.078  0.3202 -0.0245  0.1370
24489W        W40623  13.051  14.753  14.576  0.4036  0.0164 -0.1963
24490W        W40624  16.588   2.495  11.251  0.0545 -0.0351  0.2444
24491W        W40625  18.352  13.509   5.359  0.4864  0.0851 -0.0195
24492W        W40626  18.498  15.535  14.263 -0.2114  0.0245 -0.0714
24493W        W40627  13.183   6.926   4.774  0.0300  0.0205  0.2507
24494W        W40628   6.680   5.373  11.161 -0.0618  0.0090 -0.0017
24495W        W40629   2.639   5.471  10.654  0.1554 -0.0045  0.2443
24496W        W40630   3.126   1.288   4.048  0.3032  0.0629  0.1043
24497W        W40631  17.252  18.659   4.413  0.1259  0.2358 -0.1116
24498W        W40632   1.223   7.659   1.816  0.0313  0.0790 -0.1250
24499W        W40633   8.827   4.754   0.708 -0.4341  0.2897 -0.2930
24500W        W40634   3.427  12.954   4.303  0.1841  0.0521 -0.1533
24501W        W40635  16.794  10.600   1.955  0.0590 -0.3318 -0.1406
24502W        W40636  15.457  12.737   2.341  0.3145  0.0303  0.1705
24503W        W40637  17.700   8.002   2.127  0.0264 -0.3423 -0.1153
24504W        W40638   6.501  16.274   2.959  0.1566  0.1962 -0.0162
24505W        W40639  10.547   8.905  14.562 -0.3416  0.0951 -0.3341
24506W        W40640  19.231   3.830  10.627 -0.0654 -0.1980 -0.0600
24507W        W40641   0.347   2.403   4.200  0.0309 -0.0872  0.0451
24508W        W40642   1.595  12.640  14.444  0.3457  0.2190 -0.2688
24509W        W40643   8.488   1.814  11.977 -0.2032  0.0533 -0.0909
24510W        W40644   3.342  16.479   5.611  0.1829  0.2024  0.0986
24511W        W40645   5.232   7.230   2.033  0.0088  0.2695 -0.0586
24512W        W40646   5.011   0.623  14.406 -0.3389 -0.1136  0.0595
24513W        W40647  11.415   1.449  14.020 -0.0352 -0.1908 -0.0641
24514W        W40648  17.172  16.688   3.426  0.1724 -0.1509  0.0727
24515W        W40649   8.081   7.360  10.621 -0.1955  0.1506 -0.2511
24516W        W40650  13.037   3.729  13.484 -0.2186 -0.2498 -0.2419
24517W        W40651  18.274   5.817   4.420 -0.0338 -0.1185 -0.2162
24518W        W40652  11.985  15.888   2.076  0.5272 -0.4099  0.0161
24519W        W40653  18.054  11.310   9.667 -0.2699 -0.1153  0.0317
24520W        W40654  18.599   8.387  13.479 -0.2887 -0.1228  0.0349
24521W        W40655  19.231   7.529   3.174 -0.0636  0.1590  0.1970
24522W        W40656   8.726   6.963  10.314  0.1329  0.2175 -0.0256
24523W        W40657   7.153   6.768  14.536  0.0850  0.3115  0.0862
24524W        W40658   6.711   0.674  10.353  0.1024  0.2249 -0.3571
24525W        W40659   1.298  16.575  12.570  0.1363 -0.3249  0.0122
24526W        W40660   4.867   3.889   0.463  0.0406 -0.1566 -0.0459
24527W        W40661  12.344   2.358   1.727 -0.3524  0.1358 -0.0235
24528W        W40662  14.315  16.733   1.336  0.2395  0.0688  0.0193
24529W        W40663   6.586   7.141   2.277  0.2498 -0.1184  0.2929
24530W        W40664   8.504  15.595   3.151 -0.1864  0.0321  0.2945
24531W        W40665  12.074   9.293   2.495 -0.0727 -0.1532 -0.3250
24532W        W40666   4.653  16.043   2.587  0.0077  0.1364  0.1289
24533W        W40667   3.763   9.865  11.035 -0.0285 -0.0836 -0.1341
24534W        W40668   6.683   0.154  13.129  0.0748 -0.2110  0.3111
24535W        W40669   9.503   0.299  10.366  0.0051 -0.0038  0.0341
24536W        W40670  19.203   4.320  10.835  0.1640  0.0832 -0.0757
24537W        W40671   9.625   6.205   3.175  0.1129  0.1510  0.2150
24538W        W40672   3.137  12.041   2.215 -0.1873  0.1569 -0.2573
24539W        W40673  11.905   1.430  10.342 -0.3233 -0.2388 -0.0965
24540W        W40674  15.753  14.505  15.031  0.0932  0.0814  0.1807
24541W        W40675  17.886  14.812  14.487 -0.2031 -0.0384 -0.0418
24542W        W40676  14.557   8.379  13.931  0.0780 -0.1001 -0.2039
24543W        W40677  11.143  12.689   4.960  0.0148  0.1051  0.3272
24544W        W40678   8.480  15.865  13.449 -0.1373  0.0403  0.3198
24545W        W40679   8.864   6.780  13.418 -0.1577  0.0859  0.0344
24546W        W40680  13.388   5.988  12.318  0.4199  0.0621  0.2001
24547W        W40681   1.267   0.028  10.953 -0.0933 -0.1200 -0.2096
24548W        W40682   4.698  12.426  12.431 -0.0268 -0.1071 -0.2728
24549W        W40683   3.635   8.417  13.179  0.3346 -0.0931 -0.0546
24550W        W40684   0.732   7.763   2.391  0.0891  0.0297 -0.1062
24551W        W40685  18.229   8.657  11.471  0.2429 -0.2393 -0.0572
24552W        W40686  12.112   9.712   4.436  0.1126  0.0153 -0.2206
24553W        W40687  16.814   9.882  14.278  0.0645  0.2361 -0.2373
24554W        W40688  14.288  11.225  14.774 -0.0889 -0.1642 -0.1767
24555W        W40689   1.661   9.127   3.967 -0.2223  0.1411  0.1730
24556W        W40690  18.678   6.073   5.335  0.2904  0.3268  0.3468
24557W        W40691  18.417   4.557   1.108 -0.0109  0.0065 -0.1888
24558W        W40692   1.269  17.708  12.717  0.0449  0.0399 -0.1063
24559W        W40693   5.209  14.436  13.502  0.1792 -0.0146  0.0034
24560W        W40694  14.295   4.942   0.348  0.3088 -0.2767  0.1278
24561W        W40695   6.399  14.590  14.505 -0.5832  0.2294  0.0127
24562W        W40696   7.197  13.529   2.626 -0.2065  0.0487  0.2361
24563W        W40697  14.054   8.389  13.917 -0.0341  0.0930  0.1977
24564W        W40698   5.180   9.101   3.046  0.0505  0.2895  0.2483
24565W        W40699  10.695  16.670   3.788 -0.1425  0.0677  0.1784
24566W        W40700   0.634   4.230   1.235 -0.0893  0.1314  0.3358
24567W        W40701  18.904  12.107   1.116 -0.0113 -0.2571 -0.1854
24568W        W40702  15.977   1.302  14.280 -0.3743  0.0700 -0.0899
24569W        W40703  18.233  12.721   3.831 -0.1851  0.1320  0.0187
24570W        W40704   7.612   7.717   4.302 -0.1878  0.1778 -0.1021
24571W        W40705  17.975  12.201  13.739 -0.1648  0.1231  0.1610
24572W        W40706   5.911  11.823  12.373  0.2266 -0.0177  0.0234
24573W        W40707   6.791  17.533  14.082 -0.0896  0.0036 -0.1673
24574W        W40708  12.456  18.634   5.232 -0.0926  0.0285 -0.2369
24575W        W40709   6.094   2.404   3.317 -0.1128 -0.0584  0.0375
24576W        W40710  15.255   5.812   0.699  0.0315  0.0771  0.1789
24577W        W40711   6.391  13.332  11.476  0.0310  0.0047  0.3656
24578W        W40712   9.885   2.919   9.706  0.0800 -0.2232 -0.1365
24579W        W40713   6.285   2.740  10.553 -0.0212  0.0899 -0.3271
24580W        W40714   5.646  15.316   3.955  0.0349  0.4878  0.2513
24581W        W40715   4.495   7.751   3.371  0.0035  0.1194 -0.2763
24582W        W40716  15.967   6.822  14.929 -0.1215  0.0921 -0.0571
24583W        W40717  12.205   6.894   4.515  0.1189 -0.0103  0.1358
24584W        W40718  16.338  15.936   5.180 -0.0113 -0.0629  0.1276
24585W        W40719  19.038   1.908  10.320 -0.0859  0.1493 -0.0633
24586W        W40720  17.248   9.034   2.633  0.3315  0.0216 -0.0329
24587W        W40721   3.624   5.264  10.520 -0.0647 -0.0937  0.0076
24588W        W40722   8.844  13.151  11.868 -0.0268  0.3276 -0.1733
24589W        W40723   6.310  12.323  11.402 -0.2816 -0.2251  0.0221
24590W        W40724  11.257  12.812  11.937 -0.0296 -0.0782 -0.2094
24591W        W40725  10.027  17.498  11.970  0.0615 -0.0648 -0.0279
24592W        W40726   3.740   6.087  12.866  0.2327 -0.1128 -0.3935
24593W        W40727  14.900   5.461   3.458  0.2364 -0.2455 -0.0109
24594W        W40728   8.817  10.445   3.133 -0.0814 -0.2167  0.1476
24595W        W40729   6.632   5.644   2.158  0.2765 -0.1136 -0.1151
24596W        W40730  15.867  11.781  14.963  0.2471  0.3866 -0.0048
24597W        W40731  18.719   0.662  11.455  0.1144 -0.1489  0.3439
24598W        W40732   1.331  10.973  10.890  0.1438 -0.3264  0.1554
24599W        W40733  18.641   4.789   3.920 -0.0754  0.3367  0.1654
24600W        W40734  16.238   2.323   3.188  0.1228  0.2076  0.1019
24601W        W40735  12.368  13.312   0.282  0.0122  0.3289 -0.1147
24602W        W40736  11.176  11.905  13.561 -0.0765 -0.0038  0.1684
24603W        W40737   1.907  14.902  10.731  0.0755  0.2631 -0.2960
24604W        W40738   0.261  17.715   5.234 -0.2600 -0.0563 -0.0782
24605W        W40739  10.269  14.144   0.193  0.0895  0.3543  0.0488
24606W        W40740   1.877   6.906  14.977 -0.0771 -0.4418 -0.0819
24607W        W40741   4.304  13.214   2.801  0.0595  0.2934 -0.1418
24608W        W40742   0.913   9.343  11.701  0.0976  0.1320 -0.2372
24609W        W40743  14.444   9.384   5.427 -0.0960 -0.1363  0.1612
24610W        W40744  12.682  13.896  13.613  0.3423 -0.1383  0.0315
24611W        W40745  14.518   1.526   0.917 -0.1669 -0.3070 -0.0176
24612W        W40746   7.867   5.826   3.842 -0.3570  0.1497 -0.3843
24613W        W40747  18.433   1.874   3.534  0.1679 -0.0822  0.0013
24614W        W40748   6.713  11.471   4.673 -0.0529  0.0662  0.1569
24615W        W40749   4.832  17.275   2.641  0.1191  0.0381 -0.1615
24616W        W40750   8.524  10.218  10.555 -0.1898 -0.1073 -0.0336
24617W        W40751   2.187   4.661  13.308 -0.2519  0.0657  0.0775
24618W        W40752  18.846  10.246  11.000 -0.0790  0.1300  0.1820
24619W        W40753  11.253  17.513  12.387  0.4284 -0.0080 -0.2905
24620W        W40754   9.346  12.998   0.780  0.0256 -0.0714  0.1466
24621W        W40755  15.554   6.730   4.681  0.3517  0.1524  0.0515
24622W        W40756   4.216  18.651   2.425 -0.0701  0.2961 -0.2448
24623W        W40757  12.322  17.627  11.635 -0.0590  0.2672  0.1392
24624W        W40758   5.588   1.736   5.019  0.0271 -0.0672 -0.0408
24625W        W40759  13.230  12.871  13.099 -0.0573  0.0026 -0.3616
24626W        W40760  14.647   0.794  14.764  0.0897 -0.1650  0.0750
24627W        W40761   9.494  13.839  10.173 -0.0801  0.4752  0.1506
24628W        W40762  14.142  13.844   0.938 -0.1793 -0.1129  0.2533
24629W        W40763  10.180   2.337  10.323 -0.1649 -0.4762 -0.2198
24630W        W40764   8.917  14.650   0.414  0.1628  0.3192 -0.0269
24631W        W40765   5.483  18.940  13.827 -0.0445  0.1235  0.0393
24632W        W40766  15.921  13.589   1.630  0.2195  0.1929 -0.4186
24633W        W40767  13.378   6.696   3.440  0.0997  0.1382  0.0983
24634W        W40768   7.271   4.116  10.302  0.0362 -0.0292 -0.3140
24635W        W40769  16.042   4.105   5.338 -0.0620 -0.2240 -0.1451
24636W        W40770   6.708  10.831   4.152 -0.2358  0.0927  0.2046
24637W        W40771   4.917  13.426   0.524 -0.2146 -0.1873 -0.1858
24638W        W40772  13.764   7.263   0.697  0.2123  0.2292 -0.0613
24639W        W40773  18.385   5.569  14.006 -0.0042  0.1344 -0.0493
24640W        W40774   8.163  10.439   1.743 -0.0061 -0.0253  0.1444
24641W        W40775   3.476   7.865   3.294 -0.3514  0.2516 -0.1218
24642W        W40776   7.035   8.155  12.703  0.0536  0.0888 -0.3590
24643W        W40777  19.009   1.410  12.755 -0.0405  0.1483  0.1240
24644W        W40778   2.504  15.498  14.675 -0.3093  0.0092 -0.2723
24645W        W40779  11.205  13.417   0.685  0.0970  0.2411  0.1066
24646W        W40780   8.576   0.216  11.958  0.1608 -0.1834  0.0997
24647W        W40781  14.637  17.956   1.052 -0.0310 -0.1748  0.1364
24648W        W40782   2.314   4.612  14.374 -0.1465  0.1380 -0.0181
24649W        W40783  10.468  16.852   5.075 -0.1690 -0.0295  0.0635
24650W        W40784   6.678   8.434  12.920 -0.0214 -0.1626  0.1779
24651W        W40785   8.295   5.600   9.480 -0.1156 -0.0693  0.0378
24652W        W40786  13.571   1.535  10.225 -0.0929 -0.3159  0.1413
24653W        W40787  11.921  11.822  11.039  0.1853  0.2020 -0.1488
24654W        W40788  15.835   9.082   2.844 -0.0461 -0.1356 -0.1607
24655W        W40789   9.551  14.784   1.099 -0.5191  0.1925  0.0765
24656W        W40790  12.487   1.852   1.472 -0.3136  0.1843 -0.2394
24657W        W40791  11.600  13.369   0.992  0.1443 -0.0668 -0.0236
24658W        W40792   5.105   2.443  11.355 -0.0771  0.0147 -0.1125
24659W        W40793   0.445   0.384   0.718 -0.1595 -0.1451  0.2477
24660W        W40794   3.950  15.199  11.618  0.1006  0.1107 -0.0806
24661W        W40795   2.155   0.184   3.770  0.1743  0.0307 -0.0962
24662W        W40796   4.614   4.641   2.527 -0.4221  0.1912 -0.0753
24663W        W40797  10.492   6.132  12.442 -0.0415  0.2470  0.0755
24664W        W40798  11.825  15.599  11.885 -0.3413  0.1878  0.2896
24665W        W40799  15.779   9.873  10.810  0.0074 -0.2654 -0.2455
24666W        W40800   0.156   4.330  14.646 -0.0781  0.5127  0.1040
24667W        W40801  12.688  10.391  12.879 -0.0096 -0.3967  0.0967
24668W        W40802  18.188  15.651   4.099  0.1141  0.2548  0.1550
24669W        W40803   2.750  19.211  11.181  0.0321  0.3555 -0.1027
24670W        W40804  17.062   7.538  12.549 -0.0582 -0.3195  0.1357
24671W        W40805   4.815   9.250  12.929 -0.0514 -0.2712 -0.0745
24672W        W40806   5.592  15.510  12.059 -0.1910 -0.0374 -0.3443
24673W        W40807   3.846   4.603  12.285 -0.1062  0.3358  0.0329
24674W        W40808   4.697  16.087   9.951  0.1860 -0.0766 -0.1705
24675W        W40809   2.682  15.886   4.351 -0.1649  0.0487  0.3180
24676W        W40810  15.197   6.499   2.820  0.1794 -0.0264 -0.2059
24677W        W40811   2.148   0.144   3.154  0.1048  0.2370  0.0336
24678W        W40812   0.193  11.740   2.044  0.1998 -0.0587 -0.2971
24679W        W40813  18.941  17.286  11.128  0.2301  0.2287 -0.0954
24680W        W40814  17.534   7.583   2.341  0.2425  0.2373 -0.3147
24681W        W40815  18.204   8.424   1.940  0.1015 -0.1348 -0.3017
24682W        W40816   0.024   7.893   2.272  0.2026  0.0123  0.2093
24683W        W40817   8.049   8.592   2.433 -0.1846  0.0850  0.0731
24684W        W40818   8.003  18.363   0.243  0.2272  0.3731 -0.0585
24685W        W40819   5.133   1.605   1.492  0.1446 -0.1425  0.3142
24686W        W40820  15.286   5.196   3.095 -0.2120 -0.2037 -0.1455
24687W        W40821  13.266   3.235   2.583  0.1964 -0.4135 -0.3480
24688W        W40822   9.202   3.515   2.883 -0.0886  0.0169 -0.0296
24689W        W40823   6.851  13.604   5.516  0.0815  0.1030 -0.2466
24690W        W40824   6.854  10.139   1.678 -0.2550  0.0097 -0.2174
24691W        W40825  11.961  18.731  11.125  0.2496 -0.4572 -0.2502
24692W        W40826   4.193  14.051  14.892 -0.0829  0.1845 -0.2434
24693W        W40827   7.193   2.715   4.528  0.2148  0.0211 -0.2991
24694W        W40828  18.153  12.709  13.598 -0.1179 -0.1207  0.1983
24695W        W40829  11.278   7.476   3.641 -0.1190  0.4167 -0.1699
24696W        W40830  12.276  18.468   0.876 -0.1823 -0.0815  0.1571
24697W        W40831   7.475  15.245  13.466  0.1659 -0.2710 -0.0453
24698W        W40832  18.370  16.554  13.208  0.0209  0.2915 -0.0100
24699W        W40833  10.175   1.803   4.137  0.4200 -0.2425  0.1251
24700W        W40834   3.714  10.295   4.924  0.2794  0.0051 -0.2330
24701W        W40835   2.533   5.146   2.996 -0.0728 -0.0523  0.0756
24702W        W40836  10.254   9.121  11.736  0.0954  0.0381  0.2034
24703W        W40837   7.612   1.824  11.238 -0.2481  0.1907 -0.1166
24704W        W40838  19.070  15.156  12.028  0.0868 -0.1138  0.1168
24705W        W40839   2.263   8.527   5.620 -0.1118  0.0340  0.0840
24706W        W40840   8.214   6.050   0.452 -0.2917  0.0271 -0.2805
24707W        W40841  15.234   6.395   3.787 -0.0735 -0.0029  0.0055
24708W        W40842  12.520  16.728  11.353 -0.0244  0.0962 -0.2679
24709W        W40843   7.547   8.185   1.119 -0.0079 -0.1275  0.1565
24710W        W40844   0.773  17.462   0.860  0.1837 -0.0061 -0.1308
24711W        W40845  10.298   5.923   1.869 -0.0413  0.0265 -0.0588
24712W        W40846   2.061   4.710   0.272  0.0213  0.1559  0.1566
24713W        W40847  17.571   3.336  14.157  0.0055  0.2195 -0.1271
24714W        W40848   2.985  10.483  12.282  0.0513 -0.1421  0.1554
24715W        W40849   5.925  15.718   1.852  0.0312  0.1140  0.0257
24716W        W40850   0.240  19.184  14.219 -0.0311  0.1526  0.1349
24717W        W40851   2.586   8.668   2.510  0.2644 -0.2093 -0.3247
24718W        W40852   7.578   9.245  11.055 -0.1350 -0.2818  0.1533
24719W        W40853   9.641  16.588   5.479 -0.1124  0.1014 -0.0621
24720W        W40854   0.654  12.961  13.701  0.2037  0.1128 -0.2024
24721W        W40855   6.360   1.153  11.553 -0.2302 -0.0487  0.3528
24722W        W40856   7.947   7.784   0.285  0.0616  0.1000 -0.1748
24723W        W40857  12.745   2.686   1.529  0.1755 -0.0929 -0.0774
24724W        W40858   3.477  14.606   1.813 -0.0707  0.0255 -0.0612
24725W        W40859   6.837  11.774  12.237  0.4631 -0.2420  0.3790
24726W        W40860   0.371  13.914   1.873  0.4473  0.1517 -0.3691
24727W        W40861  11.751  10.114  12.424 -0.1176  0.0273 -0.1377
24728W        W40862   0.689   9.650   2.427 -0.1210 -0.1799 -0.1135
24729W        W40863   7.033  18.059   2.367  0.1091  0.3863  0.1297
24730W        W40864   1.956  19.130  12.758 -0.0190  0.2925  0.2629
24731W        W40865   2.022  15.185   1.428  0.1887 -0.2647  0.1055
24732W        W40866   3.972   9.107   5.369 -0.2105 -0.1294  0.2188
24733W        W40867   7.810   5.315  12.484 -0.3493 -0.0384 -0.0059
24734W        W40868  16.053  18.628  11.998 -0.2677 -0.1322 -0.1987
24735W        W40869  18.814  19.164   1.942  0.2861  0.0822 -0.1254
24736W        W40870  17.668   5.986   2.642  0.0046 -0.1331 -0.1667
24737W        W40871   7.413  10.594  14.830 -0.1012  0.2090  0.1715
24738W        W40872  11.053  11.815  12.879  0.0548  0.1306 -0.1494
24739W        W40873   2.149   5.540   2.855  0.1874  0.0717 -0.0360
24740W        W40874   0.469  17.047   2.222 -0.2049  0.1135  0.2333
24741W        W40875   4.895  11.949  12.258 -0.0297  0.2439 -0.0424
24742W        W40876   3.186   4.983  14.776 -0.1959 -0.3566 -0.0061
24743W        W40877  12.475   9.466  10.429  0.0862 -0.5448  0.2295
24744W        W40878   4.998   5.073   3.801  0.0986  0.1968 -0.1979
24745W        W40879  16.432  10.437   1.147  0.1585  0.0624 -0.1754
24746W        W40880   7.497  14.032  12.850 -0.0197  0.3468  0.0744
24747W        W40881   3.808  15.649  14.829 -0.1056  0.0076 -0.1599
24748W        W40882   5.166  17.596   4.357  0.6771  0.0709 -0.0072
24749W        W40883  13.415   2.844   4.449 -0.1520  0.2273 -0.2112
24750W        W40884   7.964  18.798  10.977  0.0314 -0.3164  0.0425
24751W        W40885  13.618  11.813   0.012  0.0764 -0.0381 -0.0189
24752W        W40886   8.210  14.910   3.575  0.0957 -0.1670 -0.0280
24753W        W40887  12.821   3.276  14.691  0.1011  0.2129  0.1615
24754W        W40888  10.665   2.280   0.836  0.3597 -0.1791 -0.1386
24755W        W40889   9.832  14.545   5.128 -0.1766  0.0730 -0.0709
24756W        W40890   1.365   3.963   4.649  0.2140  0.2568 -0.1182
24757W        W40891   9.468   1.324  12.688 -0.0301  0.1693  0.0234
24758W        W40892  10.840   1.395  14.793 -0.1109  0.0085  0.1618
24759W        W40893   3.021   8.986  11.671 -0.3112  0.1396 -0.0273
24760W        W40894   3.678  15.911   3.979  0.1322  0.0600 -0.0207
24761W        W40895   2.196   7.354  13.737  0.1113 -0.4950 -0.0762
24762W        W40896   8.277   6.231  12.851 -0.4106 -0.0923 -0.0591
24763W        W40897   9.371   7.174  12.066 -0.0117 -0.0776 -0.1443
24764W        W40898   9.376   4.994   8.895  0.0009  0.2276 -0.3209
24765W        W40899   4.228  14.910   3.685 -0.0718 -0.0813 -0.2734
24766W        W40900  11.832  11.117  12.196 -0.0118 -0.1692  0.1101
24767W        W40901  12.792  14.109   3.597  0.1152  0.0978 -0.4959
24768W        W40902  12.641   2.885  14.976  0.1098 -0.2445 -0.0789
24769W        W40903   6.466   6.264  13.433  0.1456  0.0175 -0.1132
24770W        W40904   0.150  12.527   4.641  0.1372 -0.2257 -0.0421
24771W        W40905   7.991  15.414  11.943  0.0698 -0.2851  0.1876
24772W        W40906   5.064  12.170   1.211 -0.2762  0.1291  0.0060
24773W        W40907  13.621   4.334  12.957  0.0633  0.2280  0.4596
24774W        W40908  12.934  17.683  13.046 -0.0436 -0.0629 -0.1000
24775W        W40909  12.947   3.399   4.000 -0.1259 -0.0503 -0.4020
24776W        W40910   3.075   6.356  14.685 -0.1347  0.2310  0.1912
24777W        W40911  13.305  17.952  10.879 -0.3082 -0.0714 -0.0594
24778W        W40912   3.823   6.504   2.304  0.0760 -0.2204 -0.2168
24779W        W40913   5.384   7.123   4.915 -0.0052 -0.2443 -0.1761
24780W        W40914  16.256   1.638   9.713  0.1063 -0.1393  0.0870
24781W        W40915   8.231   3.475  11.435  0.2210  0.0613  0.0560
24782W        W40916  12.042   6.040  11.429  0.2914  0.1254  0.0312
24783W        W40917   1.123   5.665   4.477 -0.0640  0.0003  0.4849
24784W        W40918   8.279   7.287   1.930 -0.1323 -0.1351  0.0148
24785W        W40919   3.204   0.067   5.470  0.0919  0.0350 -0.0736
24786W        W40920   0.946   6.427  12.934 -0.1798  0.1536 -0.1960
24787W        W40921  12.325   2.222  13.939 -0.0313  0.5607  0.0125
24788W        W40922  14.002   6.264  13.509  0.3738 -0.1523  0.3742
24789W        W40923   4.384  18.837   4.912  0.0497 -0.2199 -0.0968
24790W        W40924   5.067   6.777   1.887  0.1517 -0.0427  0.0238
24791W        W40925   8.017   6.018   1.575 -0.2586 -0.0375  0.1194
24792W        W40926  18.017  14.077   1.102 -0.1730 -0.1266 -0.0087
24793W        W40927   1.178  15.539  11.754  0.2528  0.0200  0.0984
24794W        W40928   7.358  18.448   2.443  0.1281 -0.0743 -0.0466
24795W        W40929  17.139   8.008   2.157 -0.1874  0.1301 -0.1066
24796W        W40930  11.478   2.476  13.884 -0.0652  0.0130  0.1033
24797W        W40931  12.720  18.685   0.049 -0.1628 -0.0578  0.0107
24798W        W40932  13.027  15.065   2.587  0.1832 -0.1307 -0.1739
24799W        W40933  17.772  12.205  11.598  0.0057  0.1646 -0.2810
24800W        W40934  16.657   8.638  11.522  0.0489 -0.0657  0.0238
24801W        W40935  15.976   5.741   0.810 -0.0525  0.2200 -0.0282
24802W        W40936   4.001   4.509  13.761  0.1016 -0.0070  0.0469
24803W        W40937   7.517  12.927   1.811 -0.1311 -0.1021 -0.2086
24804W        W40938  19.214  18.742   4.804  0.1210  0.0312  0.1441
24805W        W40939   2.901   3.153   2.258  0.5540 -0.2608  0.3094
24806W        W40940   5.681   2.333  12.586  0.0283 -0.0403  0.0106
24807W        W40941  11.044  16.917  13.621  0.1708 -0.1751  0.0343
24808W        W40942  12.411   3.666   4.834  0.3677 -0.1051  0.0544
24809W        W40943  13.607  19.012   2.505 -0.0031 -0.3107  0.1355
24810W        W40944   5.922   2.516   2.129  0.2919 -0.3767  0.0575
24811W        W40945  16.148   7.640   0.082  0.4992  0.1494 -0.0871
24812W        W40946  17.423   1.511  11.686  0.0004  0.1682 -0.1618
24813W        W40947  15.155   3.740   3.015 -0.0029 -0.0628 -0.0451
24814W        W40948   1.790  17.301   0.481  0.0681 -0.0721 -0.3793
24815W        W40949  17.131   4.212   0.119 -0.4895  0.1414  0.0177
24816W        W40950  12.567  11.788  11.202  0.1707  0.0980  0.2011
24817W        W40951  16.219  13.897   1.342  0.2262  0.0312 -0.0300
24818W        W40952  13.690  14.617  13.052 -0.0999 -0.1921  0.1614
24819W        W40953  18.885   7.883  13.616 -0.1812 -0.0245  0.0435
24820W        W40954   3.950   1.463  10.453  0.0671  0.0871  0.1186
24821W        W40955   6.560   3.321   1.096  0.0288  0.2075  0.2403
24822W        W40956   7.669   7.637   2.337  0.5378 -0.1512 -0.2080
24823W        W40957   6.747  14.188  13.856 -0.0391 -0.0598  0.1307
24824W        W40958   8.165   1.602   0.714 -0.1966 -0.0450 -0.3253
24825W        W40959  14.139  16.593   3.569 -0.0397  0.1474  0.0720
24826W        W40960   0.105   4.775  13.650 -0.1088 -0.0476 -0.3018
24827W        W40961  10.217  12.383   5.115  0.1535  0.0208  0.2115
24828W        W40962   6.347   6.419   2.533  0.2231 -0.1647  0.4845
24829W        W40963   6.171  16.148  10.837  0.0952  0.0279 -0.0695
24830W        W40964  10.545   5.577  13.139 -0.0987 -0.1985  0.1204
24831W        W40965  17.336   8.994  14.121  0.2002 -0.0327  0.1359
24832W        W40966   9.070   8.880   2.472  0.0040  0.0370 -0.0590
24833W        W40967   4.811   7.929  11.450  0.0234 -0.1081  0.0536
24834W        W40968  14.540   2.691   2.718  0.1728  0.2064  0.5528
24835W        W40969  15.922   8.747  12.835  0.2678  0.1083 -0.0210
24836W        W40970   8.110   5.289  11.511  0.3675  0.0153 -0.1068
24837W        W40971   6.948   5.822   0.053 -0.2564 -0.1651 -0.1062
24838W        W40972  10.203  11.040   4.787 -0.2107  0.2275 -0.2458
24839W        W40973  14.254   6.102  11.125  0.0124 -0.0294  0.1917
24840W        W40974  15.990   9.151  13.157  0.2304 -0.0721 -0.0545
24841W        W40975   7.516   9.046   3.846  0.1474 -0.3983  0.1195
24842W        W40976   9.296  15.058   2.639  0.3061 -0.2298 -0.3689
24843W        W40977   0.762  17.044   2.730  0.1004 -0.1008 -0.0071
24844W        W40978   3.388   2.067   3.773  0.2303 -0.0096  0.0280
24845W        W40979  16.525   9.759  11.602  0.1887  0.4030  0.2578
24846W        W40980  11.485   3.306  14.572 -0.0150 -0.0041 -0.0196
24847W        W40981  14.864   9.650  10.783  0.2533 -0.2287  0.1661
24848W        W40982  10.175  12.480   1.695  0.2597 -0.1726  0.0793
24849W        W40983  15.462  10.705   5.200  0.0839 -0.0599 -0.3592
24850W        W40984   2.103  15.613  12.803 -0.2118  0.0926  0.1345
24851W        W40985  19.233  12.221   5.001 -0.2023 -0.0902 -0.0082
24852W        W40986   6.048  16.513   2.891 -0.0716 -0.2038  0.0729
24853W        W40987   8.607   8.766  13.569  0.1841 -0.0643  0.2420
24854W        W40988   8.253   7.028   0.627 -0.0649 -0.2436  0.0119
24855W        W40989   5.607   4.906  12.686  0.0828 -0.1449 -0.1235
24856W        W40990   3.837  16.587  11.435 -0.1922 -0.0578 -0.2495
24857W        W40991  16.423   2.675  13.946  0.0659 -0.2924 -0.1075
24858W        W40992  16.262  10.641  13.410 -0.0483  0.1008  0.0934
24859W        W40993  11.708   9.215  11.494 -0.0355 -0.0775 -0.1608
24860W        W40994   0.724   0.502   1.094  0.2357  0.0883  0.1321
24861W        W40995   2.424  10.918   5.467  0.1186 -0.0760 -0.1459
24862W        W40996   4.333  19.143  10.680 -0.0014  0.2367 -0.1519
24863W        W40997  18.964   4.402  14.388 -0.2208 -0.0346 -0.0479
24864W        W40998   6.471  14.641  11.978 -0.3538  0.1975 -0.2162
24865W        W40999   8.867   1.776   2.143 -0.0384 -0.0081  0.2439
24866W        W41000   4.260   7.297   3.441 -0.2115 -0.0533 -0.1391
24867W        W41001   2.127  18.225   5.007  0.0806 -0.1323 -0.1256
24868W        W41002  13.765   6.040  11.098 -0.1196 -0.0948  0.0002
24869W        W41003   0.212  15.124   4.779  0.1547  0.1015 -0.0227
24870W        W41004  18.373  14.798  11.959  0.1518 -0.0551 -0.0098
24871W        W41005  16.443  13.636   3.534  0.3451 -0.0108  0.2803
24872W        W41006   9.392  12.608  12.134 -0.0676  0.2930 -0.0291
24873W        W41007   0.201   2.357   0.507  0.0932  0.0844  0.2916
24874W        W41008  16.212  12.758  13.192  0.3438  0.1038 -0.0226
24875W        W41009   4.727   9.310   3.752  0.0606  0.1637  0.0712
24876W        W41010   5.705   2.198   0.243  0.1881  0.2048 -0.0723
24877W        W41011  15.132   7.180  10.408 -0.2338 -0.1010  0.0891
24878W        W41012   0.243  13.346  12.626  0.4103  0.4076  0.0363
24879W        W41013   6.355  14.331  13.557  0.1117  0.0556  0.2075
24880W        W41014  14.445  15.580   0.804 -0.2681  0.1170  0.1748
24881W        W41015  13.177   0.080   2.498 -0.0134  0.3341  0.0949
24882W        W41016   5.652  18.902  11.490  0.0484  0.0165  0.1784
24883W        W41017  18.134   8.483  11.030 -0.3683  0.1798 -0.2988
24884W        W41018  10.721  12.730   0.215 -0.0992  0.0494 -0.2091
24885W        W41019   5.553   5.281   4.529  0.1312  0.4050 -0.1944
24886W        W41020   6.136  12.679   1.133  0.0434  0.2242  0.1619
24887W        W41021  13.188  12.516  14.538 -0.0313  0.0143 -0.0905
24888W        W41022   7.322  10.494   4.848 -0.0468 -0.1537  0.0119
24889W        W41023  18.524   3.550  14.382  0.1778  0.1906 -0.1091
24890W        W41024  18.778  15.620   2.671 -0.1833  0.2166 -0.0200
24891W        W41025   4.709  15.791  12.152 -0.0800  0.3109 -0.0125
24892W        W41026   7.848  17.549  13.032  0.2060 -0.1434 -0.0584
24893W        W41027  16.655  11.045   3.136  0.0195 -0.1919  0.2914
24894W        W41028  12.925   3.659   1.296  0.1017  0.0591  0.2309
24895W        W41029   8.862   9.404   3.818 -0.1857 -0.1343 -0.3270
24896W        W41030  13.198  18.785   2.185  0.1009 -0.2123  0.0475
24897W        W41031  13.027   0.918  12.398  0.2254 -0.0461 -0.1060
24898W        W41032   8.563  13.940  11.590 -0.0377  0.0771  0.3494
24899W        W41033  18.029  18.807   2.343 -0.1268 -0.1168 -0.3345
24900W        W41034   2.045  18.833   0.327  0.0506 -0.2014 -0.1831
24901W        W41035  11.915  13.680   3.695 -0.0558  0.0743  0.0048
24902W        W41036   1.417  11.161   0.072 -0.1418  0.1036  0.4020
24903W        W41037  14.522  18.415   1.978 -0.2254 -0.6348  0.0826
24904W        W41038  11.620   4.608  13.064 -0.0348  0.1785 -0.3876
24905W        W41039   6.955  15.099  11.790 -0.0868  0.1915 -0.2084
24906W        W41040  12.751  11.531  14.932 -0.3234 -0.1076  0.1302
24907W        W41041  13.725  16.855   3.277 -0.0587 -0.0166  0.0144
24908W        W41042  17.208   9.759  13.579 -0.1248  0.4611  0.0359
24909W        W41043  13.357  13.210   1.121 -0.0336 -0.1521 -0.1182
24910W        W41044  13.300  13.893   3.601  0.4713  0.1802 -0.0976
24911W        W41045   2.066   4.280  12.918 -0.0138  0.2137  0.0170
24912W        W41046  11.584  16.138   3.489 -0.1327 -0.1473 -0.0177
24913W        W41047   9.658   7.214  10.356 -0.4811  0.0462  0.1011
24914W        W41048  10.226   7.725  13.793 -0.0591 -0.1611 -0.0728
24915W        W41049   7.144   1.681  13.169 -0.0746 -0.1173  0.0031
24916W        W41050  13.682   4.598  13.861 -0.2597  0.1542  0.0851
24917W        W41051   5.373   1.874  11.174  0.0374 -0.3740 -0.2271
24918W        W41052  14.959   0.968  12.521  0.1545 -0.0523  0.1934
24919W        W41053   5.627  16.739   3.217 -0.0951  0.2482 -0.1364
24920W        W41054   4.852   6.288  14.806  0.2507 -0.0682  0.1104
24921W        W41055   0.782  17.557   1.387  0.0627 -0.0811  0.1780
24922W        W41056  10.223   4.896   0.645 -0.2365 -0.3596  0.0930
24923W        W41057   5.899  10.495   4.508 -0.0308 -0.4162 -0.2104
24924W        W41058  18.922   6.069  12.867 -0.0205 -0.0986  0.6295
24925W        W41059   4.752  11.751   3.029  0.0367 -0.1502  0.0714
24926W        W41060  16.326  13.552  13.130  0.3120  0.0883  0.1192
24927W        W41061   6.768   1.751   2.959  0.0682 -0.0537 -0.2538
24928W        W41062   5.264  13.858   4.569  0.0019 -0.0586  0.0629
24929W        W41063  16.475   8.042  11.795  0.0841 -0.0723  0.2426
24930W        W41064   7.134  17.441  12.070 -0.2491  0.0750 -0.1876
24931W        W41065   7.109   4.160  12.960 -0.2509  0.0827 -0.1778
24932W        W41066  14.960  11.603  11.459 -0.1712 -0.2664  0.0343
24933W        W41067   2.556  15.778   5.381 -0.1145 -0.1728 -0.0154
24934W        W41068   0.719  10.527  12.074 -0.0424  0.1216 -0.4437
24935W        W41069   3.000  18.778   1.851  0.0109 -0.0044  0.1310
24936W        W41070  19.140   2.600   1.745  0.3469  0.4032  0.1004
24937W        W41071  11.899  19.152  13.415 -0.0966 -0.1049  0.3002
24938W        W41072  14.427   2.763  12.985 -0.1645  0.0765  0.2346
24939W        W41073   7.313   7.549   2.778 -0.1147  0.0700 -0.0387
24940W        W41074  14.255   9.691  14.265 -0.2781  0.3084  0.2409
24941W        W41075  16.854   4.227  12.565 -0.2250  0.0758  0.0906
24942W        W41076  13.788   3.395   1.685 -0.2043  0.0284 -0.1795
24943W        W41077  13.815  12.411   3.099 -0.1876 -0.0243  0.0578
24944W        W41078   0.364   1.292  11.079  0.1443  0.0631 -0.0715
24945W        W41079  10.168   9.509   0.958  0.1940 -0.1829 -0.1729
24946W        W41080   3.322   8.592  10.795  0.0840  0.1881 -0.1860
24947W        W41081   5.707  15.958  10.521  0.0991 -0.1737 -0.0876
24948W        W41082   3.929   9.680  11.867 -0.1503  0.3191  0.0991
24949W        W41083   8.420   0.528   4.414 -0.4968 -0.4372 -0.1741
24950W        W41084  16.448  12.880   1.652  0.0622 -0.1089  0.1121
24951W        W41085   6.771  16.800   1.493 -0.1453  0.0158 -0.0069
24952W        W41086  19.175  15.108  12.956  0.4701 -0.0040 -0.2194
24953W        W41087   5.298   5.186  13.181 -0.4317  0.0285 -0.0344
24954W        W41088   7.519  13.436   4.472  0.1789 -0.4318  0.0729
24955W        W41089   3.010  14.046   5.639 -0.0096 -0.1104  0.0314
24956W        W41090   4.678  10.319   1.482 -0.2097  0.0740 -0.3383
24957W        W41091  14.071  16.871   5.656 -0.0849  0.2929 -0.3187
24958W        W41092  11.408  17.272  11.167 -0.2379  0.0754  0.2047
24959W        W41093  16.050  17.512   1.708 -0.0619  0.2693 -0.0185
24960W        W41094  10.212  17.222   4.887 -0.0367 -0.0175 -0.0231
24961W        W41095   3.434  17.523   2.460  0.2704  0.0499 -0.2476
24962W        W41096   6.746  10.568  10.697 -0.1740  0.3497 -0.0758
24963W        W41097   6.605  17.005   3.629 -0.0843  0.0541 -0.2446
24964W        W41098  13.289  17.589   2.754  0.0511  0.1054 -0.1600
24965W        W41099   1.616  18.408   1.876  0.0200  0.0890 -0.2526
24966W        W41100   0.625   9.250   5.868 -0.3316 -0.1693  0.0452
24967W        W41101   5.525   9.582  12.176  0.0553  0.1023  0.1127
24968W        W41102   9.181   5.866  13.308  0.1405  0.2848  0.0615
24969W        W41103  16.422  10.654  12.287  0.0837  0.0431 -0.0869
24970W        W41104  12.114  10.575   5.008  0.1464  0.0040  0.1102
24971W        W41105   9.797   8.049  12.726  0.0107 -0.1311 -0.0109
24972W        W41106   9.527   2.997  11.390 -0.0965  0.0521  0.0133
24973W        W41107   9.766  10.349   1.710  0.2824  0.2115  0.0050
24974W        W41108  14.996  11.497   3.608 -0.0367  0.1272 -0.1840
24975W        W41109  12.481   6.365   3.947 -0.1441 -0.2865 -0.1573
24976W        W41110  11.188   9.961  12.593  0.0972 -0.0060  0.0810
24977W        W41111   9.012   3.911  10.574  0.1722  0.1605 -0.0905
24978W        W41112   8.116  19.045  10.532 -0.0246 -0.0588 -0.1628
24979W        W41113  18.635   1.193   0.132  0.2722  0.1687 -0.1037
24980W        W41114  19.059   2.486   4.198 -0.2926  0.0246 -0.0910
24981W        W41115  11.227  16.674  11.842  0.1245  0.0661  0.1651
24982W        W41116   7.190   8.755   0.555  0.3985  0.2732  0.4785
24983W        W41117   7.882  14.860   5.066  0.0215  0.1437  0.1309
24984W        W41118  15.766  19.046   3.719 -0.3002  0.0482 -0.1347
24985W        W41119  12.515  18.151   5.510 -0.1830  0.3303  0.1194
24986W        W41120  15.487  13.725  11.063 -0.2388 -0.2125  0.1247
24987W        W41121  14.052   1.820   0.881  0.2980 -0.0037 -0.0546
24988W        W41122  11.091   1.141  11.392 -0.1803 -0.1250  0.1435
24989W        W41123  16.233  17.398  14.827 -0.1999  0.2041 -0.2165
24990W        W41124   0.751  16.313   5.433 -0.1805  0.3233 -0.4703
24991W        W41125  12.674  10.888   4.326 -0.1126  0.0429 -0.3018
24992W        W41126  13.415  17.622  12.158  0.1049  0.0825  0.3639
24993W        W41127   9.304  17.854   2.071 -0.2393 -0.3307  0.2462
24994W        W41128  14.209   3.992   4.526  0.1651  0.0129 -0.2200
24995W        W41129   1.856  15.740  13.673  0.0539 -0.1235 -0.0429
24996W        W41130   7.121  13.521  10.890 -0.2304 -0.1776  0.1996
24997W        W41131   7.101  14.449  10.833  0.3381  0.0653  0.0662
24998W        W41132  11.966  15.028  12.757 -0.2352  0.3284 -0.0237
24999W        W41133  11.044  10.599   1.679  0.1824  0.1511 -0.0704
25000W        W41134   9.313  10.632   4.498  0.2292 -0.0795  0.2725
25001W        W41135  13.926  16.326   2.045  0.3439 -0.0842  0.0673
25002W        W41136   0.671  13.703   1.411  0.1014 -0.0208  0.0534
25003W        W41137  15.760   6.758  13.425 -0.1636  0.2096 -0.3634
25004W        W41138  12.133   5.831  14.230 -0.0717 -0.0556 -0.3178
25005W        W41139  12.991   3.508  12.815  0.0342 -0.1209  0.0675
25006W        W41140  11.662   0.204  10.313 -0.0245 -0.0034  0.0641
25007W        W41141  19.241  17.326  14.706 -0.0005  0.0557 -0.0637
25008W        W41142  13.421  18.017   4.097  0.0570  0.1827  0.0058
25009W        W41143  14.899  14.398  11.244  0.0890  0.1197 -0.2014
25010W        W41144  11.751   9.229   3.720  0.2635 -0.2154 -0.0073
25011W        W41145   7.817   2.780   4.078 -0.2715  0.0350 -0.0840
25012W        W41146  11.869  19.228  14.653 -0.0770  0.0927 -0.0252
25013W        W41147   8.149   2.874   4.664 -0.2520 -0.2762 -0.4016
25014W        W41148  17.218   3.622   1.311 -0.0089 -0.1165 -0.1517
25015W        W41149   7.984   9.546   3.554  0.1906 -0.0798  0.2710
25016W        W41150   0.908   8.382  14.146 -0.1830  0.1099  0.0259
25017W        W41151   7.702   5.314   0.018 -0.4088  0.1467 -0.0274
25018W        W41152  13.534  12.567  12.807 -0.1333  0.0341  0.2056
25019W        W41153  11.192   7.976   0.260  0.0439 -0.1020 -0.2213
25020W        W41154  12.288  14.731   4.908  0.0130  0.0806  0.0130
25021W        W41155   0.968  17.916   0.586  0.2990 -0.1427 -0.3450
25022W        W41156  15.269   7.065   2.134  0.0052 -0.1511 -0.1742
25023W        W41157   0.171   1.143  14.981  0.0724  0.2801  0.0127
25024W        W41158  12.349   2.107   0.267  0.3699  0.3057 -0.2681
25025W        W41159   3.686  15.524   9.897 -0.0350 -0.3535 -0.2253
25026W        W41160   4.576  17.561   3.221  0.0593  0.0659  0.0215
25027W        W41161   3.566  17.483  13.519 -0.1398  0.1966  0.0668
25028W        W41162  12.313   4.003  11.717  0.3703 -0.0275  0.2258
25029W        W41163  10.510   9.885   2.748 -0.1740 -0.0932  0.4757
25030W        W41164  12.388   8.069   1.615 -0.0593  0.1305 -0.3292
25031W        W41165   7.240   1.236  12.947 -0.0973 -0.0985 -0.5048
25032W        W41166  19.063   5.039   2.636  0.4174  0.2928  0.0109
25033W        W41167   9.745  18.402  11.058  0.2272  0.4186 -0.2629
25034W        W41168  10.214  15.165  11.655 -0.0129 -0.1880  0.0430
25035W        W41169  12.703  11.025   0.690  0.0914  0.0976 -0.0375
25036W        W41170  12.752   8.233   0.135  0.2321  0.0539 -0.2883
25037W        W41171  11.558  15.672   1.819  0.0288 -0.0506 -0.1339
25038W        W41172   8.969   1.935  11.069 -0.4513 -0.3227 -0.0357
25039W        W41173   6.121   3.779   2.653 -0.0929  0.2232 -0.1066
25040W        W41174   6.711  15.639   4.869 -0.0422 -0.1095 -0.1156
25041W        W41175  11.133   1.272   1.346  0.1500 -0.0238  0.3154
25042W        W41176   0.287  10.791  11.304 -0.1566 -0.1341 -0.2299
25043W        W41177   3.429   1.135   2.738 -0.2394  0.0437  0.2047
25044W        W41178   1.055   3.803   5.295 -0.3284 -0.1973 -0.0195
25045W        W41179   3.521  14.422  13.297  0.3800  0.1419 -0.4580
25046W        W41180   7.063   4.792  12.345 -0.0204  0.0343 -0.1769
25047W        W41181   9.893  13.089  10.741  0.4001 -0.0972 -0.2523
25048W        W41182   7.321  16.845   5.294 -0.0539  0.3059 -0.0464
25049W        W41183  14.641  16.503   1.057  0.2271 -0.1603  0.0836
25050W        W41184   5.160   6.891   0.041 -0.1586 -0.0921  0.3928
25051W        W41185  14.187   5.099   4.108  0.1031  0.0566  0.0837
25052W        W41186  13.636  15.442  14.748 -0.0546 -0.1841  0.0186
25053W        W41187   7.978  14.013   3.832 -0.2551  0.1007 -0.2506
25054W        W41188   7.773  10.981  13.006  0.1068  0.1221  0.1677
25055W        W41189   8.097   0.474   1.094 -0.3160 -0.0711 -0.2221
25056W        W41190  11.641   5.672  11.498 -0.0372 -0.0232  0.1007
25057W        W41191   5.357   6.221  10.226 -0.1060  0.1635  0.0762
25058W        W41192  11.317  11.558   2.650 -0.0193 -0.0954  0.0231
25059W        W41193  13.030  16.382   1.461 -0.3965  0.2578  0.2192
25060W        W41194  16.128  17.604   3.582 -0.1921  0.3143  0.3184
25061W        W41195  17.454  13.014   4.053 -0.0045 -0.0135 -0.0793
25062W        W41196   4.916   0.423  14.858  0.1954 -0.2545  0.0330
25063W        W41197  13.730  12.456  11.198 -0.1151 -0.0121 -0.1043
25064W        W41198   1.502   6.253   2.449  0.0381  0.0963  0.4448
25065W        W41199  12.987   6.512  12.844 -0.3396  0.3341 -0.0864
25066W        W41200   5.352   5.576   0.773  0.1215  0.3974  0.2600
25067W        W41201  11.555  11.632  13.657  0.0265  0.1471 -0.1959
25068W        W41202  11.801  12.985  10.359  0.1557  0.0386 -0.1936
25069W        W41203   6.053   3.720   2.036 -0.0314 -0.2156 -0.2931
25070W        W41204  19.095   4.766  14.686  0.0989  0.2354  0.1085
25071W        W41205   5.010   4.604  11.589 -0.0957  0.2460 -0.0140
25072W        W41206  16.737   4.983   0.601  0.0244  0.2124  0.1081
25073W        W41207  12.643   7.357   0.071 -0.0481  0.2811  0.1436
25074W        W41208   9.582   5.629   4.088 -0.2006  0.0002 -0.0405
25075W        W41209  11.487  18.489  11.037 -0.1874  0.2357 -0.1274
25076W        W41210  13.032   9.607   2.333 -0.4129 -0.5162  0.4217
25077W        W41211  15.272   1.400  13.501 -0.0101  0.1971  0.2107
25078W        W41212   7.401  17.224  14.877  0.0915 -0.0812 -0.1946
25079W        W41213  13.042  13.784   4.448  0.2676 -0.0845 -0.0926
25080W        W41214  14.975   8.934  14.302  0.3530 -0.2508 -0.1917
25081W        W41215   8.672  11.126  14.940 -0.0485 -0.1772 -0.5117
25082W        W41216  13.802  15.920  14.791 -0.1960  0.1347 -0.0140
25083W        W41217   4.512   7.283  12.008 -0.0094  0.1823 -0.1501
25084W        W41218  17.820   2.867   0.529  0.0744  0.5285 -0.0333
25085W        W41219  18.388  11.272   0.130  0.1121  0.2161 -0.2609
25086W        W41220  15.362  11.667   5.142 -0.0969 -0.1426  0.0334
25087W        W41221   0.134  17.512   3.902 -0.3078  0.2342  0.1073
25088W        W41222   2.546   0.661   1.816  0.0653 -0.0058  0.1574
25089W        W41223   2.577   9.842  11.784  0.1362  0.3181 -0.1763
25090W        W41224  13.044  17.569   4.897 -0.3866 -0.2999 -0.0608
25091W        W41225   6.104   6.441  12.194 -0.3934 -0.0473  0.0530
25092W        W41226  13.645  18.909  10.690 -0.0252 -0.3279 -0.0310
25093W        W41227   0.907   1.143   4.651 -0.5116 -0.0119  0.1474
25094W        W41228  15.281  10.968   1.841  0.1504 -0.3191 -0.0691
25095W        W41229   9.345  13.304   1.372  0.1589  0.0906 -0.3484
25096W        W41230   8.112   2.597   1.288  0.1096  0.4249  0.1526
25097W        W41231  11.662   7.975   0.096 -0.0090 -0.1562 -0.1107
25098W        W41232   5.708  18.784  12.039 -0.2358  0.1709 -0.0882
25099W        W41233  17.640   7.640  14.102 -0.0420 -0.1086 -0.0214
25100W        W41234  18.151   3.345   3.470 -0.3513  0.0029 -0.0945
25101W        W41235   1.282  12.057   0.053  0.1836  0.2042  0.1478
25102W        W41236  12.497   6.124  10.339  0.0092 -0.0403  0.1702
25103W        W41237   1.250  15.910   2.462  0.0330  0.0022  0.0205
25104W        W41238  14.174  15.737  13.928 -0.1144 -0.0875 -0.1213
25105W        W41239   9.646   7.504   5.081  0.2559  0.0181  0.4400
25106W        W41240  15.652  13.141  12.473 -0.0257  0.1122  0.4880
25107W        W41241   7.919   4.889  12.132  0.0788 -0.4773  0.2358
25108W        W41242  14.220  12.974  10.438 -0.0774 -0.0862 -0.1103
25109W        W41243   3.043  12.854   1.169 -0.0168  0.2340  0.2124
25110W        W41244  16.327   5.459   1.844 -0.2192 -0.2256  0.2425
25111W        W41245   3.148  18.939  11.394 -0.3812 -0.0614 -0.1120
25112W        W41246   9.615  17.409  10.461 -0.0186 -0.0317  0.0533
25113W        W41247   3.094  11.111   2.803  0.0011 -0.2101  0.0227
25114W        W41248  14.316  14.641   4.992  0.0743 -0.0635 -0.1820
25115W        W41249   3.052  11.541   5.514  0.0145 -0.1929 -0.3199
25116W        W41250  13.061   3.945  10.955 -0.1870  0.2755  0.0564
25117W        W41251  17.512   9.387  12.369 -0.0927  0.1552  0.1479
25118W        W41252   7.374   5.267  14.144 -0.2694  0.2275  0.0718
25119W        W41253  18.185  10.119  12.295  0.1675  0.1186 -0.3186
25120W        W41254  16.458   0.647  11.583  0.1572  0.1376 -0.1005
25121W        W41255   4.240   7.855   5.578  0.2158 -0.1124  0.0751
25122W        W41256   8.806  13.390  10.430  0.3040 -0.0684  0.0815
25123W        W41257  10.145   5.438   1.878 -0.1991  0.3704  0.0500
25124W        W41258   3.439  16.246  10.245  0.0339 -0.5262  0.2492
25125W        W41259  12.901  17.947   2.352 -0.1506  0.0244 -0.2808
25126W        W41260   6.556   1.631  14.832 -0.0703  0.0729 -0.0237
25127W        W41261  11.159   0.406   1.576  0.0183  0.0687 -0.1880
25128W        W41262   3.211   5.654  14.443  0.3241  0.1171  0.0636
25129W        W41263   0.874   3.035   9.427  0.3135 -0.0433 -0.1849
25130W        W41264   4.681  18.332  10.306 -0.1034  0.3113  0.1915
25131W        W41265   8.132  15.030   4.132 -0.1303  0.0892 -0.5215
25132W        W41266  13.130   3.148  13.562  0.0509  0.0207  0.0769
25133W        W41267  11.467  10.369  11.308 -0.2065  0.0367 -0.0945
25134W        W41268   1.693  14.637  10.188 -0.1001 -0.0855 -0.0362
25135W        W41269  14.682   5.042  10.429  0.4659  0.1033  0.3566
25136W        W41270   1.539  18.118  13.830  0.0468  0.1676  0.2813
25137W        W41271  11.035  13.572  11.565 -0.4524  0.0455  0.3525
25138W        W41272   7.450  19.196  14.360 -0.0781  0.3556  0.1384
25139W        W41273   3.479  15.376  14.550  0.2259  0.0670  0.2731
25140W        W41274   1.561  14.937   3.830 -0.1412 -0.1923  0.3677
25141W        W41275  13.916   9.933   3.235  0.1758 -0.0512  0.2564
25142W        W41276   9.258  16.054  11.164 -0.0855 -0.1112 -0.0115
25143W        W41277   7.607   8.199   3.503  0.0681  0.2103  0.0129
25144W        W41278  11.720   3.660  12.187 -0.2039 -0.3161 -0.1524
25145W        W41279   4.276  13.856   1.166  0.0023  0.0790  0.1174
25146W        W41280  14.470  16.263  11.175 -0.0102 -0.1472  0.4886
25147W        W41281   1.564   0.681   2.126  0.1649  0.1195 -0.0843
25148W        W41282  17.801   3.891   4.528  0.0569 -0.1723 -0.0306
25149W        W41283  10.567  11.120   1.572  0.2377  0.0308 -0.0622
25150W        W41284  12.420   4.875  10.189 -0.0321 -0.0693 -0.1653
25151W        W41285   3.417  18.685  11.753 -0.3024  0.0319  0.4405
25152W        W41286  16.308   0.322   0.189  0.0977 -0.0111  0.0817
25153W        W41287  12.367  11.466  10.832  0.0282  0.3771  0.2847
25154W        W41288   7.670   0.286   4.823  0.3539  0.1690 -0.5062
25155W        W41289  15.127   0.805   1.386 -0.0311  0.0285 -0.0880
25156W        W41290  12.603  18.316   1.262  0.2987  0.0578  0.1566
25157W        W41291   2.560  11.085  10.255 -0.1114 -0.2370  0.2257
25158W        W41292  15.384  12.800   1.810 -0.1933 -0.4604 -0.0390
25159W        W41293   7.187   6.144  10.758  0.0064 -0.3066 -0.1171
25160W        W41294   4.154   1.153  12.483  0.1619 -0.0557 -0.1962
25161W        W41295  17.012   9.532  10.386  0.1632  0.1033 -0.2164
25162W        W41296   2.840  17.293  10.687  0.0822  0.0246  0.0486
25163W        W41297  16.756   0.392   4.375 -0.0071  0.3454  0.0190
25164W        W41298  14.521  17.933  14.378 -0.0440 -0.3143  0.0104
25165W        W41299   3.971  17.424   1.801 -0.0201 -0.2411 -0.1420
25166W        W41300   0.391   1.300   2.989 -0.1693 -0.1535 -0.2798
25167W        W41301  15.476   1.723   4.161  0.2323  0.1415 -0.0468
25168W        W41302   7.793   2.243   4.265 -0.3795  0.2911 -0.2740
25169W        W41303   3.386   9.600  11.901  0.0454 -0.0714 -0.0501
25170W        W41304   9.030   0.701   1.042  0.0155 -0.2428  0.1196
25171W        W41305  12.971  10.855  13.391 -0.5433  0.2360 -0.0887
25172W        W41306   8.677   1.487   1.243 -0.1471  0.0975 -0.1205
25173W        W41307   0.876  17.441   3.199  0.2103  0.1019  0.0263
25174W        W41308  12.068   6.593  13.501  0.0033 -0.2849 -0.1882
25175W        W41309  12.922  11.406  13.315  0.3246  0.0681 -0.1671
25176W        W41310   9.812  10.665  14.560 -0.1712  0.2184  0.3812
25177W        W41311  13.629  11.276   1.207 -0.0015 -0.1110 -0.4354
25178W        W41312   1.490   2.444   1.366  0.0440 -0.2979 -0.3263
25179W        W41313  11.035   1.806  13.959 -0.3114 -0.0464  0.2239
25180W        W41314   7.543   7.264   1.989  0.3255  0.1035 -0.1165
25181W        W41315  13.439  16.140   6.206 -0.2450 -0.1693  0.0451
25182W        W41316  12.802   6.191   0.351 -0.3920 -0.1112 -0.1702
25183W        W41317   7.210  13.056  12.107 -0.0324  0.0674  0.3060
25184W        W41318   3.078  17.177   4.912 -0.0420  0.4585 -0.0542
25185W        W41319   7.135   9.650  12.888 -0.1906 -0.0571 -0.6111
25186W        W41320  11.634   5.387   3.809 -0.1584 -0.0118 -0.0694
25187W        W41321   5.875   6.548  13.238  0.2124 -0.0216  0.5321
25188W        W41322  10.110   8.253   2.906  0.0952 -0.1524  0.3362
25189W        W41323   0.327   5.828   0.145 -0.2005 -0.2498 -0.0327
25190W        W41324  16.390  17.852  14.610 -0.0985 -0.0642  0.2426
25191W        W41325  14.078  11.766  13.723  0.2270  0.1260 -0.1935
25192W        W41326  18.549   4.354   3.008  0.1783 -0.3224  0.0745
25193W        W41327   7.471  14.348   1.143 -0.0280 -0.0457 -0.1564
25194W        W41328  12.359   6.921   2.745  0.0212 -0.0799 -0.3712
25195W        W41329  17.184   3.312  12.786  0.0299  0.1220 -0.0911
25196W        W41330   6.768   2.624  10.755  0.0994 -0.1441  0.1077
25197W        W41331  13.396   8.527  13.578 -0.3613  0.0120 -0.0316
25198W        W41332   0.806   1.981  10.619 -0.0353 -0.1475 -0.0564
25199W        W41333   5.060   9.501  12.512 -0.3685  0.2961  0.2467
25200W        W41334   4.231   7.225  12.391 -0.4666  0.3275 -0.2428
25201W        W41335  12.808  12.844  12.205 -0.2805  0.2279  0.2151
25202W        W41336  19.008   9.844   0.443  0.2741  0.7531 -0.0179
25203W        W41337   9.033  13.532  12.845 -0.0809  0.1646  0.2685
25204W        W41338   8.886   2.787   5.065 -0.2482 -0.1476  0.0042
25205W        W41339  11.930  13.384   0.548  0.2746  0.0485  0.0800
25206W        W41340  17.876   5.481   1.037  0.0174 -0.3620  0.0741
25207W        W41341   9.268   1.264  13.523  0.0974 -0.0693 -0.0138
25208W        W41342   9.697   8.838   0.372 -0.1700  0.0789  0.1442
25209W        W41343  18.619   3.650  11.604 -0.1040  0.2050 -0.1524
25210W        W41344   0.898  16.385   2.450  0.0782  0.1963 -0.1995
25211W        W41345  17.770  18.340  13.387  0.4826 -0.2133  0.0444
25212W        W41346   8.748  13.030  11.377 -0.0580  0.0826  0.1591
25213W        W41347  10.206  18.698   3.346  0.3011  0.1384 -0.1419
25214W        W41348   4.561   9.231   0.133  0.1468 -0.2456 -0.1312
25215W        W41349  13.581   5.976   4.781 -0.1506  0.0125 -0.0187
25216W        W41350  13.913  18.392  14.668 -0.0528 -0.0283  0.2353
25217W        W41351  11.309   1.993   4.581  0.0642  0.1678  0.2234
25218W        W41352   8.432  18.846   1.694  0.2722 -0.0160 -0.2826
25219W        W41353  16.942   2.108  11.127  0.0237  0.1555 -0.0681
25220W        W41354  15.797   6.671  10.209 -0.0531 -0.0629 -0.0472
25221W        W41355   2.484  18.061   2.179  0.1779  0.1431 -0.0686
25222W        W41356  12.797   6.923  14.258 -0.0786  0.3705 -0.0746
25223W        W41357   3.977  10.090   3.944 -0.2373 -0.1059  0.2950
25224W        W41358   2.001  14.215   3.698  0.3409  0.2418  0.2064
25225W        W41359   7.602  11.793   0.111 -0.1202  0.3773  0.0813
25226W        W41360   7.648  10.012  13.658  0.4193  0.0638 -0.1790
25227W        W41361  17.179  15.690  12.698  0.1310  0.1316 -0.0748
25228W        W41362   8.436   3.701  13.660 -0.1138 -0.2363  0.2854
25229W        W41363  18.774  16.347   1.532 -0.0117 -0.0098 -0.1542
25230W        W41364  14.120  12.927   0.467  0.2636 -0.1811 -0.1288
25231W        W41365   9.769   0.657  12.954  0.0992 -0.1621  0.2082
25232W        W41366   0.603  10.622  14.031 -0.0887 -0.0151  0.2386
25233W        W41367  12.845   0.567  13.384 -0.2921 -0.2449 -0.2634
25234W        W41368  14.686  12.826   5.327  0.0167 -0.0229  0.0100
25235W        W41369   7.491   4.191  13.320  0.2328  0.0507  0.0462
25236W        W41370   6.761   5.104  12.771  0.1247  0.1724  0.3080
25237W        W41371   0.159  11.398   1.263 -0.2823  0.0358  0.2562
25238W        W41372  17.715   3.859  12.344 -0.0467 -0.0007 -0.0501
25239W        W41373  13.902   7.750  12.451 -0.0544 -0.0885 -0.0190
25240W        W41374   5.648   8.558  10.479  0.3452 -0.0190  0.0079
25241W        W41375   0.819   0.010  10.644 -0.3446  0.0189  0.0287
25242W        W41376   6.531   3.045   5.115  0.1445 -0.1139  0.1286
25243W        W41377   8.762   2.037   1.138 -0.2902  0.1833  0.0375
25244W        W41378   3.481  10.609   0.497 -0.0535  0.3056 -0.0503
25245W        W41379  10.538  16.867   5.589  0.0775 -0.0151 -0.0947
25246W        W41380  17.716   0.267  13.804 -0.0915  0.3321 -0.1774
25247W        W41381  17.266  10.770   2.274 -0.1054 -0.1114  0.0212
25248W        W41382  17.681   0.477   2.763 -0.0691 -0.1047 -0.2943
25249W        W41383  18.115   0.965  13.012 -0.1233 -0.1421  0.0193
25250W        W41384   6.019   8.411  12.360  0.2359  0.1700  0.0147
25251W        W41385   6.636   5.155  13.777 -0.3877 -0.0186 -0.0480
25252W        W41386   7.844   3.529   1.316 -0.0938 -0.3026 -0.1056
25253W        W41387  17.910   6.475  10.636 -0.3084  0.4505 -0.2431
25254W        W41388   0.879   1.037   3.617 -0.2514 -0.3914 -0.0900
25255W        W41389   0.371   4.692  13.145  0.0055 -0.0138 -0.0902
25256W        W41390   1.953   1.696  11.958 -0.1668 -0.0908 -0.3195
25257W        W41391   3.834   2.343  10.130 -0.0679 -0.0003  0.1921
25258W        W41392  14.193   6.059  11.722 -0.1194  0.2391  0.1138
25259W        W41393   0.801  10.750  13.623 -0.0261 -0.1338 -0.0619
25260W        W41394   9.178  14.494   1.807  0.0811  0.2593 -0.0618
25261W        W41395  11.558   9.523  12.502 -0.0717  0.1139 -0.0204
25262W        W41396   6.030  10.970   4.867 -0.3404  0.1468  0.1562
25263W        W41397   0.739   8.760   2.358 -0.0784  0.0515 -0.0099
25264W        W41398  10.757  14.886  11.860  0.2223 -0.2605 -0.3047
25265W        W41399  11.245   1.685   3.364 -0.2704  0.1561 -0.0481
25266W        W41400   9.981   1.104   0.104  0.0208 -0.1920 -0.2460
25267W        W41401  10.076   7.244   0.506 -0.4204 -0.2329 -0.2975
25268W        W41402  14.702  17.348   3.439 -0.0942 -0.3305 -0.0940
25269W        W41403  19.176   9.240  10.763 -0.0052  0.2144  0.0428
25270W        W41404  17.725   0.303   1.063 -0.0854  0.0673 -0.3848
25271W        W41405  17.003  11.044   5.425 -0.2671  0.1132  0.0556
25272W        W41406   8.819   4.033   1.049  0.0509 -0.2023  0.1332
25273W        W41407   6.741  12.150   0.116 -0.2244 -0.0365  0.0546
25274W        W41408  18.506   6.216   5.835 -0.0716 -0.2281  0.0368
25275W        W41409   7.288  10.688   4.293  0.0888  0.2842  0.0580
25276W        W41410  11.092  11.183   3.039 -0.0200 -0.0714 -0.0112
25277W        W41411  18.720   6.041   2.473 -0.0412 -0.0330  0.6124
25278W        W41412   2.748   1.184   4.889  0.1955  0.0826 -0.0852
25279W        W41413  10.399  14.084  11.249 -0.1521 -0.0721  0.0717
25280W        W41414   9.710  11.766  13.099  0.2216 -0.0039  0.1795
25281W        W41415   8.319   4.319  13.752  0.3716 -0.2187 -0.0414
25282W        W41416   7.999  12.335   2.551 -0.0654  0.0271  0.0698
25283W        W41417   0.510   3.320   5.796 -0.0708 -0.1720 -0.1156
25284W        W41418   0.553   7.441   4.995  0.1201  0.0999  0.0791
25285W        W41419  14.172  18.182  12.177  0.4524 -0.0236  0.3955
25286W        W41420  11.775  14.409  10.509  0.0263  0.1649  0.0175
25287W        W41421  15.376   8.320   3.126  0.0660 -0.0238 -0.1406
25288W        W41422  11.307  16.610   1.096  0.0993  0.2937  0.3537
25289W        W41423  17.455   6.241   0.476  0.2163  0.1121  0.2138
25290W        W41424  12.317  14.425  10.458 -0.1678  0.0381  0.1909
25291W        W41425  10.806  12.064  10.415 -0.4160  0.1873 -0.3627
25292W        W41426   2.922  11.091  13.838 -0.0091  0.0842 -0.2185
25293W        W41427   6.282  18.194   4.554 -0.1137  0.0923  0.2265
25294W        W41428  13.553  14.170  13.036  0.1980 -0.2842 -0.0434
25295W        W41429   9.131  12.326  11.326 -0.3519 -0.2009 -0.0894
25296W        W41430   9.983   3.209  14.844 -0.0003 -0.0286 -0.0927
25297W        W41431  12.016  14.680   1.006  0.3060  0.1269 -0.0237
25298W        W41432   7.098   1.986  13.733 -0.5007 -0.0058 -0.0293
25299W        W41433   5.259  18.638  10.214  0.0457  0.3476 -0.0137
25300W        W41434   3.044   0.238   3.238 -0.2926 -0.1190 -0.2556
25301W        W41435  15.077  14.254   5.398 -0.1261  0.2760 -0.4267
25302W        W41436   4.582   1.112  11.127  0.2392  0.2116 -0.1121
25303W        W41437   2.093  14.797  13.315 -0.0995  0.0601 -0.1341
25304W        W41438   9.616   1.890  14.714 -0.0768 -0.1200  0.0995
25305W        W41439   0.629   4.103   5.293  0.1393 -0.1512  0.0548
25306W        W41440  17.813   7.756  10.588 -0.0027  0.0883 -0.1819
25307W        W41441   6.136   8.902  12.254 -0.1000 -0.1062  0.0092
25308W        W41442   3.248  12.323  13.789  0.2005 -0.3134  0.1034
25309W        W41443  12.670  15.870  11.396  0.0730 -0.3204 -0.0490
25310W        W41444  10.763  12.246   0.446 -0.3961 -0.2038 -0.0355
25311W        W41445  18.185   6.369  11.171 -0.1185  0.0009 -0.1788
25312W        W41446   8.748   2.336   0.366 -0.0718  0.3808  0.0676
25313W        W41447   8.038  12.401  12.529  0.1395 -0.2142  0.0986
25314W        W41448   3.831   0.532   2.399  0.1426 -0.1406  0.1353
25315W        W41449  12.303   3.828   1.381 -0.1034  0.1990  0.0054
25316W        W41450   0.017  12.122  14.875  0.3504  0.0100 -0.0870
25317W        W41451  16.139  10.347   0.194 -0.0904 -0.1410  0.2022
25318W        W41452  11.806  15.081   3.123  0.3174 -0.1298  0.0712
25319W        W41453   9.291  12.723   4.805 -0.0572  0.1573 -0.0181
25320W        W41454  11.294   5.637  14.748  0.1630 -0.1169  0.1221
25321W        W41455  13.469  18.098   1.457  0.0317  0.1837 -0.1261
25322W        W41456   1.596  18.651   4.248  0.1697  0.1231  0.0744
25323W        W41457   9.719  15.233  11.027  0.2592 -0.3590 -0.2853
25324W        W41458   5.487  14.348   4.914 -0.0867  0.0585  0.2651
25325W        W41459   0.052  12.208   0.801 -0.0090  0.0097  0.2925
25326W        W41460   5.701   0.724   0.139  0.4208  0.0308 -0.0838
25327W        W41461  13.608  15.652   0.662 -0.1982  0.0764  0.1579
25328W        W41462   2.085   8.896   2.804  0.0919  0.0178  0.0405
25329W        W41463   7.228  11.214   1.610  0.0941  0.1910 -0.3092
25330W        W41464  12.627   3.871   4.051  0.0435  0.1182 -0.2722
25331W        W41465   5.221  14.018   0.962  0.0801  0.1395 -0.4326
25332W        W41466   9.635   4.877  13.384  0.3403 -0.0850  0.0264
25333W        W41467  15.296   5.468  10.756  0.2177 -0.4038 -0.0760
25334W        W41468   1.146  13.729  13.030  0.2191  0.3774 -0.3670
25335W        W41469   3.003   6.684   9.928 -0.0608  0.0298  0.2046
25336W        W41470  10.683   1.100   3.661  0.1240  0.0947 -0.0375
25337W        W41471   5.539  16.262   3.728  0.3494  0.0512  0.2604
25338W        W41472   9.825   1.996   9.485  0.2386 -0.0134 -0.0929
25339W        W41473   9.676  13.626   3.603  0.0735  0.1164 -0.0474
25340W        W41474   4.805   6.217  10.896  0.1349  0.1560  0.1531
25341W        W41475   0.965  11.311   0.178  0.0101 -0.3486 -0.1169
25342W        W41476   8.855  15.660  11.075 -0.2751  0.2541  0.2506
25343W        W41477   5.271  15.047   1.251  0.1841  0.0097 -0.0267
25344W        W41478   3.910   5.622  10.174 -0.3002  0.3006 -0.0149
25345W        W41479   6.694  13.213  13.197 -0.0976 -0.0986 -0.2618
25346W        W41480   2.715   6.266  13.938  0.0051 -0.1873 -0.0390
25347W        W41481   0.876  15.182  12.675 -0.1850  0.2271  0.0401
25348W        W41482  12.530   3.366   4.351 -0.0902  0.0528  0.0062
25349W        W41483   8.171   9.977   2.625 -0.1850 -0.0900  0.1945
25350W        W41484   7.855   9.518   4.211 -0.1005  0.1369  0.1684
25351W        W41485  17.125   7.541   4.747 -0.3725 -0.0405  0.0053
25352W        W41486   6.627   1.640   1.648 -0.0629 -0.1581 -0.0053
25353W        W41487  19.126   1.757   1.807 -0.1671  0.0758  0.0755
25354W        W41488   6.056   6.542  11.218  0.0077 -0.0955  0.0033
25355W        W41489   3.273  12.620  12.926  0.1450  0.1833  0.0565
25356W        W41490   9.619  13.580  14.273 -0.1690 -0.1657  0.2223
25357W        W41491   2.362  18.830  12.937  0.0182  0.3129 -0.0974
25358W        W41492  12.564   4.233   4.453 -0.1935 -0.1874 -0.1386
25359W        W41493   4.023   9.675  10.655 -0.2212 -0.3601 -0.0004
25360W        W41494   9.679   9.069   1.896  0.2364  0.0693  0.0129
25361W        W41495  16.120   7.669  12.647 -0.4396 -0.1103  0.2567
25362W        W41496  18.269   4.187   2.567  0.1989  0.1531  0.1362
25363W        W41497  11.082   2.973  10.511  0.1154 -0.0785 -0.4792
25364W        W41498  13.343   0.539  14.567 -0.1836  0.5442 -0.1358
25365W        W41499   3.699  10.181  10.422  0.0094 -0.2765  0.0472
25366W        W41500   5.614   5.688  10.163 -0.1663 -0.1072  0.0986
25367W        W41501   0.286  17.860   4.202  0.3303  0.3525  0.0008
25368W        W41502  15.769  10.512   0.501  0.0679 -0.3710 -0.0180
25369W        W41503  14.843   8.925   0.373 -0.2774 -0.2163  0.2214
25370W        W41504  17.926   6.924  13.048  0.2034  0.1576 -0.0731
25371W        W41505   1.104  10.159   5.240  0.4269  0.0334 -0.0576
25372W        W41506  12.773  13.867  10.843 -0.0379  0.1012 -0.0761
25373W        W41507  12.384   4.869  10.714 -0.0553 -0.0849  0.2005
25374W        W41508   8.044   8.889   0.358 -0.1195 -0.1486 -0.0166
25375W        W41509   1.056   2.748  12.990  0.1487  0.1275  0.3601
25376W        W41510   0.336  14.879  14.088 -0.0527 -0.0956  0.2470
25377W        W41511  18.587  15.242   4.507  0.3185  0.3382  0.1827
25378W        W41512  18.011   5.166  11.503  0.0989 -0.0509 -0.1292
25379W        W41513   2.827  12.929   2.199 -0.2130  0.0111 -0.0629
25380W        W41514  11.401   7.165  13.897  0.1266  0.0058 -0.0088
25381W        W41515   9.974  18.625   1.946  0.0490 -0.2877 -0.1956
25382W        W41516  17.843  14.833   5.535 -0.4748  0.0761  0.1032
25383W        W41517  11.271   4.244   2.423  0.1244 -0.3548  0.2638
25384W        W41518  18.682  13.830  13.407  0.1530  0.0700 -0.4306
25385W        W41519   5.129  17.290  13.472  0.0532 -0.5309  0.1942
25386W        W41520   9.411   0.556   1.742  0.0439  0.0051  0.1631
25387W        W41521  11.244   1.209  14.494  0.1909  0.2648 -0.0738
25388W        W41522   8.872   6.372   2.073  0.5117 -0.1283  0.0219
25389W        W41523  15.265  16.988  11.005  0.1549  0.0704 -0.0582
25390W        W41524   1.695  17.409   2.851  0.0045 -0.0479  0.0468
25391W        W41525   3.159  10.385  10.384 -0.0498 -0.2539 -0.0088
25392W        W41526  12.607   8.379   3.887 -0.0015  0.1364  0.0528
25393W        W41527   8.371   9.292   3.880 -0.2150 -0.2914 -0.2741
25394W        W41528   5.623   3.152  13.832 -0.0984  0.0432 -0.0119
25395W        W41529   6.345  16.899   0.623 -0.3520  0.0332  0.1137
25396W        W41530  11.063   5.324   2.225  0.2715  0.1203 -0.0415
25397W        W41531  10.335   5.881   4.045  0.1747 -0.0058  0.1449
25398W        W41532   6.509   4.664  12.545  0.0301  0.1597 -0.2642
25399W        W41533  12.160   2.847   0.078  0.1829 -0.2770 -0.0500
25400W        W41534   1.527  18.557  10.882 -0.0852  0.0317  0.2492
25401W        W41535   0.591  12.235   4.514 -0.1807 -0.1428  0.0588
25402W        W41536   8.329   4.548   9.879  0.0153  0.1051  0.1091
25403W        W41537  15.146   7.636   0.758  0.0507  0.5283  0.0802
25404W        W41538   6.966   1.425  12.372 -0.3785  0.1736  0.4348
25405W        W41539   7.397   2.741  13.311 -0.0713 -0.1097  0.2098
25406W        W41540   0.209  15.297  14.380 -0.0380 -0.2460 -0.1088
25407W        W41541   3.603  10.942   4.123  0.1055 -0.1268  0.1469
25408W        W41542   9.179  16.519   4.757  0.1667 -0.0217 -0.0255
25409W        W41543  13.107   9.829   1.851 -0.0432 -0.1157 -0.0799
25410W        W41544   1.782   3.206  14.886 -0.3581  0.1129  0.1427
25411W        W41545   8.800   2.079  14.422  0.0185  0.0726  0.0723
25412W        W41546   9.065  17.448   3.010  0.1910  0.0809  0.0916
25413W        W41547   2.325  18.481  11.147  0.1057 -0.1521  0.1773
25414W        W41548   9.771  10.469  11.656  0.1008  0.1251 -0.0459
25415W        W41549   7.486   7.743   0.119  0.0983 -0.0923  0.3603
25416W        W41550   9.325  13.161  10.741 -0.2123  0.4954  0.2470
25417W        W41551  15.951  18.682   0.422  0.1434  0.0098  0.0833
25418W        W41552  13.280   9.637  10.822  0.0261  0.3959 -0.0098
25419W        W41553  18.483  11.008  12.794  0.3025  0.0982  0.1652
25420W        W41554  17.980   2.565   3.575  0.0271  0.0568  0.0436
25421W        W41555  10.861  15.152   4.120  0.2615 -0.2122  0.0690
25422W        W41556   8.578   1.274   2.654  0.0858  0.0916  0.1274
25423W        W41557   9.925  16.293  10.089  0.0226 -0.0904  0.1297
25424W        W41558   2.210  13.765   3.766 -0.1184  0.3936 -0.2652
25425W        W41559   3.983  12.834   4.406 -0.0024  0.0332 -0.2444
25426W        W41560   7.202   0.162   4.763  0.1660  0.0111 -0.4348
25427W        W41561   4.636   3.186  14.968  0.0660  0.0691 -0.0499
25428W        W41562  10.128  18.361  11.739  0.2873 -0.2904  0.1832
25429W        W41563  14.553   9.138   4.128 -0.1846 -0.2185 -0.1083
25430W        W41564   8.534   0.801   0.105  0.1260  0.1262  0.0356
25431W        W41565  14.690   6.664   4.284  0.3347  0.0571  0.3014
25432W        W41566  15.347  12.286   1.955  0.2222 -0.0895 -0.0987
25433W        W41567   1.334   7.203   2.010  0.0517 -0.0094  0.0286
25434W        W41568  11.961   4.675   0.912  0.0471 -0.1391  0.0460
25435W        W41569   2.427  16.520  12.494  0.1699  0.2807  0.0985
25436W        W41570   4.129   6.596  14.651  0.0686 -0.2081 -0.0590
25437W        W41571   2.458   7.368  12.091 -0.0660  0.0548 -0.1435
25438W        W41572  10.226  19.051   2.530  0.0173 -0.0032 -0.0831
25439W        W41573  14.119   2.123  14.492 -0.0141 -0.2403  0.0913
25440W        W41574   2.058   5.752   4.272 -0.2359 -0.0524  0.0993
25441W        W41575  17.093  14.390  13.759 -0.0249 -0.1919 -0.0397
25442W        W41576  14.835   9.455  14.442  0.1873  0.0512 -0.2013
25443W        W41577  16.957  12.830  12.729  0.0842  0.0567 -0.1722
25444W        W41578   6.702  13.673   0.110  0.0122  0.1452  0.0126
25445W        W41579   0.222   1.761   4.367 -0.2618  0.0148 -0.1049
25446W        W41580   7.798   3.121   4.471  0.2330 -0.1016 -0.2426
25447W        W41581   6.057  15.338  13.061 -0.3061 -0.1040 -0.1381
25448W        W41582  17.286  18.715  11.309 -0.0788  0.4180  0.0915
25449W        W41583  11.779  15.393  12.401  0.1952  0.1557 -0.0960
25450W        W41584   5.245   0.875  11.826 -0.2187 -0.1594 -0.2110
25451W        W41585   6.724   6.115   3.871  0.1277 -0.1196  0.1026
25452W        W41586   0.842  10.060  10.461 -0.0942 -0.2448  0.0972
25453W        W41587   8.394   2.078   0.191 -0.0269  0.1232  0.0219
25454W        W41588  16.668   7.085   4.018 -0.3861  0.1286 -0.2168
25455W        W41589   4.639  13.112   2.414  0.0827 -0.4109 -0.2061
25456W        W41590  10.209   1.897  14.792 -0.0684  0.1727  0.1232
25457W        W41591  11.297  12.853   4.462  0.1057 -0.1171  0.0550
25458W        W41592  17.475   5.637   3.060  0.0826  0.1214 -0.1950
25459W        W41593   0.569  15.353   5.018  0.0913 -0.2488 -0.2160
25460W        W41594  18.958   8.027  11.366 -0.0071  0.1287  0.0984
25461W        W41595  10.232  15.201   4.357 -0.1542 -0.0738 -0.1852
25462W        W41596   1.747  12.940  13.076  0.0295  0.1405 -0.0820
25463W        W41597   1.471   5.786   2.231  0.2125  0.1486 -0.1659
25464W        W41598   3.806  19.044  13.248  0.1476 -0.1045 -0.0109
25465W        W41599   5.825  14.866  14.673  0.2121 -0.1763  0.1035
25466W        W41600   5.141   8.208  11.951 -0.2328  0.1605 -0.2844
25467W        W41601   6.064  14.929  12.809  0.1240 -0.0986  0.4531
25468W        W41602   4.066   0.203   0.690 -0.1753 -0.2512 -0.0210
25469W        W41603   0.145   6.069  13.141  0.0898  0.2433 -0.1395
25470W        W41604   3.564   1.495   4.966  0.2289 -0.0926  0.0633
25471W        W41605   5.313  16.317  13.447 -0.0773  0.0723 -0.1154
25472W        W41606   1.052   0.090   0.042 -0.3071  0.0079  0.0785
25473W        W41607   4.559   1.140   2.256 -0.1572 -0.0411 -0.0482
25474W        W41608  13.194  15.751   0.925 -0.0067  0.3518  0.1704
25475W        W41609  16.589   8.853   3.592 -0.2246 -0.1865 -0.1389
25476W        W41610  18.249  15.609  13.551 -0.2860 -0.0212 -0.1173
25477W        W41611   5.619   8.441   2.476  0.0811 -0.0303  0.0708
25478W        W41612  16.058   5.401  14.642  0.0900  0.2114 -0.0906
25479W        W41613  14.917   6.663   0.855  0.0426  0.3405  0.0543
25480W        W41614   7.398   9.241  13.175  0.0540  0.3105 -0.2865
25481W        W41615  13.013  15.417   1.867  0.0550 -0.1883  0.0715
25482W        W41616   8.405   5.626   1.283  0.0964  0.0066 -0.4337
25483W        W41617   7.088   8.781  12.127 -0.2712 -0.0103  0.0491
25484W        W41618   2.338  14.302  14.250  0.0453 -0.0863  0.0430
25485W        W41619   5.526   2.851   5.395 -0.1417  0.0826 -0.1010
25486W        W41620  11.036   0.290   4.645 -0.1342 -0.0306 -0.0205
25487W        W41621   5.389  17.744  13.234  0.0520 -0.0880  0.0724
25488W        W41622   4.022  10.765  13.841 -0.3279 -0.2614  0.1394
25489W        W41623  11.383  15.185   5.083  0.1397 -0.1693  0.1425
25490W        W41624   0.566   5.052  13.554 -0.2308  0.3532 -0.2573
25491W        W41625  14.342  14.959  13.520 -0.1020  0.2541  0.0074
25492W        W41626   5.549  16.402   1.245  0.4080 -0.1330 -0.3166
25493W        W41627  12.345   9.988  14.618 -0.1286  0.1769 -0.3275
25494W        W41628  14.499  12.536  10.921  0.2682  0.5374 -0.0038
25495W        W41629   8.638  12.841   4.092  0.0336 -0.1778 -0.2872
25496W        W41630   7.576   6.485  12.988 -0.0404  0.0985 -0.0418
25497W        W41631  10.874  12.547  10.713  0.1312 -0.0798  0.1674
25498W        W41632   0.103  12.001   3.001 -0.3622 -0.0654 -0.0716
25499W        W41633   6.472  14.704  12.594 -0.0046 -0.1172  0.3180
25500W        W41634  16.976  17.580   0.147 -0.2424 -0.0582 -0.1622
25501W        W41635  12.949   0.760   0.911 -0.0365  0.3083 -0.1070
25502W        W41636  18.876  17.449  13.371  0.1658  0.0547  0.3038
25503W        W41637  19.067  17.088   2.013 -0.0994  0.2614  0.1384
25504W        W41638  12.787  12.674  12.770 -0.1522 -0.1133  0.0967
25505W        W41639   3.808   2.858   2.595 -0.1296  0.2832  0.1241
25506W        W41640   7.063   2.818   2.498  0.1336  0.1353 -0.1508
25507W        W41641   5.475  11.812   5.576  0.1300  0.0993  0.0660
25508W        W41642   5.965   3.493  10.458 -0.2084  0.0251 -0.2175
25509W        W41643  15.693   1.695   3.713  0.1021 -0.1483 -0.1093
25510W        W41644   7.854  14.694   3.140 -0.0064  0.2342 -0.1086
25511W        W41645  18.443   4.900   1.537 -0.1875  0.2339  0.2641
25512W        W41646   6.503   9.821  10.429 -0.0905  0.0285 -0.1370
25513W        W41647   7.489   9.424   3.547  0.0624  0.1554  0.1907
25514W        W41648  18.303   4.269   0.749  0.0019  0.0199  0.2608
25515W        W41649  16.918  18.352   4.079 -0.1297 -0.1487  0.1747
25516W        W41650   9.342   3.072   2.008 -0.1131  0.0860 -0.1764
25517W        W41651  11.099  10.848   5.198  0.0984 -0.1187 -0.2148
25518W        W41652   3.511   3.128   1.260  0.0376 -0.4213 -0.2078
25519W        W41653  19.138  11.150   4.427 -0.4095 -0.0726 -0.2062
25520W        W41654   2.645   4.553  10.972  0.1947  0.0127 -0.0674
25521W        W41655   1.531  11.702   3.751  0.1128 -0.0784 -0.1434
25522W        W41656  15.499   9.742  11.547 -0.2902 -0.2204  0.1527
25523W        W41657  11.583  11.609   5.747  0.2400  0.0668 -0.0794
25524W        W41658   8.370  11.257   4.235  0.5041 -0.0826 -0.1043
25525W        W41659   1.111  15.432   2.060 -0.0105  0.1793  0.1917
25526W        W41660  19.154   6.983  13.721 -0.0012 -0.0553  0.1389
25527W        W41661  14.530  10.983   0.474 -0.1730  0.0066  0.0958
25528W        W41662  18.184  18.633   4.564  0.3338  0.0311  0.2557
25529W        W41663  17.406  12.036  13.143  0.4204  0.2079  0.0121
25530W        W41664   0.095   0.523   4.030 -0.1437  0.1709  0.0703
25531W        W41665  14.382   5.615   4.130 -0.2038 -0.1213 -0.1950
25532W        W41666  13.056   9.378  13.625 -0.2711 -0.1090 -0.1117
25533W        W41667   7.063   7.858  14.861 -0.0929 -0.3768 -0.1354
25534W        W41668  12.164   2.745  11.056 -0.3450 -0.0971 -0.2287
25535W        W41669  15.787   6.611  14.054  0.2582 -0.0100 -0.0102
25536W        W41670  14.777  13.630  14.128  0.2262  0.2249 -0.1403
25537W        W41671   2.698  16.499  14.533 -0.0489  0.0737 -0.0334
25538W        W41672   7.088   3.722   4.771  0.1550  0.4171  0.1379
25539W        W41673   0.429   1.163   0.346  0.1320 -0.0961  0.4139
25540W        W41674  11.508   6.099  11.441  0.2284 -0.1946  0.0431
25541W        W41675  10.196  13.868   3.453 -0.1898 -0.1466  0.3408
25542W        W41676   0.798   7.893  11.251 -0.0345  0.0408 -0.1588
25543W        W41677  16.485  15.222  14.027  0.0334 -0.1362  0.3509
25544W        W41678   5.135  10.218   3.578  0.0912 -0.1403 -0.3599
25545W        W41679  15.816   6.836   3.042  0.3280 -0.2286 -0.0325
25546W        W41680  13.828  16.059   3.846 -0.1356  0.0851  0.1399
25547W        W41681  15.159   5.046  10.594 -0.0452 -0.2443 -0.4122
25548W        W41682  17.502   1.480  14.760  0.0052  0.0899  0.0508
25549W        W41683   3.821   2.773  12.239  0.3094 -0.0766 -0.0079
25550W        W41684  10.336   8.426   1.526 -0.1188  0.1900  0.3091
25551W        W41685  12.870   4.252   2.854 -0.3596  0.0430 -0.0751
25552W        W41686   9.622  19.053  14.998  0.0443 -0.1656  0.2119
25553W        W41687   4.554  12.180  11.457 -0.0667  0.0174  0.0456
25554W        W41688   3.218   9.570  11.016  0.0591  0.3891 -0.1150
25555W        W41689   8.916   0.400   2.117  0.1067 -0.1136  0.1152
25556W        W41690  14.086   0.819  12.822 -0.1336 -0.2696 -0.1070
25557W        W41691  14.170  10.787  13.944 -0.1725  0.0190  0.0332
25558W        W41692  16.225   0.560  13.162 -0.2720 -0.0084 -0.2329
25559W        W41693  13.580   7.086   0.065 -0.0297  0.1201 -0.1120
25560W        W41694  12.920   6.217   4.154  0.2161 -0.0761  0.1540
25561W        W41695   7.416   4.970  10.742  0.1485  0.0285 -0.1057
25562W        W41696   9.380   4.925  13.810 -0.0675 -0.1940 -0.1124
25563W        W41697  14.152   5.336   1.179  0.0970 -0.1133  0.3796
25564W        W41698  12.628  12.950  10.721 -0.2482 -0.1160  0.0188
25565W        W41699  16.037  18.083  14.985  0.0252  0.2050 -0.0112
25566W        W41700  17.831   3.786  11.856  0.0773  0.1285  0.0127
25567W        W41701  15.175  17.999  11.030 -0.0143  0.1773  0.3317
25568W        W41702  12.606  14.807   2.434 -0.0347  0.0594 -0.0045
25569W        W41703   8.430   3.052   5.082 -0.1138  0.1017 -0.3294
25570W        W41704  18.373   7.642   4.612  0.0454 -0.0675 -0.0014
25571W        W41705  15.948   8.788  10.728 -0.1033 -0.2996 -0.3250
25572W        W41706  11.063   9.408  10.671 -0.3804  0.1531  0.3298
25573W        W41707   3.804   4.546  10.883 -0.1662 -0.3318  0.1311
25574W        W41708  15.178   2.157  10.614  0.1295  0.0680  0.0548
25575W        W41709  17.841  12.845  12.939 -0.3306  0.1658 -0.1408
25576W        W41710   0.356   3.543   3.085  0.0921  0.1841  0.2287
25577W        W41711   1.577   1.937   1.286 -0.1045  0.0437  0.0358
25578W        W41712   9.356   5.555   1.770 -0.3142  0.2566  0.0457
25579W        W41713   5.120  15.733   0.741 -0.3225 -0.0874  0.0722
25580W        W41714   5.458  10.547   3.296  0.1243 -0.0613 -0.0070
25581W        W41715  17.770  11.430  14.120  0.2586  0.6655 -0.4493
25582W        W41716  12.593  10.932  14.077 -0.0895  0.1604 -0.0021
25583W        W41717   6.886   8.105  13.604  0.0757 -0.1086 -0.1250
25584W        W41718  17.487  13.425   3.699  0.3110  0.2289  0.0952
25585W        W41719   1.737  14.799  12.345  0.1103 -0.3483 -0.2733
25586W        W41720  17.470   9.828   2.008 -0.0500  0.0580  0.4128
25587W        W41721   9.396   8.295   1.757  0.1647  0.3730 -0.5098
25588W        W41722   1.478   0.299   3.773  0.0283  0.3107 -0.1252
25589W        W41723   2.169   1.890  14.959 -0.2413  0.2723  0.0126
25590W        W41724   1.508   9.165  10.892  0.3613 -0.1080  0.0030
25591W        W41725  11.449  10.616   4.743 -0.1559  0.0109 -0.1790
25592W        W41726  13.011  19.172   1.315  0.0032  0.2061  0.0533
25593W        W41727  14.683  13.169   2.089  0.1407 -0.0700  0.2279
25594W        W41728  13.079   1.026  10.762 -0.0577  0.0225 -0.0351
25595W        W41729  18.921  11.988  13.866  0.2548  0.2082 -0.0458
25596W        W41730  10.240   8.173   0.646 -0.3237 -0.3885 -0.1397
25597W        W41731   2.258   9.379   2.800  0.1146 -0.1821 -0.2682
25598W        W41732   8.297   4.799  11.149  0.1190 -0.2961  0.2994
25599W        W41733   7.323   4.839  14.333  0.2104  0.1692  0.1109
25600W        W41734   4.323   8.901   3.656  0.0852  0.2277 -0.0588
25601W        W41735  16.046   8.441   3.951 -0.0588 -0.1823 -0.2706
25602W        W41736  17.144  18.489   1.237  0.2300  0.0329  0.1400
25603W        W41737  16.603  10.309  11.358  0.0413  0.1447  0.4011
25604W        W41738   2.240   3.487   3.361 -0.0873  0.0147 -0.0307
25605W        W41739  10.677   1.910  11.224  0.1528 -0.0276  0.1306
25606W        W41740   7.302  16.826  12.707 -0.1363 -0.1650 -0.1930
25607W        W41741  15.420  12.676   4.092 -0.0263  0.4294 -0.0020
25608W        W41742   7.733  15.469   2.529 -0.0946  0.1611 -0.4629
25609W        W41743   1.818   0.899  14.383 -0.0884  0.0544  0.1488
25610W        W41744   6.562  12.454   3.514  0.0916  0.1272 -0.0897
25611W        W41745  18.651   1.489   4.344  0.1444 -0.1016 -0.3544
25612W        W41746  11.110   5.238   4.931 -0.0126 -0.2671 -0.1428
25613W        W41747  11.844   9.189  13.570 -0.0417 -0.3285  0.4275
25614W        W41748   3.507   3.498   4.109 -0.0391  0.3894 -0.0140
25615W        W41749  11.423   6.488   4.300 -0.3304  0.2576 -0.1320
25616W        W41750  15.204  15.194   1.212  0.0101 -0.0575 -0.1597
25617W        W41751   4.648   1.052   2.765 -0.0752  0.1852 -0.3269
25618W        W41752   2.778  13.646   2.171 -0.0868  0.0668  0.3454
25619W        W41753   9.443   4.394   3.694 -0.0801 -0.0985 -0.3000
25620W        W41754  12.072  15.458   3.256 -0.4010  0.0489 -0.1654
25621W        W41755  16.423  15.842   4.387  0.0838  0.1213 -0.1229
25622W        W41756  17.370   6.804  14.614 -0.5015  0.0025  0.0615
25623W        W41757   9.241  16.740  14.220  0.0201  0.1886  0.1559
25624W        W41758   8.230  16.518  12.752 -0.0247 -0.1313 -0.1266
25625W        W41759   4.820  13.310   3.657  0.3136 -0.0298  0.3650
25626W        W41760  10.233   2.688   3.032  0.3040  0.1336  0.2595
25627W        W41761  12.968   2.700   4.615 -0.1296  0.1006 -0.5044
25628W        W41762  11.259   8.414  14.051  0.0423  0.0801 -0.0790
25629W        W41763   4.983  16.996   1.181 -0.0477 -0.2235 -0.4248
25630W        W41764   7.619  18.157   0.002  0.2476  0.0526 -0.0411
25631W        W41765  16.449  16.261   1.659 -0.4081 -0.1596  0.0907
25632W        W41766   3.020   6.747   0.616 -0.1683 -0.2491  0.0268
25633W        W41767  14.335  12.036  13.277  0.0086 -0.2619 -0.0955
25634W        W41768   4.771   9.786   3.412 -0.0168  0.0721  0.3335
25635W        W41769   6.814   2.902  14.492  0.0042  0.0943 -0.1233
25636W        W41770   0.850  10.727  11.048  0.1096 -0.1650  0.0667
25637W        W41771  15.368   6.001   1.977  0.1657  0.0371  0.3499
25638W        W41772  14.311   6.111   0.069 -0.1883 -0.1808  0.0883
25639W        W41773  12.202   7.481   0.147  0.3979 -0.0886  0.0394
25640W        W41774   8.649  10.466   3.954  0.0824  0.1756  0.1495
25641W        W41775   3.669  10.168  14.802 -0.1824 -0.2198  0.2087
25642W        W41776   4.463   3.109  11.055 -0.0580 -0.2483  0.0062
25643W        W41777  13.893   4.736   1.954  0.1415  0.0090  0.0630
25644W        W41778   9.486   2.599   1.854 -0.0678  0.2829 -0.0708
25645W        W41779   6.610  14.766  13.565 -0.4069 -0.1074  0.2029
25646W        W41780   3.368  13.897  11.524  0.0449  0.2150 -0.0551
25647W        W41781   0.112   2.620   3.388  0.2610 -0.0217  0.0566
25648W        W41782  12.090  10.862   3.653  0.4799  0.1652  0.1006
25649W        W41783   7.762   9.241   0.102 -0.1300 -0.2818  0.0845
25650W        W41784   0.082  13.587  12.222  0.0599  0.0925  0.1101
25651W        W41785   9.954  12.584  12.171  0.2964  0.2168  0.0281
25652W        W41786  16.703  15.244   3.314  0.1891  0.2502 -0.0776
25653W        W41787   5.411  13.241   2.567 -0.0332 -0.1192 -0.1025
25654W        W41788   0.928   8.661   0.801 -0.0488  0.2052  0.0768
25655W        W41789  17.289  10.333   0.046 -0.0325  0.1437  0.1639
25656W        W41790  17.737  18.269   5.080 -0.2622 -0.0788 -0.3393
25657W        W41791  11.867   2.291  13.618  0.0225  0.2913  0.2587
25658W        W41792  15.308  10.242  11.550  0.2285 -0.0478 -0.0312
25659W        W41793   1.862   1.559  11.191  0.1733 -0.2410 -0.3965
25660W        W41794   3.225   6.743   4.944  0.0453  0.2323 -0.1247
25661W        W41795   3.891   3.975   0.027 -0.0278  0.1483 -0.0566
25662W        W41796   7.317   6.094   3.166 -0.5334 -0.0954 -0.0205
25663W        W41797   1.587   1.918   5.422 -0.1962 -0.2563 -0.5852
25664W        W41798   4.728  10.930  10.701  0.0028 -0.3651  0.0506
25665W        W41799   9.453   2.046   3.853 -0.0279  0.3950  0.2079
25666W        W41800  10.091  18.610   5.125  0.5409  0.2702 -0.0380
25667W        W41801  18.629  19.197   0.296 -0.0047  0.0202 -0.2345
25668W        W41802   1.542  16.402  11.500  0.0915  0.0119 -0.0214
25669W        W41803  10.477  12.027   4.786 -0.1498 -0.1508 -0.5400
25670W        W41804   5.443   0.274   2.156  0.1016 -0.0834  0.3542
25671W        W41805  11.066   2.054   0.352 -0.1373 -0.0939 -0.2871
25672W        W41806  15.801   2.174   3.970  0.0773 -0.0048 -0.0228
25673W        W41807  10.221  13.021  12.319  0.2756  0.1330 -0.1528
25674W        W41808  16.736   0.429  12.580  0.2190  0.4418 -0.2574
25675W        W41809  11.864  13.084  12.222  0.2185 -0.3380 -0.1063
25676W        W41810  11.359   6.760  14.851 -0.0716  0.2090  0.0109
25677W        W41811   6.585   5.410  10.596  0.0689 -0.0628 -0.5641
25678W        W41812  16.009   1.090   3.904  0.0770  0.0771 -0.1309
25679W        W41813  14.326  16.243  11.730  0.0159 -0.1230  0.3994
25680W        W41814   6.908  11.635  14.563  0.2342 -0.0683  0.2696
25681W        W41815  16.932  19.198  14.581 -0.0028  0.3480 -0.0597
25682W        W41816   6.585  10.698   2.911 -0.0549  0.2092 -0.2131
25683W        W41817  17.030   7.179   3.698  0.1399  0.2405 -0.0389
25684W        W41818  10.771   6.715   1.955 -0.2321  0.1583  0.2355
25685W        W41819  17.778  10.698   2.167 -0.0511 -0.0687  0.0224
25686W        W41820   8.604  13.255  14.947  0.0188  0.0413  0.1545
25687W        W41821  11.444  11.150  11.799  0.0472  0.3483 -0.0093
25688W        W41822  10.060  15.603  10.803 -0.0608 -0.0307 -0.2131
25689W        W41823  10.803   3.657   1.897  0.0775 -0.1371 -0.1363
25690W        W41824   4.880   8.050  13.167  0.1983 -0.0368 -0.0091
25691W        W41825  13.335  15.305   2.242  0.1165 -0.1140 -0.1450
25692W        W41826   4.197   5.999  12.253 -0.1137  0.2992 -0.5002
25693W        W41827  19.008   4.499   2.774  0.2098  0.0022  0.0598
25694W        W41828   8.176   3.522   3.850  0.1586 -0.1065 -0.0118
25695W        W41829  11.810  15.943  14.088  0.3807 -0.0342 -0.0029
25696W        W41830  13.201   6.275   5.152 -0.0721 -0.1564 -0.1320
25697W        W41831   8.797   2.410   4.264 -0.1071 -0.2255 -0.0490
25698W        W41832  16.845  15.097   1.305 -0.0204 -0.1518  0.1048
25699W        W41833   6.315  15.701   3.605  0.0048 -0.0525  0.3614
25700W        W41834  14.820  10.723  10.076  0.2246  0.0743 -0.5588
25701W        W41835   4.992  11.369   3.796 -0.0334 -0.2930  0.0386
25702W        W41836  11.553   8.343   3.022  0.1884  0.0085  0.0381
25703W        W41837  11.157  16.427   1.606 -0.0004  0.1498  0.0574
25704W        W41838  17.443  13.936  13.370  0.0710 -0.2078 -0.1256
25705W        W41839  13.988  13.247  12.562 -0.1862  0.2318  0.0828
25706W        W41840  17.112   4.776  11.143 -0.1762 -0.1067  0.1298
25707W        W41841   8.167   3.853   1.126  0.0720 -0.0324 -0.0109
25708W        W41842   9.864   0.129  10.680 -0.0389 -0.0783 -0.2055
25709W        W41843  11.728   4.440   2.262  0.1735 -0.4324 -0.0500
25710W        W41844   5.672   2.882  13.152 -0.1935  0.0512  0.0502
25711W        W41845  17.955   7.768  13.715  0.1078  0.0506 -0.0106
25712W        W41846  12.704   6.709   2.353  0.0209  0.0778 -0.0225
25713W        W41847   3.166   2.099   0.318  0.3486 -0.3033 -0.3445
25714W        W41848   4.794   7.850   2.538  0.2657  0.0048 -0.2194
25715W        W41849   5.737   4.957  14.202  0.1205  0.2149  0.2853
25716W        W41850  13.151  16.938  13.303  0.0720 -0.1543 -0.0505
25717W        W41851  17.249   5.386  11.879  0.0248 -0.0361 -0.1086
25718W        W41852  10.750  12.745   3.166 -0.1092 -0.2573 -0.0678
25719W        W41853  12.906  12.602  14.985 -0.2414  0.0999 -0.3229
25720W        W41854   9.694  13.404  10.398 -0.1278 -0.0260  0.0244
25721W        W41855  16.712  10.086   0.323 -0.0926  0.0737 -0.0236
25722W        W41856  17.850   9.031  11.488 -0.0676  0.2475 -0.0321
25723W        W41857  17.722  12.804   3.666  0.0848  0.2120 -0.0563
25724W        W41858   8.799  16.023  12.340 -0.0665  0.4212 -0.5292
25725W        W41859   9.277  18.789   2.517  0.0747 -0.1210 -0.3389
25726W        W41860   6.349   4.673   0.307 -0.1306 -0.0213  0.3717
25727W        W41861  18.988   2.215  13.236  0.0576  0.0884 -0.1868
25728W        W41862  12.806  18.972   0.507  0.1790 -0.0975  0.1537
25729W        W41863  15.369  18.675   3.664 -0.1439 -0.0809 -0.0549
25730W        W41864   3.457   3.035   2.248  0.1767 -0.4134  0.0145
25731W        W41865  18.592   3.083   2.413  0.0867  0.0541 -0.1612
25732W        W41866   6.847   7.892  13.086  0.2283 -0.1201 -0.2266
25733W        W41867  18.879  13.671  14.463 -0.2710  0.0476 -0.0403
25734W        W41868  18.136  11.350   5.024 -0.0528 -0.0953  0.0034
25735W        W41869  16.994   3.725  11.099  0.2089  0.2075  0.1953
25736W        W41870  15.901   4.543  14.620  0.1283 -0.1013  0.0209
25737W        W41871   9.752   4.665  11.369  0.0664 -0.0696  0.0071
25738W        W41872   1.603   7.828  12.130 -0.0402 -0.1043 -0.0082
25739W        W41873   6.693  17.856   4.657 -0.3386  0.0323  0.0998
25740W        W41874  12.445  18.543   1.768  0.1962 -0.1897 -0.1036
25741W        W41875  16.644  18.839  13.972  0.1677  0.1509  0.0248
25742W        W41876  18.345   9.893   4.294  0.1278  0.1552 -0.0659
25743W        W41877   9.293  11.624   4.464 -0.3036  0.0790  0.0047
25744W        W41878  16.534  16.899  13.020  0.2076 -0.0912  0.2967
25745W        W41879  18.830  11.540  13.048  0.1076 -0.5308 -0.1469
25746W        W41880   7.905  11.485  14.859 -0.1983  0.0687 -0.0152
25747W        W41881  13.586   9.239   3.553  0.0396 -0.0693 -0.2054
25748W        W41882  18.577   0.562  13.836 -0.5449 -0.1519 -0.0212
25749W        W41883   9.810  14.505   0.738 -0.1411 -0.0979 -0.2052
25750W        W41884  11.989   4.735   3.257 -0.0788 -0.0565 -0.1107
25751W        W41885   6.681  13.838   1.831  0.0751 -0.1606 -0.3453
25752W        W41886  14.386  15.963   4.996  0.1526 -0.1152 -0.0483
25753W        W41887  11.596  15.095   1.884  0.4799  0.0884 -0.0782
25754W        W41888  18.581   2.144   0.051  0.0007 -0.1024 -0.1128
25755W        W41889   4.601   9.528  12.594  0.2332  0.1091 -0.1420
25756W        W41890   4.388  12.194   0.394  0.2095 -0.0622  0.1396
25757W        W41891   3.095   1.282  10.486  0.0525  0.0785  0.2399
25758W        W41892   1.828   7.500   1.056 -0.0300 -0.2795  0.0926
25759W        W41893   7.055  14.102  11.661 -0.0580  0.4998  0.0551
25760W        W41894   1.382   7.394   0.796  0.0970  0.1245  0.1328
25761W        W41895  17.727  11.789  12.673  0.1262 -0.0452 -0.3840
25762W        W41896   2.812   2.613  11.899  0.0696  0.1844 -0.0747
25763W        W41897   4.603   8.597  12.863 -0.0117 -0.2505  0.5147
25764W        W41898  12.924   1.678   2.130  0.2881 -0.0017  0.1024
25765W        W41899   7.132   7.885  11.868 -0.0955 -0.1089  0.0074
25766W        W41900  15.006   0.527   2.113 -0.0882 -0.0747 -0.1741
25767W        W41901  11.887   2.592   5.398  0.0309 -0.0960  0.2405
25768W        W41902   1.940   2.770   0.045  0.4085 -0.0847  0.1089
25769W        W41903  17.515  12.331  14.074  0.2549  0.1429  0.1289
25770W        W41904   5.494   4.472   0.907 -0.0612  0.2016  0.0154
25771W        W41905   2.915  10.289  13.185  0.1411 -0.0007 -0.0636
25772W        W41906   3.581   9.469  11.445 -0.0527  0.1676 -0.1128
25773W        W41907   9.635   6.582  12.810  0.1720 -0.0125 -0.1318
25774W        W41908   2.170  19.235  13.595  0.0416  0.0113  0.3655
25775W        W41909   5.926   5.962   3.340 -0.1427  0.2760 -0.0511
25776W        W41910  12.603  15.377  13.561 -0.3793 -0.1235 -0.3324
25777W        W41911  18.969   4.209   3.931 -0.1488  0.0923  0.1164
25778W        W41912   1.952  11.074   3.062 -0.0260  0.2143  0.1204
25779W        W41913  15.540  11.232   5.035 -0.0294 -0.1701  0.4045
25780W        W41914  16.744  13.875   0.728 -0.0086  0.0226  0.2106
25781W        W41915  19.154  14.860   2.007 -0.3458 -0.1661 -0.1451
25782W        W41916  14.129  13.051   2.202 -0.3422 -0.0716 -0.0329
25783W        W41917  13.894  11.600   4.046  0.2525  0.0815 -0.0347
25784W        W41918   8.438   6.760  10.994  0.2838 -0.2037  0.2239
25785W        W41919  14.108  16.899  11.862  0.1238 -0.0804  0.0727
25786W        W41920   0.599   2.805  14.603 -0.3319  0.5486 -0.1127
25787W        W41921  19.075   4.607  12.540  0.3247 -0.1374  0.0156
25788W        W41922   0.519  14.168  14.755  0.0824 -0.1270 -0.2027
25789W        W41923  14.031  19.062  11.046 -0.1205  0.1092  0.1026
25790W        W41924  15.771   0.410  13.419 -0.4066  0.0780  0.1332
25791W        W41925   9.768  18.799   3.552  0.0647  0.1746 -0.0806
25792W        W41926   3.677   9.050   1.445  0.0508 -0.0728  0.0079
25793W        W41927  16.068  16.763   4.798  0.0028 -0.0412 -0.1719
25794W        W41928   1.262   6.706  13.858  0.2207 -0.0245 -0.0441
25795W        W41929   2.920  18.013  13.106 -0.0187  0.1703  0.1798
25796W        W41930  15.473  19.207  13.358  0.2464  0.0203  0.2075
25797W        W41931   9.390  17.906  13.471  0.2382  0.1699 -0.1697
25798W        W41932  16.555  13.476  12.382  0.0245  0.1423  0.0911
25799W        W41933   3.396  17.636  11.659 -0.0205  0.0633  0.1820
25800W        W41934  18.127  16.831   4.063 -0.0064  0.1917  0.3688
25801W        W41935  11.936   6.495  12.723  0.0707  0.0975 -0.1381
25802W        W41936  12.569  12.527   1.900  0.2909 -0.0865  0.1602
25803W        W41937   3.577   6.226   1.118  0.2013 -0.0162 -0.3016
25804W        W41938   2.442  13.811  11.742 -0.0573 -0.2766  0.1181
25805W        W41939   9.278   9.948   9.974 -0.0337 -0.3019  0.0571
25806W        W41940  11.569   3.483   1.459  0.0345 -0.1001  0.1474
25807W        W41941   8.917   1.345   3.557 -0.0413 -0.1895  0.0906
25808W        W41942  16.274  15.177   0.233 -0.2396 -0.4802 -0.0677
25809W        W41943   3.719   8.022   2.768  0.0908  0.1050  0.0545
25810W        W41944   7.426  16.415  10.981  0.1638  0.0908  0.0631
25811W        W41945   9.842  16.461   0.340  0.1181 -0.3176 -0.0692
25812W        W41946  12.856  18.911  12.741  0.0415  0.0925  0.0171
25813W        W41947  18.549  16.067   2.879  0.1686 -0.0301 -0.0390
25814W        W41948   7.247  19.061  13.814  0.0502  0.5523  0.3794
25815W        W41949   9.906  11.721  14.082  0.1014 -0.1170 -0.0995
25816W        W41950   8.596  15.137   3.352  0.0414 -0.1680  0.1836
25817W        W41951  15.354  14.451   5.917  0.0957  0.1936 -0.2036
25818W        W41952   7.876   6.756  11.358  0.2377  0.2047 -0.1705
25819W        W41953   3.842  17.798   0.698 -0.1524  0.2453 -0.1679
25820W        W41954   4.894  10.356  13.118  0.3290 -0.1625 -0.3601
25821W        W41955   4.419   1.573   0.031  0.3558  0.0035  0.0129
25822W        W41956   4.513   3.030  14.467  0.5153  0.0797  0.1391
25823W        W41957  14.345   8.271   1.362  0.5144  0.1590 -0.1410
25824W        W41958   1.165  16.008   3.967 -0.1558 -0.1726  0.1942
25825W        W41959  10.276  12.628   6.050 -0.2673  0.3853  0.1098
25826W        W41960  11.707  14.431   2.379  0.2768  0.0520 -0.0225
25827W        W41961  10.132   1.997   1.982 -0.0015 -0.4535  0.0594
25828W        W41962   1.810   0.393  13.634  0.0283  0.0810 -0.1554
25829W        W41963  16.315  12.345   4.060  0.0599 -0.0704 -0.0805
25830W        W41964   5.242  10.762  13.255 -0.0024 -0.2847  0.0754
25831W        W41965   3.078  13.835   9.646 -0.0113  0.3012  0.0078
25832W        W41966  17.266   3.128   4.322 -0.0593 -0.4875  0.1743
25833W        W41967   2.287  18.610  10.558  0.1785  0.2164 -0.3262
25834W        W41968  18.943  17.845  10.936  0.1314 -0.3733 -0.3332
25835W        W41969   4.685   0.159  10.312 -0.1340 -0.5348  0.2538
25836W        W41970   5.938  14.952  13.328 -0.1748 -0.5899 -0.2519
25837W        W41971   9.897  11.110  10.205  0.1375 -0.1635 -0.1099
25838W        W41972  11.355   4.798   3.224  0.1146 -0.0218  0.2880
25839W        W41973   7.985  12.895  13.824  0.0379  0.1437  0.3683
25840W        W41974  15.953   8.453   1.651  0.2335 -0.0370  0.3905
25841W        W41975   0.279   1.518  12.611  0.0169 -0.0415 -0.1572
25842W        W41976   3.360  13.744  12.410 -0.1511 -0.1856 -0.1805
25843W        W41977  12.131   1.964  14.875 -0.1344  0.1784 -0.0914
25844W        W41978  17.824  15.269  10.078  0.1761 -0.1218  0.4458
25845W        W41979  18.431   3.601   2.554  0.0559 -0.0777  0.3231
25846W        W41980   5.724  18.657   3.943 -0.1438  0.0134 -0.1975
25847W        W41981   3.498  16.978   5.475  0.0620 -0.3647  0.1652
25848W        W41982  13.259  18.375   4.547 -0.2015  0.0295  0.2093
25849W        W41983   8.190  19.090  11.911  0.3483 -0.1747 -0.0841
25850W        W41984  12.659   6.339  12.038 -0.5553  0.0568 -0.0224
25851W        W41985  18.180  11.991  12.631 -0.4846 -0.0780 -0.1314
25852W        W41986   7.997   3.554  13.121 -0.2480 -0.3249 -0.0976
25853W        W41987   1.447   0.174   1.795  0.1514 -0.0800  0.7623
25854W        W41988  15.307   5.575   5.477  0.0669  0.0948 -0.0966
25855W        W41989  18.194   3.353  12.625 -0.2544 -0.3381  0.0782
25856W        W41990  11.060   2.754  13.630  0.2737  0.0091 -0.0894
25857W        W41991   9.441  13.446   0.935 -0.0696 -0.5703 -0.2312
25858W        W41992  13.549  19.001   4.810 -0.1671 -0.1983  0.1726
25859W        W41993  14.863  15.394  11.525  0.0437  0.2624  0.1704
25860W        W41994  10.074  10.557  12.190 -0.3007 -0.3003 -0.2062
25861W        W41995  12.232   6.463   2.562  0.2724  0.0019 -0.1624
25862W        W41996  13.190  12.103   3.557  0.2554  0.1892 -0.4325
25863W        W41997   2.226   6.867   1.102  0.0996 -0.2737  0.3106
25864W        W41998   5.825   8.587   4.649 -0.2973 -0.0525  0.1693
25865W        W41999   2.196  13.848   3.286 -0.1990  0.0866 -0.1488
25866W        W42000  18.404  18.365  13.599  0.1761  0.3882  0.2658
25867W        W42001  10.641   2.220   2.185  0.0184 -0.1236  0.0261
25868W        W42002  11.043   0.975   1.992  0.2802 -0.2368  0.0286
25869W        W42003  18.417  17.066  11.528  0.0540 -0.2819 -0.1153
25870W        W42004  15.207   2.152  13.736 -0.1681 -0.1025  0.0875
25871W        W42005  15.409   8.652   4.149 -0.1427  0.6319  0.1320
25872W        W42006   9.936   1.976  11.801 -0.2734 -0.0635  0.2522
25873W        W42007  17.716  17.408   4.788 -0.1117  0.0756  0.1070
25874W        W42008   7.899   4.153   0.152  0.3477 -0.0020 -0.0721
25875W        W42009   8.150   2.461   0.491  0.2494  0.1786 -0.1809
25876W        W42010  18.639  16.112   1.984 -0.3223 -0.0589 -0.1766
25877W        W42011   1.734  18.934  14.423  0.3019 -0.0239 -0.2131
25878W        W42012   2.140   3.408   0.658 -0.0348 -0.2121  0.1396
25879W        W42013  17.389   2.792   3.184 -0.0765  0.3278 -0.0461
25880W        W42014  11.393  11.657   4.701 -0.1721  0.1032 -0.3438
25881W        W42015   4.810   4.444   2.087  0.0777 -0.0065  0.3993
25882W        W42016   9.334   9.466  11.529 -0.1668 -0.0109 -0.1921
25883W        W42017   0.795   8.637   3.217  0.3030 -0.1976  0.0703
25884W        W42018   7.144   4.344   0.194  0.1210 -0.1861 -0.2250
25885W        W42019  14.894   1.297   1.561 -0.0001 -0.0548  0.1110
25886W        W42020  13.891  14.305   3.022  0.0614  0.0870 -0.1415
25887W        W42021  18.609  16.580   0.144  0.1041  0.0050  0.2903
25888W        W42022  12.285  10.914   1.774  0.1623  0.2330 -0.0386
25889W        W42023  11.899  16.227   3.859  0.0033  0.0240 -0.0991
25890W        W42024   8.027  11.957  14.903  0.0975 -0.3159  0.0317
25891W        W42025   6.856   3.038  11.659  0.0941  0.3101  0.1328
25892W        W42026   7.779   7.990   1.516 -0.0965  0.2065  0.3141
25893W        W42027   1.185   8.206  11.236 -0.1223 -0.3966 -0.2180
25894W        W42028  13.378  12.304   0.821 -0.1019  0.0165  0.2871
25895W        W42029   7.530   0.659   1.221  0.0640  0.0249  0.0289
25896W        W42030  14.047   5.508  11.919 -0.2107  0.1551 -0.1261
25897W        W42031  12.839   6.127  10.909  0.0481 -0.0050  0.0512
25898W        W42032  14.731   8.773  12.965 -0.3840 -0.0641  0.2502
25899W        W42033  14.866   4.486  14.281 -0.1706  0.0912 -0.2004
25900W        W42034   6.158   9.472   0.259  0.3673  0.0343 -0.0142
25901W        W42035   3.196  17.233  10.967  0.1293 -0.0988  0.1978
25902W        W42036  14.856   9.412   9.713  0.2211 -0.0925 -0.0503
25903W        W42037  14.795   3.676   1.331 -0.2297  0.1705  0.1307
25904W        W42038   4.767   8.374   2.670 -0.3798  0.1388  0.1856
25905W        W42039   9.960  18.197  14.398 -0.1895 -0.0306 -0.0355
25906W        W42040   2.349  15.716   4.713  0.1044  0.2193 -0.1303
25907W        W42041  13.266   6.634   9.439  0.0904 -0.3241  0.1668
25908W        W42042   3.229   0.653  13.606 -0.0233  0.0768 -0.0599
25909W        W42043  18.760  10.871   1.735  0.1343  0.1075 -0.2912
25910W        W42044  13.127   7.139  10.597 -0.0636  0.0647  0.1707
25911W        W42045   0.657  11.975  14.004 -0.0883 -0.0196 -0.1360
25912W        W42046  18.523  17.751   2.713  0.0995  0.1329  0.0003
25913W        W42047   3.136   1.675  13.638  0.0064 -0.5158  0.2846
25914W        W42048   5.337  14.942  13.381  0.0548  0.1465  0.0107
25915W        W42049  13.339  10.271   5.190  0.0645  0.0635 -0.0017
25916W        W42050   6.167   9.643  12.919  0.1939  0.0792 -0.3407
25917W        W42051   6.317  18.701   4.925 -0.0998 -0.1520  0.1275
25918W        W42052  11.349   3.520   9.353 -0.1833 -0.3699 -0.0867
25919W        W42053  10.669  10.183   4.627 -0.3266 -0.2070 -0.0288
25920W        W42054  18.916  18.734   0.098  0.4984  0.0177  0.0868
25921W        W42055  11.988   7.606   3.509  0.3708  0.2471 -0.1207
25922W        W42056   8.799   0.487   1.604 -0.1230  0.1915  0.2126
25923W        W42057  17.289   0.565  13.161  0.3340  0.1482 -0.0535
25924W        W42058  18.999  13.202  12.102 -0.1197  0.0545  0.0963
25925W        W42059  15.212  17.624   2.285  0.0486  0.2144  0.4253
25926W        W42060  10.189  13.427   3.839 -0.0952  0.0374  0.0178
25927W        W42061   9.713  15.093   5.103  0.0566  0.1471  0.0459
25928W        W42062   3.601   8.010  13.535 -0.0383  0.0016 -0.1769
25929W        W42063  11.937  16.055  13.608 -0.1887  0.2991  0.3045
25930W        W42064   8.589   8.969   2.402  0.1375  0.3367 -0.2037
25931W        W42065  10.957   0.454   2.459  0.1316 -0.2634 -0.1505
25932W        W42066  17.480  11.301  13.505 -0.0663  0.1275 -0.1033
25933W        W42067   6.147  12.101  13.626  0.1477  0.0522 -0.0684
25934W        W42068   5.272   9.599  14.823  0.0897  0.1995  0.1505
25935W        W42069  13.285   8.040  14.944 -0.2015 -0.0089  0.1491
25936W        W42070  17.339  18.896   4.002  0.0975 -0.1459 -0.0769
25937W        W42071   4.223   0.410  11.788  0.0889 -0.1482 -0.2036
25938W        W42072  13.067  16.815   3.763 -0.1912 -0.1321  0.0763
25939W        W42073   7.433   5.078   1.691  0.2125 -0.2562  0.1243
25940W        W42074  18.208   8.115  10.591  0.1748 -0.4328 -0.3679
25941W        W42075   5.393   8.781   4.275 -0.0420  0.2184  0.0322
25942W        W42076  11.779   1.341   0.892 -0.0418 -0.2552 -0.3361
25943W        W42077  18.325  18.534   1.569  0.1021 -0.2164 -0.2358
25944W        W42078  11.588   4.162  13.783 -0.0369  0.2965 -0.2843
25945W        W42079   1.889  15.374   2.253  0.2284  0.0944 -0.1376
25946W        W42080  11.883   4.324   0.569 -0.0867  0.2893  0.0198
25947W        W42081  15.416  13.249  11.354 -0.1692  0.2714 -0.0650
25948W        W42082  13.511  13.251   1.709  0.1477 -0.0392  0.0644
25949W        W42083   9.917  11.700   1.160 -0.1674  0.1876  0.3544
25950W        W42084  18.054   4.775   0.134 -0.3589 -0.2258 -0.1078
25951W        W42085   9.865   3.494   3.573 -0.5337 -0.3249  0.2174
25952W        W42086   2.329   9.371   0.311 -0.3449 -0.4773 -0.1645
25953W        W42087  16.592  18.735  10.671  0.2803 -0.1896  0.2535
25954W        W42088  16.636  11.880   1.516  0.2861  0.4482  0.1144
25955W        W42089   3.645   5.237   2.841 -0.1098  0.1886  0.0188
25956W        W42090  15.753  11.919   3.280  0.1948 -0.1449 -0.0713
25957W        W42091   0.768  12.854  12.155 -0.2482  0.4013  0.0597
25958W        W42092  10.919   7.690   3.048 -0.0973  0.1395 -0.1290
25959W        W42093   6.106   0.553   3.675 -0.0597 -0.3354 -0.0403
25960W        W42094   0.626   8.872  13.549  0.0981  0.1266 -0.3993
25961W        W42095  16.841   5.354   1.825 -0.0722  0.3327 -0.1396
25962W        W42096  15.582  14.631  14.476  0.1108  0.1311 -0.2376
25963W        W42097   0.015  12.556  13.656 -0.1241  0.3154 -0.0150
25964W        W42098   8.954   1.910   3.639 -0.1037 -0.0088  0.1940
25965W        W42099   3.991  11.384  14.590  0.1070 -0.0837  0.0266
25966W        W42100   3.755  15.349  10.593  0.1586 -0.0123 -0.1016
25967W        W42101  11.361  12.480   0.749 -0.4106 -0.4091 -0.1128
25968W        W42102   2.379   1.399  12.939 -0.3154 -0.1663 -0.0028
25969W        W42103  18.525   2.601  12.117  0.3213  0.1967  0.0171
25970W        W42104  17.074   5.431   1.271 -0.0408  0.1618 -0.2315
25971W        W42105  11.828  17.864   3.152  0.0685  0.3077 -0.2350
25972W        W42106  10.032   7.052   4.244 -0.1314  0.2063 -0.1803
25973W        W42107   0.643   8.324  14.865  0.0622 -0.0664  0.1802
25974W        W42108   1.808   5.791   1.016  0.0557 -0.0974 -0.0714
25975W        W42109   1.964   5.673   0.138 -0.1585  0.1982 -0.0190
25976W        W42110  11.275   8.719   2.828  0.0243  0.0780  0.2932
25977W        W42111   5.436  14.747  12.517 -0.0914  0.2403  0.2290
25978W        W42112  17.238  10.110   0.930  0.1351  0.0953 -0.3519
25979W        W42113   9.597   0.320   2.142  0.0001 -0.0407 -0.1113
25980W        W42114  10.614  12.742   2.382 -0.1880  0.0136  0.2379
25981W        W42115   7.497  15.915  14.589  0.1477 -0.3353  0.3594
25982W        W42116  12.972  14.951   1.973  0.1337  0.0289  0.0257
25983W        W42117  16.507   0.822   4.791 -0.0791 -0.2107  0.0584
25984W        W42118  11.589  11.715  11.444 -0.3334  0.1739 -0.0972
25985W        W42119   0.525  19.136  11.948 -0.0282 -0.0852  0.1480
25986W        W42120  16.132   3.235   2.591 -0.1450  0.1052  0.0474
25987W        W42121   3.582   5.914   3.585  0.2537  0.0597 -0.0059
25988W        W42122   2.662   2.174   1.323 -0.0508 -0.1084 -0.2087
25989W        W42123   6.194   0.491   2.107 -0.1358  0.5141  0.2660
25990W        W42124  13.897  11.174  12.369 -0.1248 -0.2522  0.2252
25991W        W42125  10.874   6.856  10.753 -0.1241 -0.0862 -0.3355
25992W        W42126  10.743   5.467  11.686  0.2197  0.0808 -0.3553
25993W        W42127   2.030   4.435   3.255  0.0649  0.1087 -0.2613
25994W        W42128   7.332  11.515   5.664 -0.0951 -0.3795  0.0040
25995W        W42129   6.703   8.683  11.190  0.0066 -0.0450  0.1392
25996W        W42130   2.220  18.771  10.084 -0.3438  0.1773 -0.0619
25997W        W42131  13.088   4.378  11.314 -0.5992 -0.0523  0.3663
25998W        W42132  12.151   9.262   4.157 -0.1342 -0.1563 -0.2685
25999W        W42133   5.420  14.749  14.117 -0.0731 -0.1208  0.2693
26000W        W42134   3.301  10.024  10.737 -0.2722  0.2312  0.1880
26001W        W42135   3.009  14.818   2.639 -0.0081 -0.3213  0.1298
26002W        W42136   7.210  15.624   2.371  0.2652 -0.0420  0.1070
26003W        W42137  13.274  14.623   2.994  0.1885 -0.0277  0.2351
26004W        W42138   4.679  11.432  10.053  0.0391 -0.1466 -0.1031
26005W        W42139  10.537   7.794  12.059  0.2854 -0.1610 -0.2203
26006W        W42140  10.836  18.948   2.917  0.0041 -0.1225  0.0148
26007W        W42141  14.416   8.569   1.786  0.0984 -0.0302 -0.1148
26008W        W42142   7.937   9.666   4.638  0.0057  0.0047 -0.0889
26009W        W42143  16.516   5.291  11.327 -0.1830 -0.1349 -0.2453
26010W        W42144  15.453  16.769   1.250 -0.0134 -0.3491 -0.0456
26011W        W42145  18.378  13.854  15.013  0.0591 -0.1615  0.0215
26012W        W42146  11.375   5.538  13.628  0.2462 -0.0887 -0.0100
26013W        W42147  11.723   2.210   2.434 -0.1157  0.1784 -0.5159
26014W        W42148   6.912  13.211   2.322 -0.0053 -0.5718 -0.0807
26015W        W42149  17.118   4.973   1.462 -0.2699 -0.2171 -0.2596
26016W        W42150  10.138   0.492   1.969 -0.3540 -0.1334  0.0445
26017W        W42151   6.171   5.994   1.511 -0.3347  0.1147  0.3956
26018W        W42152  14.346  13.603   2.089 -0.1260 -0.6258 -0.1956
26019W        W42153   9.909   7.675   2.056 -0.2532  0.1399 -0.0655
26020W        W42154  17.993  10.126   4.650 -0.1215 -0.0591  0.0901
26021W        W42155   5.390  10.098  14.367  0.3387 -0.0117  0.0039
26022W        W42156   6.353  15.453  11.522 -0.1257 -0.1053 -0.1954
26023W        W42157  14.622  10.875  13.699  0.1575 -0.0488 -0.0898
26024W        W42158   2.378   2.603  12.227 -0.4597  0.0999  0.1955
26025W        W42159  18.462   7.450   3.690  0.0152  0.1501  0.0352
26026W        W42160  16.457   7.653   1.655  0.1788 -0.2070  0.0756
26027W        W42161   9.845  14.314   2.168 -0.4048 -0.0259  0.1063
26028W        W42162   2.601   9.215  10.095 -0.0064  0.1814 -0.1994
26029W        W42163  10.584   5.095   2.899  0.2933  0.3820  0.0379
26030W        W42164   9.697   0.515   9.373  0.3302  0.0342 -0.1213
26031W        W42165   3.682   9.343  14.973 -0.2235  0.1752  0.0575
26032W        W42166   0.841  12.896  13.199  0.1064  0.0405 -0.0700
26033W        W42167   4.869  11.016   2.164  0.0429  0.2435 -0.2788
26034W        W42168  16.636   2.381   4.033  0.1525  0.2361 -0.0301
26035W        W42169  15.918   1.434   2.113  0.1511  0.2680 -0.0453
26036W        W42170   0.162   3.706  12.399 -0.0379 -0.1704  0.0417
26037W        W42171   7.896   2.730  14.642 -0.1679  0.2584 -0.0327
26038W        W42172   9.881   9.654   0.331  0.1660  0.2725  0.1811
26039W        W42173  18.217   9.659   1.250  0.1305  0.1429  0.0700
26040W        W42174   7.101  11.070   3.961  0.1944  0.2286  0.0684
26041W        W42175  12.673   9.060  14.565  0.3222 -0.2599 -0.2036
26042W        W42176   4.562  10.358   2.471 -0.1297  0.3113 -0.0765
26043W        W42177  10.270  10.574   0.212 -0.2421  0.1575  0.1055
26044W        W42178   8.409  18.088   0.443  0.0392 -0.1551  0.0073
26045W        W42179   4.584  12.351   3.885 -0.0196  0.0026  0.1466
26046W        W42180  10.209  16.968  11.853 -0.1586  0.0743  0.0191
26047W        W42181  12.754  11.987   1.284  0.3833  0.0731 -0.3804
26048W        W42182  13.033   1.241  14.115 -0.1793  0.0451  0.0464
26049W        W42183  17.560   3.460  13.672 -0.0011  0.1469  0.3434
26050W        W42184  18.446   2.059   2.109  0.2037  0.1278 -0.2589
26051W        W42185  12.609   1.510   2.829 -0.0115  0.0834 -0.1283
26052W        W42186  11.583   8.440   4.867 -0.1556  0.2881 -0.1320
26053W        W42187  15.103   0.128  11.181 -0.0257 -0.0026 -0.0090
26054W        W42188   7.923  19.211  14.513  0.1346 -0.2347 -0.0283
26055W        W42189  10.813  10.866  12.497 -0.0178  0.0312  0.0631
26056W        W42190   2.865   1.537  11.314  0.2314 -0.1029 -0.0774
26057W        W42191   6.016  18.984   4.138 -0.0599  0.1060  0.3079
26058W        W42192   7.559  16.989  11.881  0.0729  0.1505 -0.1167
26059W        W42193   9.287  14.600  14.425  0.3601 -0.1796  0.1627
26060W        W42194  18.551  13.876  14.164 -0.2793  0.0832  0.0504
26061W        W42195  18.796   2.764   4.550  0.0277 -0.3234 -0.2080
26062W        W42196   5.626   8.703   0.603  0.3899  0.0813  0.1791
26063W        W42197  18.002  19.097   4.538  0.0627  0.0330 -0.0938
26064W        W42198   3.660  12.166  11.480 -0.0752 -0.0051  0.1336
26065W        W42199  14.114   6.237   3.485  0.2644  0.1156 -0.0556
26066W        W42200  15.177  18.130   0.184 -0.3974  0.1871  0.1868
26067W        W42201  17.513  10.951   3.098  0.0586 -0.1408 -0.0604
26068W        W42202   1.996  16.584  11.351 -0.0807  0.2993 -0.0399
26069W        W42203   4.052  12.830   1.183  0.1694 -0.3331 -0.0593
26070W        W42204   7.676   5.061  11.670  0.1354  0.0026 -0.1682
26071W        W42205  14.588  17.957  10.190 -0.1213  0.0085  0.0918
26072W        W42206  17.077  15.231  12.799  0.1738  0.4184  0.1425
26073W        W42207  10.408   1.494   4.530  0.0574 -0.1120  0.1450
26074W        W42208   8.851  12.005  13.764 -0.4837  0.2725 -0.3950
26075W        W42209   1.212   6.469  13.444  0.2998  0.0092 -0.1284
26076W        W42210   3.931  17.646  11.707  0.1795 -0.2095  0.2959
26077W        W42211  14.368  15.944   5.794 -0.2289 -0.0894 -0.0242
26078W        W42212   2.338   5.719  12.916  0.0731 -0.0484 -0.2298
26079W        W42213   2.851  12.603   0.696  0.1687  0.1057 -0.0348
26080W        W42214  16.539  16.094  14.849  0.1266  0.3661  0.0768
26081W        W42215   5.795   6.521  10.202  0.1831 -0.3008 -0.1111
26082W        W42216  10.287  14.805  10.620 -0.3169  0.3057 -0.4426
26083W        W42217  10.526  17.678  10.089  0.1212 -0.3163  0.1316
26084W        W42218   0.282   5.576   1.937 -0.2718 -0.2238  0.1516
26085W        W42219   6.326  13.371   3.134  0.4721 -0.1070 -0.0913
26086W        W42220  11.464   0.965  14.041  0.0645 -0.1216 -0.2990
26087W        W42221  11.678   4.759  14.574  0.3976 -0.0978 -0.0559
26088W        W42222  13.616   1.656   4.378  0.1100  0.0611  0.0193
26089W        W42223  16.968   9.573  14.701  0.1145  0.0680  0.0801
26090W        W42224   8.456  15.766   1.781  0.0904 -0.2767  0.2148
26091W        W42225   9.223   5.425  13.791 -0.0024  0.4791 -0.2126
26092W        W42226   5.731   4.348  14.809 -0.1754 -0.2467 -0.0678
26093W        W42227  12.202  12.949   1.743  0.0808  0.0633  0.2291
26094W        W42228   2.258  12.751   0.665  0.0756 -0.0684  0.3575
26095W        W42229  13.966   4.981   2.825  0.4069  0.0577  0.0988
26096W        W42230   1.692   9.592   4.115 -0.3047  0.0370  0.4604
26097W        W42231  18.044   4.611   2.759 -0.1795 -0.1347 -0.1055
26098W        W42232  10.241   9.048  10.680 -0.1912  0.1639 -0.0598
26099W        W42233   2.114   7.926   1.311  0.0322  0.1464  0.0960
26100W        W42234  12.726  19.093  14.566  0.4280  0.0131  0.2149
26101W        W42235   8.416  13.365  12.801  0.0479  0.0764 -0.2113
26102W        W42236  15.285  12.863   0.106 -0.2365  0.1254  0.0098
26103W        W42237  18.951  18.122   0.734 -0.1787 -0.1979  0.1593
26104W        W42238   6.928  14.475   0.366  0.0705 -0.0525  0.2178
26105W        W42239   5.729   9.666   0.031  0.0456 -0.1749 -0.1221
26106W        W42240   6.921  18.568   4.423 -0.1024  0.3908 -0.0231
26107W        W42241   1.421   2.805   2.257  0.1567 -0.0136 -0.0011
26108W        W42242  17.666   6.979  14.047  0.0370  0.2427  0.1999
26109W        W42243   4.825  12.019   2.276  0.0708 -0.1515  0.0280
26110W        W42244  11.285  18.421  14.399  0.2026  0.0302  0.2052
26111W        W42245  16.937  12.110   0.563  0.1405  0.0961 -0.0394
26112W        W42246   9.320   1.928   0.183  0.2073 -0.1481  0.0023
26113W        W42247   2.933  16.522   4.907 -0.0943  0.0486  0.0004
26114W        W42248   9.940  14.496   1.271 -0.0672 -0.1177 -0.0606
26115W        W42249   1.309   4.534   2.634  0.1051  0.2350 -0.6705
26116W        W42250  14.267   4.105   2.601  0.2429  0.0534 -0.2170
26117W        W42251   2.611   7.164   2.489  0.1065  0.2379 -0.2958
26118W        W42252  18.395   6.658   0.528  0.1112  0.3226  0.2176
26119W        W42253  15.982   1.981   1.318 -0.2384  0.0109  0.2584
26120W        W42254   7.717  15.093   3.606  0.0899 -0.0995  0.0557
26121W        W42255  12.974   5.630  10.981  0.2586 -0.1695 -0.1088
26122W        W42256  17.603  16.337  12.800  0.2693  0.1899 -0.2969
26123W        W42257  16.975  18.453  14.022 -0.0184 -0.0330 -0.0507
26124W        W42258  15.033  12.409  11.887 -0.0435 -0.2568 -0.1270
26125W        W42259   8.350  14.578   3.915 -0.2312 -0.3520 -0.2230
26126W        W42260  10.998   8.118   0.678 -0.0179  0.0202  0.1713
26127W        W42261  15.161  13.804   3.615  0.1011  0.3669  0.1165
26128W        W42262   2.311   3.472   2.854 -0.5650  0.3431  0.0137
26129W        W42263   9.554  11.918   3.333 -0.2199 -0.0901  0.2591
26130W        W42264  17.430  15.934  10.819  0.1661 -0.2134  0.3071
26131W        W42265   4.564  11.330   2.890  0.0043  0.0334 -0.3665
26132W        W42266  14.629   1.148   9.304  0.1346 -0.1122 -0.0676
26133W        W42267   7.622  12.240  10.185 -0.0866 -0.0992 -0.3342
26134W        W42268   6.761   8.978  11.666 -0.0118  0.4451 -0.0080
26135W        W42269  18.798   0.126   2.392 -0.3733  0.0619  0.2279
26136W        W42270   7.542   8.302  12.882  0.0878  0.1616 -0.1789
26137W        W42271  16.329   7.723   0.980  0.0956  0.0119 -0.2481
26138W        W42272  12.078   5.535   4.633  0.4672  0.0316 -0.0418
26139W        W42273   9.986   4.419  14.846  0.1418  0.1205 -0.3918
26140W        W42274  15.556   4.810   2.954  0.1702 -0.0843  0.3531
26141W        W42275   6.451  15.263   2.959  0.1071  0.0353  0.1437
26142W        W42276  18.036  13.954   2.526 -0.1375 -0.2202  0.1690
26143W        W42277   2.687   4.267   3.278  0.1551  0.5249 -0.0092
26144W        W42278  14.978   2.077   9.599 -0.2315 -0.2590  0.0103
26145W        W42279  18.325   8.970   1.815  0.0539 -0.1366 -0.2551
26146W        W42280   3.915  10.029   5.459 -0.0361  0.1336 -0.0083
26147W        W42281  11.787  19.084   2.549 -0.1994  0.1617  0.2802
26148W        W42282  13.187  18.949  10.639  0.0995  0.1354 -0.2300
26149W        W42283  16.907   5.743  10.094  0.1433  0.4666  0.0633
26150W        W42284  14.730  10.161  12.497  0.2085 -0.2332  0.0226
26151W        W42285   4.586  16.478  13.977 -0.0880  0.0005 -0.2039
26152W        W42286  17.128   4.586  14.877 -0.3984 -0.1914  0.2877
26153W        W42287   9.311   8.620   4.719 -0.2635  0.0340  0.2070
26154W        W42288   7.918  15.703   3.009 -0.1007 -0.2012 -0.1509
26155W        W42289  17.082   9.894   2.646  0.0169  0.0352  0.0597
26156W        W42290  19.096   5.189  10.721  0.0126 -0.3413 -0.3112
26157W        W42291   1.734  18.416   1.341  0.0117 -0.1754 -0.2193
26158W        W42292  16.057  14.777  11.929  0.0399  0.2833 -0.2534
26159W        W42293   0.683  16.442  13.829  0.1047  0.1660  0.0519
26160W        W42294  13.015  17.175  12.315  0.1211 -0.0074 -0.0860
26161W        W42295   1.398  13.955   0.100  0.0536  0.0592  0.2879
26162W        W42296   0.789   1.539  12.705 -0.1254 -0.3495 -0.0976
26163W        W42297  14.236  13.898   3.847 -0.0450 -0.0396 -0.3019
26164W        W42298  12.659  10.504   0.816 -0.5931  0.1696 -0.0615
26165W        W42299   4.170   4.235   4.983  0.2975 -0.1394  0.6498
26166W        W42300  16.826  13.093  10.664 -0.2693 -0.3492 -0.0315
26167W        W42301   2.239   4.206   1.490 -0.3222 -0.3122  0.1592
26168W        W42302  15.826  17.755   3.983 -0.1872 -0.1056 -0.0138
26169W        W42303  16.463   4.475   3.859  0.0620  0.0473  0.1301
26170W        W42304   8.563   5.478   3.634  0.0417  0.0132  0.0596
26171W        W42305  11.591  15.031   3.700 -0.2622  0.2225  0.2550
26172W        W42306   1.177   0.713   5.257  0.3017  0.1654  0.0500
26173W        W42307  14.346  18.481   2.901 -0.1180  0.2863 -0.2799
26174W        W42308  14.582  14.443   3.437 -0.1735 -0.0399 -0.2608
26175W        W42309   3.308  15.490  13.302 -0.6020  0.0082 -0.2054
26176W        W42310  14.646  14.949   0.348  0.0987 -0.1666  0.0057
26177W        W42311  18.838   5.101   3.613  0.2064 -0.3492 -0.2322
26178W        W42312  16.030  10.853   4.348 -0.0529  0.1019  0.0334
26179W        W42313   6.411   9.310  14.314  0.1362  0.2535 -0.1529
26180W        W42314  15.571  11.011  13.796  0.4603 -0.0763 -0.0401
26181W        W42315  17.470  15.526   9.773 -0.0080 -0.2824  0.1263
26182W        W42316   5.442   7.409  13.757  0.4689  0.0241 -0.0674
26183W        W42317  10.487  13.921   4.699 -0.1449  0.0033 -0.4152
26184W        W42318   0.811  18.562   1.808 -0.1438 -0.1488  0.1289
26185W        W42319  17.563   7.947   0.620 -0.0148 -0.0347  0.0368
26186W        W42320  10.994  18.219  11.219  0.2837  0.1088 -0.0581
26187W        W42321  14.896  12.344  14.899 -0.4373 -0.0354  0.1341
26188W        W42322   0.280  11.410  14.709  0.1025  0.1280 -0.0193
26189W        W42323  10.451  13.131  13.072  0.1745  0.0014  0.1640
26190W        W42324  16.227   1.732   5.089 -0.1527  0.1868  0.0975
26191W        W42325  14.232   4.382  10.781  0.1024  0.0557  0.0660
26192W        W42326   1.409   3.091   3.972 -0.2184  0.1196  0.4776
26193W        W42327  19.232   9.960  11.638  0.0137 -0.3182  0.4037
26194W        W42328  15.148  11.339   2.314 -0.1075  0.2210  0.2167
26195W        W42329   7.893   5.716   0.281  0.1707 -0.0734  0.0935
26196W        W42330   6.050   6.021  11.336  0.0838 -0.3836  0.0043
26197W        W42331  12.809  13.070  14.742  0.3293 -0.2226 -0.2019
26198W        W42332  15.877  18.188   1.909 -0.0826 -0.2492  0.1606
26199W        W42333   8.517   2.867  11.401  0.2000 -0.1881  0.2755
26200W        W42334  14.787  12.138  14.144  0.1234  0.0768 -0.0063
26201W        W42335   9.418  14.449   0.363  0.2539  0.2650  0.4229
26202W        W42336   2.570   4.759   0.534  0.1125  0.1147  0.1823
26203W        W42337  12.500  17.915  12.727  0.2997 -0.4247  0.1814
26204W        W42338  14.184  16.675  11.361 -0.0490  0.0843  0.1851
26205W        W42339  18.847  11.509   4.614 -0.0378  0.1563  0.0190
26206W        W42340  14.908   3.642  12.817 -0.0758 -0.1299  0.2095
26207W        W42341   8.471  17.574   2.049  0.4171 -0.0138 -0.0237
26208W        W42342   7.703  18.445   0.641  0.2707  0.1729  0.1504
26209W        W42343   0.250   4.074   3.794 -0.2894 -0.0611  0.0475
26210W        W42344   9.701  10.719  13.141 -0.1661  0.0011  0.0759
26211W        W42345   2.317  14.071  10.546  0.3000  0.0695  0.1658
26212W        W42346  15.563  18.748   4.112 -0.2919 -0.0542  0.0191
26213W        W42347  18.353  10.455   4.442 -0.5112 -0.0584  0.1063
26214W        W42348  11.326   7.328  11.352 -0.1414  0.0094 -0.1794
26215W        W42349  17.419   2.961  13.673  0.1318 -0.1260 -0.0385
26216W        W42350  12.607  13.535  12.477  0.1729  0.0043  0.0938
26217W        W42351   0.168  10.906  12.454 -0.0024 -0.0224 -0.0942
26218W        W42352  14.893  12.026   3.966 -0.0513 -0.4712  0.3333
26219W        W42353  14.713  15.990   0.237 -0.1242  0.0936  0.3900
26220W        W42354   2.738  17.660  12.722 -0.3575 -0.1814 -0.3494
26221W        W42355   4.084   0.584  14.088  0.1640  0.5368  0.1776
26222W        W42356  11.693   3.492   1.935 -0.0072  0.0152 -0.3413
26223W        W42357   4.459   1.379  12.091  0.0367  0.0847 -0.0384
26224W        W42358   6.264  12.053   9.713  0.1288  0.0610  0.1772
26225W        W42359  14.985   5.572   1.344  0.0677  0.0056 -0.1210
26226W        W42360  11.323   2.915   0.736 -0.2305 -0.0396  0.0624
26227W        W42361  10.212  14.985  12.486 -0.1499 -0.2348  0.2187
26228W        W42362   4.560   2.716   2.539  0.3438  0.2927  0.3388
26229W        W42363   7.944  13.179   4.489 -0.0070  0.1504 -0.1943
26230W        W42364   9.878  18.227   4.325  0.1274 -0.0354  0.2042
26231W        W42365   5.954   8.969  10.553  0.3613 -0.0190 -0.4145
26232W        W42366   8.084  18.539  12.746  0.2805  0.0561 -0.0607
26233W        W42367   1.843   4.843   4.581  0.1545  0.0814 -0.0379
26234W        W42368  13.516   7.319   2.165  0.1432 -0.2625  0.2245
26235W        W42369  14.570   3.075  13.813  0.4027  0.1384 -0.0360
26236W        W42370   5.143  13.538  11.014 -0.1799  0.0716 -0.0562
26237W        W42371  16.984   2.002  12.862 -0.0146  0.1027  0.1174
26238W        W42372  12.755   5.024   5.198 -0.1326 -0.0649  0.0968
26239W        W42373   9.590  17.094   5.531 -0.1152  0.0867  0.2644
26240W        W42374  17.804  12.292   3.644 -0.2190 -0.1060  0.1719
26241W        W42375  10.744   7.577  13.087  0.1967  0.1689  0.1040
26242W        W42376   6.651   7.673   0.100  0.2023 -0.2440 -0.2415
26243W        W42377   3.457   5.392  11.002 -0.2411  0.0408 -0.2618
26244W        W42378  18.605  11.589  11.518  0.0190  0.0338  0.2520
26245W        W42379  16.533   7.388   2.443  0.0521  0.1733  0.2457
26246W        W42380  18.952  14.284   4.975  0.0322  0.1617  0.1627
26247W        W42381   5.596  12.701  14.917  0.0699 -0.2618 -0.0138
26248W        W42382   5.937   8.390  14.576  0.0037  0.3040 -0.2707
26249W        W42383  19.202   5.780  10.633  0.0375  0.1129  0.1464
26250W        W42384   2.625  10.439   4.033 -0.0605  0.1032 -0.1000
26251W        W42385  13.185   1.894  11.926  0.1296  0.0202 -0.0920
26252W        W42386  15.326   1.626   1.908 -0.2467 -0.0105  0.0670
26253W        W42387   7.567  18.837   1.157  0.4187 -0.2519  0.1416
26254W        W42388  17.206   3.299  10.899 -0.0320 -0.1679 -0.2027
26255W        W42389  18.967   0.445   1.760  0.2071 -0.1064 -0.0604
26256W        W42390  10.126   8.687  11.581 -0.1492 -0.1451 -0.0781
26257W        W42391  10.059   9.070   4.348 -0.3511 -0.1300  0.1371
26258W        W42392  16.392   1.276   2.199  0.2026 -0.3370  0.2039
26259W        W42393   1.109   7.563   3.182  0.1581  0.1586 -0.2224
26260W        W42394   7.259   7.152  14.236  0.1328  0.1839  0.0579
26261W        W42395   5.707  10.456  14.605  0.0773 -0.0797  0.2106
26262W        W42396  15.336  11.144  11.550  0.1076 -0.0645  0.0601
26263W        W42397   5.835  11.672   3.961 -0.1050 -0.5106 -0.0434
26264W        W42398   5.478  16.187   3.152  0.1277 -0.0739 -0.3398
26265W        W42399   0.170   6.639   2.980  0.2614 -0.0588  0.2777
26266W        W42400   6.576  18.852   0.156  0.3339 -0.1292 -0.0230
26267W        W42401  12.492   2.691  13.903  0.3779  0.0027 -0.0181
26268W        W42402  18.555  10.808  13.597 -0.2953  0.0200  0.2065
26269W        W42403   2.071  11.613   5.652 -0.2636  0.0861 -0.2425
26270W        W42404  11.108   4.257  13.929 -0.2868 -0.1203  0.0233
26271W        W42405  19.227  10.729   1.961  0.0893  0.2577  0.2285
26272W        W42406  10.509   3.318   4.190  0.4002  0.0946 -0.1081
26273W        W42407  17.118  11.104  11.009 -0.0895 -0.1950  0.0204
26274W        W42408   0.341  18.148  14.444  0.3511  0.1274  0.0485
26275W        W42409  15.076  17.087  14.988 -0.0577 -0.0515  0.3275
26276W        W42410  17.226   9.969   3.554  0.1107 -0.2307 -0.1109
26277W        W42411  14.889   8.235  10.872  0.2324  0.1510 -0.1591
26278W        W42412   1.290  18.771   1.868 -0.1474  0.1307  0.0476
26279W        W42413  13.343  17.650  11.270 -0.0613  0.0436 -0.2175
26280W        W42414  13.501   9.670  12.254 -0.3717 -0.2357 -0.1770
26281W        W42415   5.518  11.088   0.772 -0.4773 -0.2514  0.1017
26282W        W42416   2.634   8.653   1.428 -0.0545  0.4561 -0.1530
26283W        W42417   0.481   8.574  14.428  0.3565 -0.0440 -0.2542
26284W        W42418  17.633  10.577   5.697  0.1254  0.1171  0.3939
26285W        W42419  17.609  13.745   0.364  0.0988 -0.2330 -0.2743
26286W        W42420  16.445  15.207   2.755 -0.1498 -0.0820 -0.4923
26287W        W42421  15.319  16.449  14.348  0.0879  0.1951  0.2129
26288W        W42422  18.987  18.798  12.066 -0.1004 -0.1661  0.3445
26289W        W42423   9.715  18.533   1.448 -0.3003 -0.0955 -0.2228
26290W        W42424  11.617   6.645   3.522 -0.1602 -0.0061 -0.1041
26291W        W42425   9.247  18.611   1.639  0.1506 -0.1113 -0.0622
26292W        W42426   5.940   5.349  14.097  0.0929 -0.1703  0.3696
26293W        W42427   1.740   6.300   3.801 -0.1083 -0.0982 -0.0570
26294W        W42428  11.364   6.507   2.064 -0.1510  0.2630  0.1650
26295W        W42429   4.249  18.536  14.461  0.2257  0.1869  0.0285
26296W        W42430  16.362  13.133   2.098  0.0461  0.1941  0.0739
26297W        W42431  11.524  18.992  10.183 -0.1528 -0.1842 -0.0179
26298W        W42432   0.651   2.208   1.220  0.2005 -0.4639  0.0385
26299W        W42433  11.113   7.055   4.570  0.3503  0.1463 -0.0689
26300W        W42434  13.423  17.059   0.263  0.3825 -0.1661  0.0607
26301W        W42435  18.164   8.629   9.745  0.0304  0.1683 -0.2560
26302W        W42436   0.457   2.929  14.037 -0.1271  0.0890 -0.0610
26303W        W42437  11.215   9.986   0.016  0.2405 -0.3092  0.0289
26304W        W42438   7.356   7.554  12.473  0.0228 -0.1244 -0.1766
26305W        W42439  15.246   8.027   5.465  0.0795  0.1358 -0.2101
26306W        W42440   1.071  12.695   2.231 -0.0448 -0.0258  0.0627
26307W        W42441   7.688   6.355   2.801  0.0510 -0.1017  0.0698
26308W        W42442   0.968   6.609   9.347  0.0594  0.1723  0.0760
26309W        W42443   7.754   9.920   0.446 -0.0931 -0.1050 -0.2498
26310W        W42444  16.026   2.997  10.910 -0.2869  0.0490 -0.1796
26311W        W42445   1.386  19.190  11.555 -0.6730  0.5065 -0.1671
26312W        W42446  13.475   1.558  11.261 -0.2558  0.2083  0.2709
26313W        W42447  15.650  16.848  11.401 -0.0844  0.1576  0.3377
26314W        W42448   1.427   1.757   3.629 -0.2451 -0.4377 -0.1482
26315W        W42449   0.007  16.720  13.184 -0.0566  0.0667  0.1812
26316W        W42450   8.247  14.416  11.737 -0.2502  0.1034  0.1155
26317W        W42451   6.407  13.640   2.674  0.2502  0.2745  0.0035
26318W        W42452  17.800  13.589   4.114 -0.0152  0.1316  0.2019
26319W        W42453  18.292  18.193   5.852 -0.1792  0.2025 -0.0057
26320W        W42454   1.501   4.995  11.180 -0.0806  0.2018  0.0873
26321W        W42455   6.509  18.042   2.311  0.0200 -0.0750  0.2043
26322W        W42456   6.766  12.162  11.336  0.1320  0.0459  0.0351
26323W        W42457   1.240  10.085  13.149  0.1095 -0.2887  0.1972
26324W        W42458  13.276   7.111   0.894 -0.0956 -0.3277 -0.3878
26325W        W42459   7.434   6.785   1.364 -0.0252 -0.1630 -0.2587
26326W        W42460   5.016  17.790   1.260 -0.2147 -0.0053 -0.0802
26327W        W42461   5.757  12.139   3.949 -0.1488 -0.1225 -0.0522
26328W        W42462   6.837   9.774  14.339  0.2111  0.3827  0.2815
26329W        W42463   0.664   4.810   3.763  0.2395 -0.2395 -0.3142
26330W        W42464   3.384  13.261   2.840  0.1161  0.2032 -0.2381
26331W        W42465   5.426   1.370  12.055 -0.3866 -0.0830 -0.0849
26332W        W42466   9.960   0.502  13.541  0.1617 -0.0704 -0.1172
26333W        W42467  16.752   7.127  11.135 -0.0303  0.0127 -0.0845
26334W        W42468   3.780  18.897   5.469 -0.0095 -0.2083 -0.0557
26335W        W42469   5.804  13.758  10.448  0.4091 -0.0778 -0.0612
26336W        W42470   6.888  12.454   1.938  0.1053  0.0255  0.1073
26337W        W42471  14.748   7.555   4.149  0.0893  0.1292  0.2380
26338W        W42472   5.633   9.183   2.337 -0.1947  0.1799 -0.1525
26339W        W42473  13.412  15.897   4.832 -0.0308 -0.1616  0.0485
26340W        W42474  11.552  11.611   0.673 -0.3016 -0.1223  0.0238
26341W        W42475  17.048  14.954   4.247  0.2257 -0.0224  0.1166
26342W        W42476  19.094   9.786  10.746  0.0048  0.0614 -0.1750
26343W        W42477   1.560  12.444   0.336  0.0204  0.0501 -0.1627
26344W        W42478  12.729  12.955  11.716  0.2637 -0.2292 -0.0129
26345W        W42479   6.430   1.821   4.160 -0.1198 -0.2799  0.0520
26346W        W42480  12.039  16.715  11.241  0.0945  0.2227 -0.4033
26347W        W42481   8.105   4.318   1.468 -0.1003  0.0574  0.2761
26348W        W42482   0.581  17.000   4.398  0.3442  0.0724  0.1737
26349W        W42483  13.042   0.171  11.445  0.0600  0.0001 -0.0307
26350W        W42484  17.924   2.463  12.350 -0.2443  0.5178  0.4609
26351W        W42485   8.675   8.460   4.377 -0.2268  0.0731 -0.0819
26352W        W42486   9.721   3.292  12.922  0.1214  0.1819 -0.0143
26353W        W42487   7.238  10.229  13.328 -0.0742  0.1213  0.0050
26354W        W42488   0.686   3.465  14.796  0.2378  0.1962  0.2328
26355W        W42489   7.823  13.414  13.798 -0.0094  0.1814  0.1146
26356W        W42490   8.896   7.478   2.229 -0.0538 -0.0802 -0.0186
26357W        W42491  15.169  14.171  12.363  0.2134  0.1176  0.3768
26358W        W42492  10.216   4.764  13.232  0.0667  0.0897  0.1278
26359W        W42493  18.877  15.285  10.687 -0.0446 -0.1353 -0.1821
26360W        W42494  14.241   7.377   2.640 -0.0463 -0.0080  0.1084
26361W        W42495  18.640  14.547  11.089  0.2830 -0.1396 -0.2688
26362W        W42496   0.809   0.823   1.519 -0.1159 -0.1093  0.0098
26363W        W42497  14.339  14.113   5.070  0.0725  0.1718  0.0466
26364W        W42498   4.322   8.108   2.430 -0.1713 -0.2414  0.0637
26365W        W42499  15.938  11.263  14.791  0.2007 -0.2314 -0.3488
26366W        W42500  17.273  16.311   4.393  0.0553  0.2703  0.0687
26367W        W42501   9.456  15.786  13.233  0.2223  0.1065  0.1405
26368W        W42502  15.807  16.007   4.355 -0.0964  0.0600  0.2266
26369W        W42503  18.414  12.221   3.557  0.3630 -0.1687 -0.0131
26370W        W42504   2.869   5.619   1.186 -0.0828 -0.1310 -0.2708
26371W        W42505  17.158  12.773  10.673  0.0036  0.3110 -0.2696
26372W        W42506   7.222   5.282  11.153 -0.1667  0.1977 -0.1881
26373W        W42507   7.005   8.524  11.681  0.0811  0.3100  0.0464
26374W        W42508   7.659  10.904   2.555  0.3034  0.1386 -0.2197
26375W        W42509   0.296   7.836  10.260  0.3750  0.3420  0.5594
26376W        W42510   5.720   9.760  14.562 -0.0601 -0.0049  0.0472
26377W        W42511   1.099   4.052   3.226 -0.0835  0.3486 -0.0321
26378W        W42512   0.123   8.789  13.708 -0.0723 -0.0651 -0.3349
26379W        W42513   1.272   9.648  12.326 -0.0745 -0.2048  0.2117
26380W        W42514   7.357  18.267   4.872 -0.2408  0.0665 -0.0438
26381W        W42515  10.057   0.491   8.996 -0.0103  0.0460  0.0292
26382W        W42516  16.947   5.210  14.774 -0.0825 -0.2495 -0.1059
26383W        W42517   2.946   1.271   5.751  0.0675 -0.0234 -0.0516
26384W        W42518   3.341  16.115   3.357 -0.2166 -0.1613  0.1980
26385W        W42519   3.106   5.085   4.054  0.0743 -0.1407 -0.0316
26386W        W42520  16.598   5.049  12.997 -0.0224  0.0132 -0.1487
26387W        W42521   4.938   8.380   4.241  0.1062  0.1478  0.0754
26388W        W42522  18.142   8.249  13.339  0.0214 -0.0659 -0.0052
26389W        W42523   0.747   4.204  10.457 -0.1231 -0.1653  0.1934
26390W        W42524   0.311  12.577  12.153 -0.2612  0.0755 -0.2529
26391W        W42525  19.028  18.836   9.581  0.2524 -0.1528  0.0288
26392W        W42526   9.518  15.923   4.117  0.3097 -0.3032 -0.1110
26393W        W42527  16.522   7.816   2.128  0.0907 -0.0042  0.2438
26394W        W42528   2.837  11.044   4.678 -0.0644 -0.0337  0.0300
26395W        W42529  18.075   4.287  14.864 -0.1978  0.0496  0.0775
26396W        W42530  13.774   1.967   5.199 -0.2349 -0.2538 -0.0114
26397W        W42531  14.511   4.908   2.864  0.1184 -0.0349 -0.0187
26398W        W42532   9.436   2.519  10.539 -0.0862 -0.1299  0.2341
26399W        W42533   8.762  15.156   0.083 -0.0547  0.1481  0.0107
26400W        W42534  17.111  13.151  13.189 -0.1372  0.2911 -0.1539
26401W        W42535   1.047   5.065  11.716 -0.2600  0.1664  0.0070
26402W        W42536   6.794   4.663  13.652  0.0004 -0.1644  0.1148
26403W        W42537  18.355  14.401   3.850  0.0275  0.4079 -0.1029
26404W        W42538   0.588   7.232  12.426  0.1645  0.2084  0.5040
26405W        W42539  18.190  14.360   4.786 -0.0594  0.3215  0.0415
26406W        W42540  18.561  17.452  10.223 -0.1737 -0.1079 -0.1943
26407W        W42541   7.370  17.775   2.676  0.2034 -0.1467 -0.1794
26408W        W42542  10.163   7.759   0.936 -0.0529 -0.0405 -0.1969
26409W        W42543  10.409   0.769  14.627 -0.1735 -0.3848  0.0636
26410W        W42544   5.803   5.168  11.679 -0.0762  0.2773  0.2315
26411W        W42545   5.738  14.788   4.062 -0.0655  0.0304 -0.0801
26412W        W42546  14.737  12.026  11.092  0.1074  0.0533  0.3216
26413W        W42547   3.210  16.637  12.911  0.1024  0.1896  0.0183
26414W        W42548   2.187   3.202   0.147  0.0856 -0.1919  0.0133
26415W        W42549  16.987   8.133  12.344  0.0654  0.2432 -0.0604
26416W        W42550  17.235  12.339  14.462 -0.0440 -0.0036  0.1461
26417W        W42551  16.652  12.835  14.734 -0.1863  0.0325  0.1170
26418W        W42552  12.965  13.688   3.897  0.0564 -0.4055  0.3870
26419W        W42553   5.141   5.262   0.428 -0.1826  0.1726  0.2059
26420W        W42554  16.640  13.364  13.882  0.0169 -0.0662  0.1177
26421W        W42555  18.634  10.448   2.609  0.0471  0.3107  0.2504
26422W        W42556  16.176   1.159  10.842 -0.0428  0.3426  0.0599
26423W        W42557  14.182   7.975  11.379 -0.2277  0.0106  0.2886
26424W        W42558  13.695  17.237   2.390 -0.1235  0.1353  0.0109
26425W        W42559  14.508  17.462   4.417 -0.1361 -0.1869  0.1766
26426W        W42560  16.463  16.911  11.115  0.1495 -0.4457 -0.0897
26427W        W42561  14.778   5.153   0.508  0.1376 -0.1328 -0.1929
26428W        W42562  12.412   6.785  12.120 -0.0258  0.1913 -0.0857
26429W        W42563   4.172   1.901   2.527  0.1603  0.2252 -0.0421
26430W        W42564   7.637  10.072  14.552 -0.1155  0.2141 -0.1905
26431W        W42565  11.190  14.972  11.124  0.5145  0.0385 -0.0030
26432W        W42566   4.377   4.220   3.809 -0.3310 -0.0644  0.1708
26433W        W42567   9.564   9.215  12.339  0.0839 -0.1683 -0.0177
26434W        W42568  10.313  15.779   1.323  0.0844 -0.0992  0.0716
26435W        W42569  18.962  17.538   2.291 -0.0146 -0.1695 -0.0227
26436W        W42570  14.164   6.318   0.982  0.0216  0.2111 -0.1523
26437W        W42571  15.095   8.578   0.055  0.2182  0.0559  0.0941
26438W        W42572   9.978   3.059   2.857  0.1067 -0.2467  0.1099
26439W        W42573   5.382   3.641   2.193 -0.1159  0.2287 -0.0330
26440W        W42574   5.789  16.932   9.791  0.0640  0.2893 -0.2224
26441W        W42575  12.326  13.649  14.355 -0.2587  0.2609 -0.1862
26442W        W42576  12.716  14.421  13.694 -0.2507 -0.1887  0.0080
26443W        W42577  14.651   4.324   5.495 -0.1259 -0.1719  0.2854
26444W        W42578   2.817   7.063  12.783  0.1802 -0.0190 -0.3528
26445W        W42579  18.213  18.054   3.433  0.1849  0.2344  0.2427
26446W        W42580   6.985  17.196   4.098  0.0496 -0.3708  0.0561
26447W        W42581  16.353  14.422  11.676  0.3127 -0.0552  0.1870
26448W        W42582   7.713   4.627   1.693  0.0832  0.0781  0.0543
26449W        W42583  17.933   6.951  14.674 -0.0694 -0.0945  0.0516
26450W        W42584   2.251   2.969  10.316  0.1477  0.1538 -0.0090
26451W        W42585  13.181  12.754  11.890 -0.1377 -0.3055 -0.0786
26452W        W42586   4.625  14.031  12.347  0.1740  0.1198 -0.2169
26453W        W42587  14.160   4.528   2.812 -0.0946 -0.1876 -0.1713
26454W        W42588  10.287   0.073   1.712  0.2324 -0.0849 -0.0161
26455W        W42589   1.477  16.285  13.305  0.3277  0.1321 -0.2224
26456W        W42590   7.764  17.901   0.472 -0.0061  0.1209  0.0106
26457W        W42591  11.691  13.459   5.305 -0.0193  0.2050  0.0497
26458W        W42592   8.155   4.579  10.760  0.0406 -0.0557 -0.0049
26459W        W42593   1.449   8.836  11.889 -0.2381 -0.0647 -0.0713
26460W        W42594   9.779   1.934   3.452 -0.0371  0.0240  0.0347
26461W        W42595   1.074  15.731  10.905 -0.1466 -0.0956 -0.1791
26462W        W42596  12.271  18.095  13.413  0.0190 -0.1244 -0.0683
26463W        W42597   2.292   1.753   2.917  0.1630  0.0381  0.1201
26464W        W42598   3.389  13.298   3.909  0.2717 -0.0617 -0.2186
26465W        W42599  11.594  10.869  11.311  0.0956 -0.2309  0.0587
26466W        W42600  11.753   8.868   2.926  0.1072 -0.0172  0.0809
26467W        W42601   6.058  15.271   3.675  0.0999  0.3367  0.2022
26468W        W42602  11.620   6.412  13.605  0.4090  0.0119 -0.0296
26469W        W42603  18.792  10.572   4.048  0.0269  0.1156 -0.3926
26470W        W42604  12.321   3.324   0.241  0.1650  0.1356  0.5527
26471W        W42605   4.343  14.631  13.186 -0.2858 -0.3712 -0.0927
26472W        W42606   0.799  10.540   2.320  0.2744 -0.2038 -0.1047
26473W        W42607   2.662   6.210  12.645 -0.3584 -0.1190  0.0275
26474W        W42608   4.049   3.017   3.992 -0.0919  0.0254  0.0770
26475W        W42609  12.803  14.828   2.962 -0.1563  0.4359 -0.1976
26476W        W42610   4.908  11.047   1.168  0.4463 -0.0886  0.2725
26477W        W42611   5.750  16.536  14.875  0.0862  0.1141 -0.0845
26478W        W42612   5.308   0.721  14.794  0.1442 -0.1970  0.1089
26479W        W42613  16.726  14.864  13.525 -0.1861  0.1767 -0.0416
26480W        W42614   7.793  16.488  11.823 -0.2538 -0.0230 -0.0434
26481W        W42615  12.017  14.859  12.041  0.0402  0.0624 -0.3018
26482W        W42616  11.455   7.753   1.607 -0.1471  0.2410  0.1073
26483W        W42617   7.835   2.717   0.164 -0.0321  0.6075 -0.3351
26484W        W42618  15.223   1.265  10.623 -0.2636 -0.2159 -0.0239
26485W        W42619   8.770   3.346  11.458  0.0338  0.5029 -0.0110
26486W        W42620  12.815   1.433  13.607  0.0144  0.1936 -0.2373
26487W        W42621   2.817  11.228   3.771 -0.0329  0.1417 -0.2068
26488W        W42622  15.992  18.218  13.564 -0.0167  0.0510  0.0664
26489W        W42623   4.937   7.631   1.217 -0.0648 -0.1216  0.1525
26490W        W42624  15.724   2.425  12.327  0.0877  0.0861 -0.0199
26491W        W42625  15.391  18.045   1.931 -0.0955  0.2470 -0.0654
26492W        W42626   9.366  16.981   5.109  0.2833  0.0407 -0.2044
26493W        W42627   6.214   4.363  14.915 -0.2399 -0.0538 -0.2582
26494W        W42628  16.750  17.542   2.683  0.0925  0.0042 -0.1461
26495W        W42629  10.963  10.539   0.935  0.1574  0.1327  0.3530
26496W        W42630   8.893   8.256   1.876  0.0135  0.1498  0.1632
26497W        W42631  16.787  14.847  11.479 -0.2785 -0.0372 -0.2683
26498W        W42632  18.063   2.466   1.224 -0.1148 -0.1690  0.2141
26499W        W42633   0.577   6.683  11.018 -0.1531 -0.2308 -0.0346
26500W        W42634   1.473  13.415  13.965  0.1645  0.2170  0.0854
26501W        W42635  17.452   4.295   0.564 -0.0511  0.0256  0.0406
26502W        W42636  14.314   6.083   3.969  0.1823  0.2433 -0.0588
26503W        W42637   4.864  14.037  12.812  0.4168  0.2380  0.1780
26504W        W42638  13.135   0.477   0.060 -0.1064  0.1449 -0.0963
26505W        W42639  18.173  16.000  12.865  0.0675 -0.1102 -0.1234
26506W        W42640   1.071   7.392  15.005 -0.0923 -0.5397 -0.2299
26507W        W42641   8.965   6.972  11.656  0.2486  0.0206  0.3549
26508W        W42642  17.112  13.535  11.086  0.1531 -0.3377 -0.4213
26509W        W42643   3.699   8.987  10.003  0.1610 -0.1182  0.0366
26510W        W42644  11.338   3.315  11.873  0.0102  0.0329  0.2237
26511W        W42645   8.176  13.671   2.195 -0.0232  0.2005  0.0825
26512W        W42646   5.094  14.075  11.076  0.2310 -0.0430 -0.0469
26513W        W42647   1.088   1.135  12.455  0.2683  0.3204  0.0513
26514W        W42648  12.151   5.937   9.454 -0.2177 -0.0851 -0.1038
26515W        W42649  11.388  13.917   1.804 -0.1274 -0.2678 -0.1909
26516W        W42650   5.760  13.782  12.605  0.0176 -0.1798  0.0933
26517W        W42651   4.312  18.048   0.727 -0.0828 -0.1525 -0.3243
26518W        W42652  13.481   7.759  13.371  0.2308  0.0328  0.1118
26519W        W42653  17.021  14.620  10.748  0.2071  0.1145 -0.0834
26520W        W42654   6.896   0.536   4.564  0.0636 -0.1204  0.3163
26521W        W42655   0.309  13.304  11.645  0.0540  0.1145  0.1017
26522W        W42656   9.464   4.773  14.376 -0.1391 -0.2040  0.2863
26523W        W42657   9.040   2.931   4.215 -0.0930  0.0974  0.3069
26524W        W42658  18.420  18.556  14.576 -0.1582 -0.0700  0.0644
26525W        W42659  18.771   3.034   1.099  0.0567 -0.0947  0.0960
26526W        W42660   3.872  13.965   0.199  0.1185  0.4440 -0.0375
26527W        W42661  14.716   0.230   3.063 -0.0420 -0.0591  0.1305
26528W        W42662   0.267  11.803   3.771 -0.0940 -0.0978  0.1020
26529W        W42663   3.745   5.594   1.909  0.3107 -0.0380 -0.2124
26530W        W42664   3.079   9.927  14.926  0.0912 -0.0419 -0.1667
26531W        W42665   8.436   4.257   0.817  0.1357 -0.1182  0.1546
26532W        W42666   9.948   5.651   3.766 -0.2947  0.1333  0.3335
26533W        W42667   0.563   9.351  13.351 -0.1482  0.0780  0.1242
26534W        W42668  15.737  14.619  13.017 -0.2890  0.1576  0.1732
26535W        W42669   0.171   0.203  10.444 -0.1832 -0.1588  0.1389
26536W        W42670   6.891   2.521  11.592 -0.0024 -0.4002  0.1561
26537W        W42671  15.317   7.502  13.028 -0.2224 -0.0835  0.3499
26538W        W42672  16.231   4.129  13.403 -0.1339 -0.0007  0.0714
26539W        W42673  11.154   3.739   4.948 -0.3700  0.1010 -0.1496
26540W        W42674   9.245   8.194   2.246 -0.0589  0.4835 -0.1347
26541W        W42675   7.789   5.393   4.072  0.1364 -0.1174 -0.0756
26542W        W42676   2.958   1.415   1.441 -0.0626  0.3616 -0.1975
26543W        W42677  10.956   3.470   1.406  0.0690  0.0839  0.4784
26544W        W42678  13.796  17.099   4.244  0.0388  0.0073 -0.1313
26545W        W42679   7.324  11.006  11.497 -0.0033 -0.1544  0.0729
26546W        W42680  11.280  14.917   1.440 -0.0931 -0.1675  0.0323
26547W        W42681  18.683   7.853  14.106  0.0633 -0.2668 -0.2739
26548W        W42682   4.290   2.643  11.032 -0.0762  0.0088  0.0281
26549W        W42683   3.430   8.603   0.735  0.0305  0.3751 -0.1096
26550W        W42684   8.862  19.129  11.022 -0.0566  0.0388  0.2021
26551W        W42685  12.161   6.361   5.375  0.1922 -0.1434  0.6428
26552W        W42686  14.459   3.164   0.432  0.3366 -0.1791  0.3532
26553W        W42687   2.205  12.736  12.912 -0.3072  0.1078 -0.0201
26554W        W42688  13.461  18.843  13.594 -0.0080 -0.1366 -0.1576
26555W        W42689  17.692   3.391   4.617 -0.2476 -0.0116 -0.2913
26556W        W42690  17.082  16.470   0.939 -0.1099  0.1807  0.0322
26557W        W42691  14.189   8.933   2.019 -0.0759 -0.2822  0.0871
26558W        W42692   4.381   6.985   0.743  0.0109 -0.0699 -0.0521
26559W        W42693   2.413   5.823  13.645  0.0974 -0.2876 -0.0652
26560W        W42694   4.080   3.431   3.561  0.1869 -0.0352  0.1037
26561W        W42695  13.110  18.714  13.162  0.3001  0.6220  0.1625
26562W        W42696  14.021   5.569   0.034  0.2071  0.2687 -0.2050
26563W        W42697  16.505   6.938   2.585  0.2840 -0.1157 -0.0583
26564W        W42698  14.080  15.051   2.590  0.4545 -0.1148  0.0609
26565W        W42699  12.675   4.049   0.492  0.1875 -0.4506 -0.2352
26566W        W42700   7.437  10.604   2.231 -0.2441 -0.0512  0.3692
26567W        W42701  12.973  16.154   3.930  0.0389 -0.0753 -0.2165
26568W        W42702  12.092   2.658  11.959  0.1393 -0.3013 -0.0961
26569W        W42703  11.223   4.969  14.479  0.1119 -0.0610 -0.1977
26570W        W42704  15.489   3.180  13.957  0.0437 -0.0582 -0.1608
26571W        W42705   1.152  13.965   2.418  0.1296  0.2885 -0.0321
26572W        W42706   9.669  13.366   2.749  0.1725 -0.2885 -0.0790
26573W        W42707   3.684   2.276   0.230  0.0370 -0.1040  0.0759
26574W        W42708   4.703   7.808  14.924  0.1940 -0.2074 -0.3633
26575W        W42709  10.839  15.810   1.083  0.3551 -0.1367 -0.1141
26576W        W42710   3.861  14.796  13.302  0.2383  0.0224  0.0086
26577W        W42711   3.112  14.815   5.295 -0.2110 -0.0290 -0.1334
26578W        W42712  10.993   7.548  12.237  0.0071 -0.0253  0.0175
26579W        W42713  11.501   2.532  11.283 -0.0250  0.0632 -0.2174
26580W        W42714   3.182  17.447  14.452 -0.0882 -0.2407 -0.0577
26581W        W42715  14.094  17.620   1.590  0.1613  0.1136  0.1052
26582W        W42716   4.100  11.990   0.774  0.3090  0.2850  0.3005
26583W        W42717  14.070  13.036   3.960 -0.1275 -0.3992  0.1816
26584W        W42718  14.938   4.689  11.016 -0.1339 -0.0847  0.2389
26585W        W42719  10.728   0.506   4.129 -0.3581  0.1952 -0.1659
26586W        W42720  17.899   9.111  13.577  0.2002 -0.0992 -0.0691
26587W        W42721  11.246   0.298  11.009  0.1474 -0.0570 -0.0614
26588W        W42722  19.137   4.872  13.187 -0.1677  0.1037 -0.0460
26589W        W42723  12.640   1.532   4.327 -0.1686 -0.0051  0.1649
26590W        W42724  11.421  11.726  14.672 -0.1066 -0.3004  0.0420
26591W        W42725  14.120   0.810  13.766  0.1897 -0.1613 -0.2227
26592W        W42726   5.165  18.271   0.549  0.0007 -0.1378 -0.1676
26593W        W42727   5.750  10.599   2.157  0.0530 -0.0233  0.2692
26594W        W42728   1.915   9.326  11.148 -0.4066 -0.1105 -0.2710
26595W        W42729   1.135  16.763   1.605  0.3753  0.0027 -0.1936
26596W        W42730   4.827  16.130   0.753  0.1510 -0.0146 -0.0631
26597W        W42731   5.164   7.334  12.786 -0.2342 -0.2772 -0.2020
26598W        W42732   1.110  10.706  14.125 -0.1147  0.0019  0.1665
26599W        W42733   4.852   9.048  12.408  0.3145  0.1260  0.1166
26600W        W42734  18.902   3.564   3.795 -0.2009 -0.2444 -0.1034
26601W        W42735  13.325   2.441  11.182  0.0455  0.0589  0.0367
26602W        W42736  19.039   6.021  14.420 -0.2464 -0.0311  0.1715
26603W        W42737   7.893   7.056   9.875 -0.1781 -0.1463  0.3551
26604W        W42738  16.403  10.241   4.347 -0.2965 -0.0615 -0.1309
26605W        W42739   1.268  15.208   5.163  0.2208  0.0932  0.1390
26606W        W42740   5.845   5.006  13.226 -0.2808  0.1564 -0.0178
26607W        W42741   6.122  14.199   5.489  0.1332  0.2599 -0.4128
26608W        W42742  18.545   0.249  11.105  0.2173 -0.0996  0.0499
26609W        W42743   1.225  14.924   4.201  0.2001 -0.1921 -0.2641
26610W        W42744  18.779  12.352   2.908  0.1012 -0.2351  0.2103
26611W        W42745   2.739  13.998   2.540 -0.0705 -0.0196 -0.6466
26612W        W42746  10.975   5.039  13.612  0.1279  0.0257 -0.1036
26613W        W42747  17.404  15.726   1.700 -0.1921 -0.3605  0.0399
26614W        W42748  12.922   7.835  13.161 -0.0814  0.0699 -0.0681
26615W        W42749   3.654   0.446   0.918  0.2586 -0.4662  0.0705
26616W        W42750   3.531   3.993   1.926 -0.0899 -0.1738  0.1191
26617W        W42751  16.730  16.053   3.954  0.0037  0.0557 -0.3419
26618W        W42752  11.760   4.762  11.297 -0.2571  0.0680 -0.2352
26619W        W42753   9.798   4.693   2.576  0.1000  0.0174  0.3225
26620W        W42754  13.886   3.730  12.496  0.1144 -0.0076 -0.0808
26621W        W42755  10.748  13.047   1.428  0.1588 -0.1752 -0.4424
26622W        W42756   2.924  15.949   1.687 -0.2129 -0.0166  0.0038
26623W        W42757  13.360   3.976   1.129  0.2366  0.0222 -0.0834
26624W        W42758   9.113   1.706   4.816 -0.1296  0.1256 -0.1250
26625W        W42759   0.185  14.621  14.708 -0.2742 -0.2676  0.0624
26626W        W42760   8.098  14.598  12.567 -0.0467 -0.0424 -0.0588
26627W        W42761  13.031  17.983  11.787  0.0166  0.2396 -0.1801
26628W        W42762   8.049  13.798  14.576 -0.0917  0.0860  0.1187
26629W        W42763  18.986  17.751  13.813  0.0793  0.1687  0.2101
26630W        W42764   2.614   7.188  10.937 -0.0444  0.0800  0.4501
26631W        W42765  14.663   7.336   2.878  0.2504  0.0884 -0.2313
26632W        W42766   9.050   6.794   1.026 -0.1488  0.0314 -0.1360
26633W        W42767  14.310  13.211  12.987  0.0333 -0.0643 -0.0906
26634W        W42768   9.296  18.834   3.249 -0.1946  0.1126 -0.1173
26635W        W42769   6.565   9.710   3.618 -0.0326  0.0082 -0.1580
26636W        W42770  17.597  16.410   3.703  0.1637  0.2388 -0.2637
26637W        W42771  16.909   9.259   2.130  0.1679 -0.2086 -0.0212
26638W        W42772   6.195   5.996   0.485  0.2259  0.0695  0.0930
26639W        W42773  14.367   0.661   2.794  0.0016  0.1000  0.0717
26640W        W42774   3.750   6.725   4.490  0.1775 -0.1768 -0.3203
26641W        W42775  16.058   3.368  11.218 -0.4322  0.1163  0.0338
26642W        W42776   8.889  12.757  13.531 -0.1252  0.0151  0.0758
26643W        W42777  12.269   4.864  11.642 -0.0461  0.0291 -0.2076
26644W        W42778  15.606  12.365  13.743 -0.3770  0.0927  0.1507
26645W        W42779   2.323  13.758   1.913  0.1104  0.1981  0.4838
26646W        W42780  14.580  15.026  11.592 -0.1375 -0.0061 -0.1728
26647W        W42781   8.787   4.157  13.877 -0.1971  0.2104  0.1437
26648W        W42782   8.361   8.515   2.828  0.2387  0.0737 -0.0103
26649W        W42783  15.317   1.140   4.520  0.0018  0.2189  0.1077
26650W        W42784  17.580   1.942   0.149  0.0769  0.0272  0.2040
26651W        W42785  13.968   1.963  12.970 -0.2241  0.0940  0.1251
26652W        W42786   7.021  12.527   1.467  0.0078  0.2456 -0.4002
26653W        W42787  14.867  14.152   1.887  0.1552  0.1429 -0.0774
26654W        W42788  14.908   3.479   3.993 -0.1010 -0.0092  0.0948
26655W        W42789   6.059   7.577  10.166 -0.1147 -0.2840 -0.3082
26656W        W42790   1.507  10.017   4.389 -0.2346  0.0611 -0.1350
26657W        W42791  18.819  16.820  12.440  0.1446 -0.3104 -0.1837
26658W        W42792  17.750  18.925  13.440  0.0146  0.0010  0.1967
26659W        W42793  14.482   8.755  14.277 -0.1572 -0.0080  0.3906
26660W        W42794  15.559  18.010   2.403  0.0329  0.0122  0.4428
26661W        W42795  13.414  11.794   0.642  0.1015  0.1817 -0.2058
26662W        W42796  15.608  14.060   3.644 -0.0973 -0.2272  0.3413
26663W        W42797  18.669  16.884   1.212 -0.0812  0.1532  0.0824
26664W        W42798  17.049  12.803  11.505  0.0760  0.0100 -0.2326
26665W        W42799  13.647   7.380  12.035  0.2405 -0.1032 -0.5458
26666W        W42800   9.686  16.133   2.150  0.0258 -0.0146 -0.1691
26667W        W42801   3.175  15.317   5.361  0.0148 -0.2847 -0.1201
26668W        W42802  17.410  11.250   2.558  0.4482 -0.2559  0.0195
26669W        W42803   2.262   8.495   0.662 -0.1459  0.0062 -0.0655
26670W        W42804  13.864   1.181   0.182 -0.2216 -0.1301  0.1443
26671W        W42805   3.177   4.412   3.414 -0.0583 -0.0891  0.1011
26672W        W42806   4.833   7.314   3.513 -0.1172 -0.3188 -0.3524
26673W        W42807  13.717  11.925   3.287  0.0772 -0.3277 -0.2693
26674W        W42808   9.063   8.788  12.664  0.1131 -0.2191 -0.2147
26675W        W42809   3.687  19.049  11.527  0.0426  0.1617 -0.0073
26676W        W42810   1.747   1.545   5.129  0.0001  0.1454  0.2442
26677W        W42811  10.072   9.430   2.195  0.2439 -0.0924 -0.0255
26678W        W42812  19.028  12.944  15.023 -0.2039 -0.0555  0.3953
26679W        W42813   0.543  11.235   9.406 -0.2568  0.1123  0.2930
26680W        W42814   8.841   4.846   4.236  0.3404 -0.3218  0.2535
26681W        W42815   0.221   5.393   0.887 -0.1359  0.2799  0.3487
26682W        W42816   8.762   7.935  12.663 -0.2664 -0.2694  0.1523
26683W        W42817  13.853   4.237  13.413  0.1822 -0.1473 -0.1058
26684W        W42818  15.894  12.896  11.442  0.1650  0.1154 -0.1291
26685W        W42819  14.932   6.230   2.331 -0.1236  0.1915 -0.1103
26686W        W42820  19.000  13.958   4.525 -0.0866 -0.2478 -0.1000
26687W        W42821  17.090   9.160   3.776  0.3832  0.2069 -0.3507
26688W        W42822  12.984  11.555   5.079  0.0910 -0.0805 -0.4004
26689W        W42823   8.083  14.361  13.403 -0.1502  0.1079  0.0128
26690W        W42824   0.040   8.692  10.613 -0.0069  0.0964 -0.1385
26691W        W42825  18.462   4.322  14.489  0.0938  0.1474 -0.2556
26692W        W42826   3.302   6.710  13.049  0.0104  0.0956 -0.0233
26693W        W42827   2.800   0.214  10.236  0.2157 -0.0546  0.1652
26694W        W42828   8.930  18.054   3.778 -0.2530  0.2183  0.1979
26695W        W42829  18.640   4.110  13.084 -0.0501  0.4250  0.0877
26696W        W42830   5.364   5.958  11.603 -0.0140  0.0040 -0.3250
26697W        W42831   6.003  16.766   4.988 -0.0491  0.1535  0.3104
26698W        W42832   1.695  15.559   1.508 -0.0446 -0.1509 -0.1160
26699W        W42833   0.019  14.630   5.022 -0.1639 -0.0119  0.0976
26700W        W42834  10.830   5.066  12.621 -0.2315 -0.0634  0.1936
26701W        W42835  14.476   1.832  12.800  0.1985 -0.4347  0.0910
26702W        W42836  18.200   2.376  10.936 -0.1912 -0.4410  0.1663
26703W        W42837   4.344   6.707   2.866  0.2974 -0.1862  0.1041
26704W        W42838   0.500   6.972  10.122  0.0259 -0.1621 -0.0654
26705W        W42839  10.420   8.593  12.652  0.1374 -0.2004  0.0499
26706W        W42840  10.377   7.196  11.859 -0.0859  0.0441  0.1279
26707W        W42841  16.414  19.088   1.151  0.3153 -0.1557 -0.0091
26708W        W42842  15.583  12.694   1.253 -0.4765  0.2749  0.0671
26709W        W42843  15.246   6.909   3.641  0.0812  0.3274 -0.1574
26710W        W42844   5.220  11.582  10.595 -0.0385 -0.1737  0.2610
26711W        W42845  14.801   5.552  10.497 -0.0102  0.1529 -0.2001
26712W        W42846   0.598   0.965  12.409  0.1899  0.1045  0.0886
26713W        W42847  14.330  15.011   6.046 -0.2406 -0.1479 -0.1724
26714W        W42848  10.260  11.383  10.961 -0.3625  0.1411  0.0397
26715W        W42849  12.227   7.304  13.193  0.2133  0.1454 -0.1810
26716W        W42850   0.173  11.479   4.649 -0.1983 -0.0846 -0.0087
26717W        W42851   5.346   6.832  10.424  0.1000 -0.2204 -0.0329
26718W        W42852  18.543   6.484  13.514  0.0505  0.4319 -0.1010
26719W        W42853   3.924   1.990  10.524 -0.2783  0.1804  0.0563
26720W        W42854   7.772   1.357   5.449 -0.1371  0.1986 -0.0785
26721W        W42855   2.392   6.944   3.341  0.0249 -0.1194 -0.2053
26722W        W42856   2.352  13.823   4.691 -0.2232 -0.2334 -0.2920
26723W        W42857  12.251  14.640   5.464 -0.0714  0.1534 -0.4274
26724W        W42858   7.343  18.678  13.421 -0.0702  0.0206  0.2898
26725W        W42859   7.758  15.485  12.603 -0.0245  0.2123  0.4691
26726W        W42860   8.891  17.224  12.396  0.3361  0.0957 -0.0231
26727W        W42861  17.251   6.731  12.182 -0.2339  0.2261  0.2525
26728W        W42862  17.375   8.626  10.914  0.0052 -0.2530  0.1328
26729W        W42863   8.540  12.401  13.416  0.0935 -0.0384  0.0665
26730W        W42864   2.068   7.771   4.448  0.0319 -0.0669  0.2664
26731W        W42865  18.342   9.189   4.701 -0.0082  0.0027 -0.0025
26732W        W42866   5.699  16.689  11.755 -0.0557 -0.2412  0.0769
26733W        W42867  12.324   6.108  10.858  0.0481  0.2422  0.1523
26734W        W42868  13.690  15.491  12.638  0.2048  0.3822  0.4181
26735W        W42869   2.460   9.464  14.399  0.0536 -0.1122 -0.0759
26736W        W42870   5.148  10.383   4.860 -0.2389  0.1648 -0.1151
26737W        W42871  13.839  12.132  14.003 -0.0254  0.3670 -0.5368
26738W        W42872  14.530   9.146  13.464  0.0244 -0.0831  0.3677
26739W        W42873   0.495  11.929   2.372 -0.0249 -0.2240 -0.3277
26740W        W42874  17.059  12.026   2.261  0.1999  0.1429 -0.0297
26741W        W42875  16.241  14.648   0.126  0.1009  0.1513  0.2253
26742W        W42876   1.637   2.624  14.672 -0.1943 -0.0468  0.0135
26743W        W42877   9.250   1.572  11.304 -0.0937 -0.2210 -0.2133
26744W        W42878   7.425  17.935  12.872  0.0432  0.0486  0.0957
26745W        W42879  15.529   2.107   2.010  0.0971 -0.0077  0.2470
26746W        W42880   5.584  10.468   1.699  0.2764 -0.0394 -0.1513
26747W        W42881  10.282  14.306  10.692  0.0610  0.0277 -0.2498
26748W        W42882   7.157   5.987   4.155  0.0367  0.0137  0.1433
26749W        W42883   7.485   9.040  13.648 -0.1867  0.1520  0.2252
26750W        W42884   9.581  14.951  14.698 -0.2238 -0.0700  0.2051
26751W        W42885   1.879  16.118   3.456 -0.1691 -0.1767 -0.0748
26752W        W42886  10.708   8.367   0.361 -0.0521  0.3512 -0.1464
26753W        W42887  19.101   4.403  12.974 -0.0590  0.0774  0.0281
26754W        W42888   0.027   0.054   3.625  0.2613 -0.3419  0.1650
26755W        W42889   5.943   9.741  13.596  0.1014 -0.1453  0.0638
26756W        W42890   3.696  11.308  11.328  0.1869 -0.0686 -0.0009
26757W        W42891  11.724   6.297   4.773  0.0710 -0.0301  0.1855
26758W        W42892  18.670   6.445  13.069 -0.1388  0.0631 -0.1080
26759W        W42893  15.996   5.325  11.426  0.1540 -0.2086 -0.0220
26760W        W42894  15.515   6.604   0.731 -0.2212 -0.2453  0.1782
26761W        W42895   3.504   2.478   2.684 -0.0352  0.0509  0.0500
26762W        W42896   7.783   4.471   3.733  0.2147  0.1314  0.0273
26763W        W42897  18.413   7.344   0.273  0.1097 -0.1501  0.2595
26764W        W42898  15.315   7.474   3.419  0.0526  0.2911 -0.0018
26765W        W42899  12.325   0.419   4.053 -0.1535 -0.0802 -0.2658
26766W        W42900  18.092   7.127   5.899 -0.3076 -0.0944 -0.3501
26767W        W42901   6.409  18.167   0.919  0.2946 -0.0528  0.0658
26768W        W42902   1.689  16.352   2.559 -0.1508 -0.0597  0.0384
26769W        W42903   2.530   8.784  14.195  0.1647  0.4365  0.0321
26770W        W42904  17.510   9.433   3.843 -0.0564  0.0177 -0.2145
26771W        W42905   9.826   0.217   4.689  0.0791 -0.2224  0.0396
26772W        W42906  18.078  16.839   2.499 -0.1203 -0.0588  0.0294
26773W        W42907  15.014  13.534   1.322  0.1651  0.0431 -0.0027
26774W        W42908   5.290   4.230  11.355 -0.0250 -0.1185 -0.2961
26775W        W42909  17.630   4.616  10.084 -0.0908 -0.2726  0.1200
26776W        W42910   1.392   6.010  11.486 -0.1686  0.0584 -0.0691
26777W        W42911  14.396  14.065  11.863  0.0138  0.1723  0.2153
26778W        W42912  12.346  16.037   5.082  0.0355  0.1549  0.0405
26779W        W42913   7.780   8.820  14.502 -0.0391  0.3073  0.1374
26780W        W42914   5.431   7.821  14.230  0.0707 -0.1731 -0.0923
26781W        W42915   1.050   8.339   2.879 -0.2164  0.2249  0.0989
26782W        W42916   6.956   4.400   4.896 -0.4598 -0.1179 -0.0818
26783W        W42917  11.648   1.926   0.948 -0.1303 -0.1504  0.0279
26784W        W42918  12.186  12.986   3.192 -0.1395 -0.1006 -0.0435
26785W        W42919   7.143   0.633  14.243  0.0781 -0.1028  0.3639
26786W        W42920  18.017  12.273   0.755 -0.1161  0.0578  0.0474
26787W        W42921   0.776   6.423   3.820 -0.1790 -0.1857 -0.0498
26788W        W42922  14.295  17.355  11.726 -0.3245  0.3134  0.3310
26789W        W42923  18.101  12.871   3.343  0.0820  0.3058  0.5172
26790W        W42924   5.497   3.845  10.626 -0.0210 -0.0463  0.1144
26791W        W42925   9.355  11.100  11.018  0.0251  0.0355  0.3595
26792W        W42926  17.756   2.818  14.295 -0.3626  0.0064 -0.0171
26793W        W42927  13.237   2.423  11.719  0.0291  0.0357  0.0662
26794W        W42928   7.714   2.204   3.308  0.3584  0.1012 -0.2829
26795W        W42929   0.799  16.379   1.573  0.2320  0.1512 -0.0826
26796W        W42930   9.533  17.771   4.970 -0.1644 -0.2354 -0.1496
26797W        W42931   1.921  16.353  14.475  0.0091  0.0367  0.0634
26798W        W42932   2.346   1.782  12.319 -0.1119  0.0110  0.1399
26799W        W42933  12.749   9.604  14.605 -0.1700  0.1196 -0.0683
26800W        W42934   0.376  12.436   9.671 -0.0032 -0.0412 -0.2141
26801W        W42935  15.651  10.286  12.334  0.2100 -0.1557 -0.0736
26802W        W42936  14.513   6.222   2.072 -0.0640 -0.1309  0.0844
26803W        W42937   0.900  12.537   4.841 -0.2827 -0.0969 -0.0323
26804W        W42938  16.970   5.382  10.424 -0.0510  0.5029  0.1162
26805W        W42939   2.983   6.832   2.551  0.0673  0.1486  0.1006
26806W        W42940  16.288   1.222   4.981 -0.1076 -0.1293 -0.2941
26807W        W42941   9.975  13.497   3.152 -0.2244  0.4533  0.2027
26808W        W42942  13.402  14.612   4.509  0.0518 -0.1524  0.0963
26809W        W42943  16.483   6.335   1.850 -0.0990 -0.2964  0.0293
26810W        W42944   3.365  13.752   4.845 -0.3869  0.1575  0.0546
26811W        W42945   5.512   9.665   2.311 -0.2034  0.1502 -0.0777
26812W        W42946   1.240   3.208   1.904  0.1822 -0.0732  0.1968
26813W        W42947   4.851   1.102  14.298  0.0156  0.0348  0.2471
26814W        W42948  12.463  15.278   1.677 -0.2466  0.1015 -0.2315
26815W        W42949   2.586   6.410  10.777  0.1040  0.0249 -0.0980
26816W        W42950   5.788   2.758   1.660 -0.1869  0.1872 -0.0670
26817W        W42951   3.360  14.015  10.739  0.0966 -0.0072  0.3493
26818W        W42952   1.365  14.181   0.808  0.3834  0.3490  0.2230
26819W        W42953   5.831   2.898  14.352  0.0393 -0.0749  0.2379
26820W        W42954   7.305  16.578   9.840 -0.0611 -0.0251 -0.0341
26821W        W42955   3.544  16.217   4.335  0.3075  0.0386  0.1690
26822W        W42956   2.416   2.721  11.348 -0.2550 -0.2052  0.0739
26823W        W42957   0.492   4.787   5.560 -0.0709 -0.0652  0.2078
26824W        W42958  10.136   4.001   3.550  0.0105  0.2562  0.5365
26825W        W42959  10.036  15.694  11.800  0.0105  0.3023 -0.0255
26826W        W42960  15.778  12.959   0.432 -0.0220  0.0615  0.0775
26827W        W42961  19.233  11.165   3.352 -0.0430  0.0234  0.4766
26828W        W42962  11.641   6.927  13.562  0.2098  0.2214  0.1605
26829W        W42963  10.018   0.694  10.681 -0.0841  0.1674 -0.0667
26830W        W42964   5.686  15.098   4.443  0.0145  0.2957 -0.1701
26831W        W42965  15.659  15.670   2.730 -0.2380  0.1196  0.0988
26832W        W42966   7.241  10.153   3.045  0.2477  0.0337  0.3596
26833W        W42967  14.861   3.205   0.108  0.2837  0.1930 -0.1891
26834W        W42968   0.015   5.710  11.602 -0.1492  0.2030 -0.1770
26835W        W42969   7.069   6.315  14.928 -0.2704 -0.2294  0.0841
26836W        W42970   9.228  19.217   2.163  0.1308  0.1285  0.5794
26837W        W42971  19.232   1.325   3.364 -0.0598 -0.0084  0.0084
26838W        W42972   2.953   0.223   1.927  0.1241 -0.1554 -0.0497
26839W        W42973  15.274  14.565  13.564 -0.0129 -0.1823 -0.4088
26840W        W42974  15.712  15.047  13.879  0.1459  0.0374  0.1787
26841W        W42975  12.882  15.000   1.469 -0.0331 -0.1033  0.3021
26842W        W42976  13.841  11.488  11.704  0.0248 -0.0693 -0.1893
26843W        W42977  14.232   8.850   3.039  0.3337  0.0804 -0.2833
26844W        W42978  14.689   7.510   4.826 -0.0732 -0.1289 -0.1978
26845W        W42979  15.758   5.201   3.391  0.1514 -0.5912 -0.0473
26846W        W42980   7.038   5.820  14.078  0.1147  0.1180 -0.1524
26847W        W42981  16.043   9.260  11.010  0.1857 -0.1159 -0.1799
26848W        W42982   4.148   3.207  12.697 -0.1409  0.0723  0.1107
26849W        W42983   1.419   6.225   3.047 -0.0420  0.2622  0.1862
26850W        W42984  18.102  10.918   0.391  0.1769  0.0615  0.1600
26851W        W42985  14.785  12.228   1.867 -0.1851 -0.0005  0.0838
26852W        W42986  17.383  19.104   2.153  0.2910  0.3878 -0.0791
26853W        W42987   2.597   6.900  11.686  0.0200 -0.1761  0.3206
26854W        W42988  15.252   2.245   4.173 -0.1624  0.0924 -0.1314
26855W        W42989   2.146  18.859   2.613  0.2827  0.1731  0.1037
26856W        W42990  14.735  13.991   3.322 -0.1977  0.3349 -0.0077
26857W        W42991   5.718   7.974   2.414  0.1846  0.1256  0.0040
26858W        W42992  11.507   2.700   2.410 -0.2251  0.0288 -0.0325
26859W        W42993  13.099   8.325  13.957 -0.3133 -0.1012  0.0614
26860W        W42994   5.532  16.908   5.141 -0.0509  0.2745 -0.1299
26861W        W42995   8.450   7.143   2.382  0.0168 -0.1381 -0.0071
26862W        W42996   0.663  15.356  14.198 -0.0828  0.3218  0.0176
26863W        W42997  15.022   5.288   0.911  0.0454 -0.2158  0.1544
26864W        W42998  18.246  18.656  12.729 -0.3669 -0.2044 -0.0223
26865W        W42999  18.257   9.258  12.281 -0.1760  0.0482 -0.2973
26866W        W43000   2.580   2.589  10.403  0.0150 -0.2557 -0.0272
26867W        W43001   9.978   7.472   3.136  0.0672  0.0354 -0.0955
26868W        W43002  11.455   0.929  10.997 -0.1310  0.0356 -0.3257
26869W        W43003  18.822   3.664   0.158 -0.2355  0.0483  0.0256
26870W        W43004   0.650  16.554   2.902  0.1224 -0.0143 -0.3951
26871W        W43005  17.527   2.725  13.206  0.1010 -0.2199 -0.0655
26872W        W43006   2.522  16.738   5.565 -0.0292  0.0095 -0.1156
26873W        W43007  15.951  19.016   4.237 -0.0219  0.1061 -0.1783
26874W        W43008  17.500   6.810   1.335  0.0263  0.0867 -0.1827
26875W        W43009  14.796   8.582   3.031 -0.1527  0.1568  0.2283
26876W        W43010  14.728  11.633   3.206  0.1573 -0.0951 -0.0868
26877W        W43011   7.910   2.777  11.572 -0.3045 -0.1689 -0.1672
26878W        W43012   3.664   3.406   4.698 -0.1786  0.0178  0.0612
26879W        W43013  15.332  14.846  11.047 -0.1172  0.3523  0.2420
26880W        W43014  10.503   7.456  14.296 -0.0732 -0.0094 -0.2899
26881W        W43015   9.950   2.424  12.697 -0.2178 -0.2637  0.2377
26882W        W43016   9.244   8.796   3.068 -0.1235  0.3201  0.2121
26883W        W43017   8.949  15.595  12.041 -0.4057  0.2303 -0.1081
26884W        W43018   5.436   5.948  14.210 -0.2847 -0.3496 -0.1924
26885W        W43019   9.876  12.135   1.999  0.3191 -0.0567  0.1263
26886W        W43020  12.220   1.164  13.295 -0.0134  0.0612  0.1399
26887W        W43021  17.087  16.214   3.480  0.3197  0.1634 -0.0945
26888W        W43022   8.684   4.494   0.180  0.0495  0.3698 -0.1353
26889W        W43023   4.112   2.676  13.702 -0.0927 -0.2462  0.2382
26890W        W43024  18.047   3.463  14.230 -0.1951 -0.0032  0.5677
26891W        W43025   7.931   4.761   1.243  0.0388  0.0163  0.1213
26892W        W43026   4.381   3.130   4.347  0.1576 -0.0182 -0.1114
26893W        W43027   1.965   3.197   3.691 -0.0060 -0.1299 -0.3551
26894W        W43028  15.570   7.299  13.470  0.0410  0.1650 -0.2020
26895W        W43029   3.161   1.700   2.041 -0.0061  0.3928 -0.1803
26896W        W43030   6.463   0.655  11.235  0.2752 -0.1741 -0.1237
26897W        W43031  16.158   1.047  13.809 -0.2576 -0.3523 -0.2278
26898W        W43032   7.762  15.981  11.108 -0.2297  0.0079 -0.3280
26899W        W43033  11.905  10.118  14.401  0.4275 -0.2648  0.1185
26900W        W43034   1.202   4.807  10.867  0.1682  0.1343  0.1572
26901W        W43035  12.122  12.635   5.242  0.2306  0.2639  0.0852
26902W        W43036   4.873   1.006   3.867  0.0070  0.1689 -0.0381
26903W        W43037   8.774  17.947  13.177  0.0802  0.0453 -0.0350
26904W        W43038   7.669  18.241   3.531  0.1062  0.1674 -0.1152
26905W        W43039  11.102  16.317   5.103 -0.3013  0.0983  0.1987
26906W        W43040  10.164  15.443  14.248 -0.0327  0.2928  0.1361
26907W        W43041  18.641  17.364  13.803  0.1762 -0.0746 -0.1915
26908W        W43042  17.248  13.005   5.275  0.2676  0.0466  0.0193
26909W        W43043  12.917  11.125   3.682 -0.0840  0.0702 -0.0881
26910W        W43044   1.713  16.122  11.120 -0.2518 -0.1087 -0.2303
26911W        W43045  10.098  17.805   3.916  0.0116  0.4242 -0.1546
26912W        W43046   1.926  15.836  10.340 -0.1813 -0.1660  0.2642
26913W        W43047   1.694  10.777  14.987 -0.0353 -0.0393  0.1007
26914W        W43048   8.747  10.687   0.860  0.2249 -0.0770  0.0588
26915W        W43049   7.115   2.420   0.740 -0.2237  0.2102 -0.1629
26916W        W43050  12.417  16.199   3.945 -0.0183 -0.0191  0.0737
26917W        W43051  15.119  15.811  11.517 -0.2278 -0.0169  0.1312
26918W        W43052   7.809   3.527  10.052  0.2394 -0.1264  0.0547
26919W        W43053  12.686  18.827   4.268  0.1033 -0.0786  0.1766
26920W        W43054  16.558  18.772  12.236  0.1259 -0.0573  0.0405
26921W        W43055   8.037   3.984   2.620 -0.1036  0.0644  0.2508
26922W        W43056   4.985  17.255  14.406 -0.3287 -0.3555  0.1576
26923W        W43057  13.503   3.574   0.220  0.2916  0.2293 -0.2262
26924W        W43058   5.275  17.649   3.790 -0.2080 -0.5497 -0.0635
26925W        W43059   0.148  16.905   5.753  0.1289  0.2111  0.1181
26926W        W43060  11.923   6.526  13.986 -0.0568  0.0365 -0.1383
26927W        W43061  15.167  17.501  11.244  0.1712  0.2077  0.0537
26928W        W43062   7.384  14.403  10.286  0.0055 -0.1826 -0.0323
26929W        W43063  16.862   3.375   9.795 -0.1273  0.0806 -0.0071
26930W        W43064   5.001   2.082  13.590  0.1456 -0.1786  0.0484
26931W        W43065   1.306  17.159   3.041  0.0763 -0.4093 -0.0579
26932W        W43066  16.525   8.189  12.295 -0.1345 -0.0930 -0.2211
26933W        W43067  14.814  19.090   2.711 -0.2392  0.2545  0.1478
26934W        W43068  15.533   8.460  10.443 -0.2500  0.0230  0.1821
26935W        W43069  17.375   0.783   0.638 -0.0613 -0.0807 -0.1792
26936W        W43070   0.865   3.141  13.754  0.0845  0.2270  0.0557
26937W        W43071  17.360   2.761  12.178 -0.2881  0.1860  0.2673
26938W        W43072  11.721  14.067  13.919  0.0476  0.0406  0.2116
26939W        W43073  10.827  16.633  13.944 -0.4240  0.0411 -0.2623
26940W        W43074   0.387   3.907   0.914  0.1289 -0.1922 -0.1228
26941W        W43075  18.176   2.678  14.628 -0.3608  0.1952  0.2137
26942W        W43076   3.475   8.054   1.819  0.0092  0.0722  0.0695
26943W        W43077  12.067   8.077  13.775 -0.0409  0.1328 -0.0449
26944W        W43078  12.222   4.423  13.340  0.1689  0.0534 -0.2095
26945W        W43079   5.757   1.737  13.271 -0.0715  0.0930 -0.0931
26946W        W43080   4.931   6.839  14.140  0.1145 -0.0981 -0.0358
26947W        W43081   3.984  11.614   2.207  0.0089 -0.0432  0.2207
26948W        W43082   2.870   2.337  13.958  0.0269 -0.0765 -0.2309
26949W        W43083  10.073   8.902   1.032 -0.1427 -0.0023  0.0088
26950W        W43084   5.646   7.549   0.025 -0.1057 -0.1913 -0.3541
26951W        W43085   8.849  16.983   4.274 -0.0126  0.1371  0.0391
26952W        W43086   9.472  10.233   0.709  0.3093  0.1401 -0.4416
26953W        W43087   8.433  16.180  14.545 -0.1740 -0.0983 -0.2340
26954W        W43088   8.152   1.876   4.426  0.0983 -0.4158  0.0587
26955W        W43089  19.210  15.156   1.419 -0.1077  0.0088  0.0174
26956W        W43090  15.238  14.564   5.103 -0.1813 -0.1375  0.2124
26957W        W43091  16.195  17.412   5.714 -0.0973  0.1108 -0.0726
26958W        W43092   2.683  13.237   5.000  0.0098  0.2906 -0.1766
26959W        W43093   3.995   3.926   3.642 -0.0145  0.3038 -0.0314
26960W        W43094   6.173  11.902   0.496  0.0132  0.0867  0.3367
26961W        W43095  17.704  13.452  11.033 -0.0626 -0.4449  0.2028
26962W        W43096  18.851   9.469   0.007 -0.1293  0.0592  0.4592
26963W        W43097  15.783   8.496  14.842 -0.0673 -0.0877  0.1501
26964W        W43098   7.875  13.950  10.910  0.4809  0.0922 -0.0992
26965W        W43099   4.698  16.750  11.865 -0.1984 -0.1284 -0.1572
26966W        W43100  13.400   5.147  13.876  0.0612  0.0275  0.2072
26967W        W43101  17.666  16.759  12.434 -0.1063 -0.0277  0.2852
26968W        W43102   0.602   2.484  12.801 -0.0619 -0.0198 -0.0106
26969W        W43103  16.880  16.042  12.426 -0.1867  0.2318 -0.0902
26970W        W43104   2.820   4.801   3.230 -0.2100 -0.0749 -0.2658
26971W        W43105  16.685   1.548   5.319  0.0638  0.0229  0.1376
26972W        W43106  17.666  11.972   5.077  0.3764  0.1682 -0.3203
26973W        W43107  15.102  18.818  14.579  0.1778  0.0066 -0.1910
26974W        W43108  18.689   6.045  13.965 -0.1465 -0.1399  0.0621
26975W        W43109  18.929  11.547   1.145 -0.0375 -0.3374  0.1681
26976W        W43110  12.193   6.042   4.708  0.0462 -0.0292 -0.1186
26977W        W43111   4.954  17.122   1.687  0.2460 -0.3435 -0.0088
26978W        W43112  10.181  14.263  14.651 -0.2278 -0.1264  0.1011
26979W        W43113   7.065   5.659   0.914  0.1103  0.3004  0.1488
26980W        W43114   6.231  11.564   4.898  0.1305 -0.0643  0.1832
26981W        W43115  12.142  18.244   3.088 -0.0559 -0.1945 -0.0824
26982W        W43116   7.380   9.602   4.694  0.4410 -0.0404  0.0579
26983W        W43117   1.622   9.691  10.815  0.3408 -0.2713  0.0344
26984W        W43118   8.486  18.015   1.809 -0.2198  0.1214  0.0074
26985W        W43119   9.344  14.489   2.286 -0.3404  0.3061  0.0916
26986W        W43120  18.072  12.994   2.190 -0.3547 -0.0910 -0.1531
26987W        W43121   6.911  10.439   1.265 -0.1504  0.1019 -0.0294
26988W        W43122   8.769  11.148   1.805 -0.1628  0.0415  0.2920
26989W        W43123   8.132  15.981   1.376  0.0437  0.1070  0.0348
26990W        W43124  17.002  13.035   3.118  0.0296 -0.0897  0.1847
26991W        W43125  16.256  14.890  12.357 -0.0375 -0.2630  0.1465
26992W        W43126   1.444  16.716  14.438  0.1489  0.1398  0.1550
26993W        W43127   6.787   1.478   4.281 -0.1305  0.1760  0.0840
26994W        W43128   1.570   9.820  11.975 -0.0026 -0.1077 -0.0157
26995W        W43129  12.076   4.564   9.393  0.2231 -0.0517  0.2739
26996W        W43130   9.577  10.140  10.752  0.1033 -0.2283  0.0975
26997W        W43131   4.841  14.816   4.574 -0.2208 -0.1684  0.0948
26998W        W43132  17.758   5.713   0.603 -0.0190 -0.2247 -0.2086
26999W        W43133   4.612  18.150  12.034 -0.2897 -0.2143  0.1444
27000W        W43134   5.478   0.513  10.439  0.5133  0.1592  0.2896
27001W        W43135  15.090  15.636   0.189 -0.0205  0.1545 -0.0164
27002W        W43136  18.437  12.416   5.534 -0.0948 -0.1940 -0.3538
27003W        W43137  17.059   9.912   1.691  0.2633  0.1428  0.0482
27004W        W43138  17.064   2.598   2.211 -0.0083 -0.0697  0.0032
27005W        W43139   8.357   5.642  12.131  0.1868 -0.1659  0.0482
27006W        W43140   3.626   6.818  13.735 -0.1187  0.1766 -0.4603
27007W        W43141   9.651  14.708  11.129 -0.0030  0.1382  0.2835
27008W        W43142  16.264  16.327   3.932  0.1622  0.2578 -0.0129
27009W        W43143  18.011  18.044  13.736  0.1619  0.0203  0.0441
27010W        W43144   6.126  11.694  12.872  0.0646 -0.2435 -0.3704
27011W        W43145   1.925   0.914  11.222  0.1362 -0.0552  0.0105
27012W        W43146  14.214   8.913   5.623 -0.4325  0.0503  0.0293
27013W        W43147   0.710   5.466   2.846 -0.1727 -0.0510  0.0014
27014W        W43148  13.885  12.160   0.273 -0.0565  0.3210  0.0998
27015W        W43149   0.084   1.370  13.893  0.0074  0.1167 -0.3133
27016W        W43150  17.068  10.697  14.047  0.0823 -0.3151  0.1957
27017W        W43151  18.561   7.867  12.075 -0.1666 -0.1040 -0.0783
27018W        W43152  15.097  13.851   0.948 -0.2990 -0.1328  0.2718
27019W        W43153   4.927   5.012  11.132 -0.2417  0.0730  0.2555
27020W        W43154  10.165   1.129  13.794 -0.1757 -0.1966 -0.0145
27021W        W43155  18.642   1.452   3.764 -0.0301 -0.0853 -0.1743
27022W        W43156  10.970   7.316  14.444 -0.1764 -0.3202  0.2900
27023W        W43157  17.280   7.953  11.860  0.0178  0.1619 -0.2054
27024W        W43158  13.254   6.179  11.171  0.1256 -0.0218  0.0186
27025W        W43159   9.440   7.475   3.175  0.0713 -0.2164 -0.1974
27026W        W43160  13.761  19.022  12.058 -0.3534  0.3977 -0.0018
27027W        W43161   0.267   0.576  14.884  0.0937 -0.0351  0.1417
27028W        W43162  12.222  19.054  12.771 -0.0975 -0.2577 -0.0916
27029W        W43163   0.482   9.104  11.532 -0.1173 -0.0435  0.0008
27030W        W43164  12.210   0.499   1.261  0.0032  0.1770 -0.3821
27031W        W43165   7.543   6.788   4.271  0.1548 -0.0011 -0.0312
27032W        W43166  15.600  16.306  13.972  0.0714  0.2028 -0.3305
27033W        W43167   2.070   1.033   4.318 -0.1027 -0.0278  0.1210
27034W        W43168   3.862   5.640   5.040  0.1914  0.3579  0.0150
27035W        W43169  12.819  16.822  13.691  0.2915  0.0325 -0.0232
27036W        W43170  18.968   2.822  14.290 -0.0247  0.0646 -0.3204
27037W        W43171  14.423   7.364  14.485  0.0439 -0.2424  0.0762
27038W        W43172  16.095  11.453  10.247 -0.0682 -0.2199 -0.0105
27039W        W43173  17.838  17.192  11.323 -0.2111 -0.1167 -0.0422
27040W        W43174  12.565  18.032   2.795  0.0147  0.3177 -0.2225
27041W        W43175  10.575  12.758   1.879  0.3537 -0.0907 -0.0385
27042W        W43176   4.095  13.666  13.722  0.0683  0.0316  0.0710
27043W        W43177  16.650  12.078   1.100  0.2664  0.0446  0.0356
27044W        W43178   6.019   0.760   1.252 -0.1712 -0.1014  0.1353
27045W        W43179  13.194   9.546  12.639  0.1364  0.0724  0.0732
27046W        W43180   3.581   5.028   9.543  0.0694  0.3141 -0.4622
27047W        W43181  18.809  10.925   3.426 -0.0368  0.0298  0.0361
27048W        W43182   3.524  10.390  12.957 -0.1268  0.1002  0.0309
27049W        W43183   4.068  18.182   3.862  0.0454 -0.0143 -0.1412
27050W        W43184  16.278  16.699   1.864 -0.1252  0.0065 -0.4870
27051W        W43185   6.826  14.364  14.367  0.0726  0.0739 -0.2180
27052W        W43186  11.235   6.271   0.822  0.0110  0.0024  0.0187
27053W        W43187  11.730  16.252   0.988  0.1600  0.0327  0.2093
27054W        W43188   1.459   6.423   1.707 -0.0755  0.1308  0.1113
27055W        W43189  12.981   8.097   9.698  0.5768 -0.1629 -0.2327
27056W        W43190   1.098  18.417   0.532 -0.2330  0.0503  0.1556
27057W        W43191   3.336   5.185  12.142 -0.1468 -0.4650 -0.0202
27058W        W43192   0.107   3.618   4.104 -0.0096  0.0941 -0.1468
27059W        W43193  16.120  16.952   5.339  0.1424 -0.1281 -0.1079
27060W        W43194   9.572   9.722  14.337  0.0359  0.0557  0.2657
27061W        W43195   8.389   9.576  12.435 -0.0266  0.0236 -0.0053
27062W        W43196  17.632  16.566   9.940 -0.0615 -0.0845  0.2311
27063W        W43197   2.964   8.828  14.938 -0.2437 -0.2377  0.1498
27064W        W43198   4.814  10.383   0.657  0.0145 -0.2100  0.0940
27065W        W43199   1.528   6.524   0.663 -0.1196  0.0303  0.0613
27066W        W43200   9.002   9.693   4.794 -0.2472  0.0465  0.4120
27067W        W43201  11.654  14.564  11.879 -0.3328  0.1504 -0.5841
27068W        W43202   0.544   1.906   3.921  0.1448 -0.0338  0.0995
27069W        W43203  14.831  18.052  10.634  0.1069 -0.1815 -0.1316
27070W        W43204  17.920  17.184   5.831  0.0695 -0.0894  0.3882
27071W        W43205   8.395   8.408  14.502 -0.6238 -0.0470  0.1561
27072W        W43206  18.591   8.177  11.695 -0.0056  0.1163 -0.1158
27073W        W43207  12.481  16.132   2.122 -0.0291 -0.4167  0.1344
27074W        W43208  11.090   2.803  11.175  0.0148 -0.1897  0.0126
27075W        W43209  13.324   9.589  13.958 -0.0657 -0.1751  0.0353
27076W        W43210   6.151  12.104   2.853 -0.0730  0.0398  0.1354
27077W        W43211  16.315   1.160   1.647  0.0476 -0.0148  0.1391
27078W        W43212   5.373  18.927  10.779  0.4554  0.0903 -0.3214
27079W        W43213   3.076  19.145   1.563 -0.2031  0.2193  0.1760
27080W        W43214   7.645   2.655   1.001 -0.0991 -0.0888  0.4279
27081W        W43215  16.136   7.001  12.973 -0.0129  0.1610 -0.0902
27082W        W43216   6.749   3.349  13.354  0.2089 -0.0276  0.2556
27083W        W43217  15.061  16.017   5.173  0.0052 -0.0311  0.1451
27084W        W43218   3.648  18.694  12.850 -0.2363  0.2479  0.0136
27085W        W43219  13.250  14.645   1.482  0.1488  0.0943 -0.2082
27086W        W43220  17.345   4.352  13.416 -0.0563 -0.0602 -0.2011
27087W        W43221   4.041  11.504   2.707 -0.3797 -0.1153  0.1135
27088W        W43222   0.599  12.164  13.141  0.1149 -0.0398 -0.2638
27089W        W43223   3.747  17.337  10.797  0.2985 -0.2448 -0.2722
27090W        W43224  15.275   9.552  13.379 -0.4385  0.0150 -0.2855
27091W        W43225  10.850  13.745  12.025 -0.0352  0.3281 -0.2131
27092W        W43226  17.598   6.501  11.010 -0.1062 -0.0924 -0.0124
27093W        W43227   9.872   8.879  11.965 -0.0998  0.0186  0.3645
27094W        W43228   8.113  16.742  13.183  0.0380 -0.0362  0.1072
27095W        W43229   5.413  11.719   0.170  0.2411  0.0139  0.0726
27096W        W43230  14.663   1.470   1.955 -0.4805  0.2533  0.0617
27097W        W43231   4.637   2.392   2.917  0.2020  0.1521  0.2161
27098W        W43232  17.552   7.813   0.066  0.2489 -0.2356  0.0580
27099W        W43233  14.966   8.083  13.927 -0.0323 -0.1054  0.0722
27100W        W43234  11.662   1.346  10.914  0.0546  0.1401 -0.1104
27101W        W43235  18.001  11.852   0.315  0.1032 -0.2508  0.0149
27102W        W43236  13.145   3.011  10.490  0.2780 -0.1472 -0.1521
27103W        W43237  11.928   9.767  13.703  0.0089  0.0941 -0.2238
27104W        W43238  12.201   8.053   5.403  0.2102 -0.4759 -0.0397
27105W        W43239  14.693  13.270  10.702  0.0327  0.0361  0.1268
27106W        W43240   2.171   4.978   1.523  0.0386 -0.0289 -0.2964
27107W        W43241   7.481  10.737   0.345  0.1966  0.3244 -0.1093
27108W        W43242  10.603  11.177   4.530  0.0017 -0.1930 -0.2037
27109W        W43243  10.692  18.040   4.550 -0.0266 -0.4157 -0.0612
27110W        W43244   2.054   2.977   2.909 -0.2464 -0.0851 -0.0155
27111W        W43245  14.437  10.617   4.968 -0.1197 -0.0739 -0.2315
27112W        W43246  16.153  13.679   5.050 -0.1759  0.0481 -0.1171
27113W        W43247  17.976  15.239   2.792 -0.1650  0.0040 -0.1793
27114W        W43248  18.588  12.381  13.876  0.2243 -0.1403  0.0819
27115W        W43249   1.029  11.343  12.596  0.1766  0.2346 -0.0248
27116W        W43250   3.547  12.842   1.153  0.2153  0.3012  0.0052
27117W        W43251  14.745  17.466  11.517 -0.1286 -0.2610 -0.1420
27118W        W43252   4.239   5.705   2.306  0.2008 -0.2550  0.1650
27119W        W43253   3.940   8.834  14.011  0.4351 -0.0980  0.1356
27120W        W43254   5.468   5.999   2.653  0.1578  0.2675  0.1448
27121W        W43255   3.857   2.910   4.858  0.0593  0.0510 -0.1511
27122W        W43256  15.113  14.136  13.291 -0.0181  0.1134  0.2458
27123W        W43257   8.058  18.774   0.667  0.1509 -0.0667  0.0890
27124W        W43258   1.355   3.516  13.619 -0.0728 -0.1854 -0.0567
27125W        W43259  17.499  16.293   3.199  0.1264  0.2414 -0.3594
27126W        W43260   5.549  11.997   4.812  0.1572 -0.1925 -0.3622
27127W        W43261  10.739   2.392  10.958 -0.0041 -0.3703  0.1465
27128W        W43262   0.769  18.970   4.375  0.2948 -0.1786 -0.0403
27129W        W43263  18.164  17.560   1.791 -0.2239 -0.0426  0.0647
27130W        W43264   0.912   6.410  14.073 -0.1221 -0.2063  0.0872
27131W        W43265   6.765  10.991  11.393 -0.1556 -0.3110 -0.0864
27132W        W43266   2.658   3.550   2.518  0.1024  0.3102 -0.2267
27133W        W43267   8.139   6.712  11.900  0.1658 -0.1357  0.3516
27134W        W43268  12.067  17.055  10.393 -0.3880 -0.3273 -0.1731
27135W        W43269  16.943  11.362   4.575 -0.1880  0.0041 -0.1286
27136W        W43270   3.021  17.412  13.526 -0.1619 -0.2107  0.1501
27137W        W43271  15.853  13.916  11.528  0.1580 -0.0329  0.5288
27138W        W43272  15.667   8.016   1.645  0.0405 -0.0943 -0.1589
27139W        W43273   3.498  10.587  12.256  0.4051 -0.0795  0.1514
27140W        W43274   3.800  14.475  14.314  0.0531 -0.1629  0.1747
27141W        W43275  12.749  14.510   4.989 -0.2658 -0.1080 -0.0130
27142W        W43276  18.718   8.082   2.565 -0.0774  0.0219  0.0356
27143W        W43277  13.891  10.995  14.320 -0.1369 -0.2912 -0.1606
27144W        W43278  16.274   1.953   3.835 -0.0273  0.4035 -0.1818
27145W        W43279   3.888   7.635   3.608 -0.1922 -0.1151  0.2350
27146W        W43280   9.845   6.611   3.959 -0.0093 -0.0118 -0.1175
27147W        W43281   0.188   9.753   2.293  0.3175  0.2709 -0.0611
27148W        W43282   6.181  13.815  12.829 -0.2915  0.0861  0.0042
27149W        W43283  11.787   9.555  11.055 -0.0698  0.1203 -0.0737
27150W        W43284  12.883   1.283  12.646  0.0322  0.0041  0.0841
27151W        W43285   9.289  10.988  10.129  0.0212  0.4430  0.0896
27152W        W43286   9.342  16.686   1.276 -0.2960  0.1180  0.0260
27153W        W43287  14.556   8.913   3.461  0.1856 -0.0177  0.1167
27154W        W43288   6.233  14.548  14.957  0.2295 -0.1222 -0.2076
27155W        W43289   2.299   4.830  12.772  0.1658  0.1771  0.0373
27156W        W43290   4.751  11.541   1.827  0.0639  0.1185 -0.2429
27157W        W43291  10.450  11.423  11.954 -0.2016 -0.1783  0.2645
27158W        W43292  18.688  16.869   0.688 -0.0542 -0.1251  0.2616
27159W        W43293   7.502   4.228  14.407  0.0328  0.1222  0.0571
27160W        W43294  12.162  18.626   2.191  0.1049  0.1503 -0.0847
27161W        W43295  19.042  15.871   2.180  0.1453  0.0070 -0.2335
27162W        W43296  10.617  13.899  11.681 -0.0596 -0.4415 -0.0863
27163W        W43297  15.280   7.098   0.762 -0.0187  0.0637  0.0266
27164W        W43298   7.941   5.487  14.119  0.0596  0.0802  0.1438
27165W        W43299   4.112   3.736  10.477 -0.1737  0.0214  0.1922
27166W        W43300   0.333  10.634   2.298  0.0850 -0.1126  0.1247
27167W        W43301  14.619   0.055  11.503  0.0162  0.1220 -0.1057
27168W        W43302  16.211  12.648  13.848  0.1537  0.1912 -0.1906
27169W        W43303  16.810  17.175   2.327  0.1715 -0.1560  0.1825
27170W        W43304   7.110  14.296   2.485  0.3263  0.0686  0.2906
27171W        W43305  12.903   8.108   5.404  0.1435 -0.1060 -0.1266
27172W        W43306   0.267   5.306  14.394 -0.1691  0.2198  0.0274
27173W        W43307   4.878  12.270  10.465  0.0134 -0.0825 -0.0122
27174W        W43308  12.162  18.227  12.948 -0.2246  0.1003 -0.3063
27175W        W43309  14.829  18.641   3.099 -0.0722 -0.0779  0.5475
27176W        W43310  12.764  11.509   1.130 -0.1223  0.1971 -0.1665
27177W        W43311   6.745   8.180   4.525 -0.1098 -0.0427  0.2432
27178W        W43312  14.401  16.439   2.274 -0.3947  0.1627  0.3110
27179W        W43313  17.874  18.122  12.925 -0.1370 -0.1079  0.1855
27180W        W43314  16.483   0.275  11.114 -0.0802  0.1090  0.0856
27181W        W43315  15.275  13.771   2.337  0.2815 -0.0540 -0.1788
27182W        W43316   5.521  13.813   3.153  0.3056  0.1155 -0.2973
27183W        W43317   4.699  16.591   4.917  0.2539  0.0504  0.0610
27184W        W43318  18.677   3.192   4.781  0.0018  0.1786 -0.1368
27185W        W43319   5.769  18.858   5.529  0.0049 -0.2569  0.5850
27186W        W43320   0.339   6.218   3.182  0.0448 -0.1155 -0.0549
27187W        W43321   4.661   0.171  11.413 -0.0142  0.0217 -0.0680
27188W        W43322  10.905   5.050  10.511 -0.2313 -0.1384  0.0999
27189W        W43323   2.666   7.244  13.536 -0.1162 -0.0578 -0.1566
27190W        W43324   5.863  13.404   1.578  0.0228 -0.1455  0.0969
27191W        W43325  18.117  10.914  14.947  0.2422 -0.0362  0.1373
27192W        W43326   3.441  14.725   2.315  0.1629 -0.2136  0.1448
27193W        W43327   3.699  18.546  10.795  0.1415 -0.0958  0.2293
27194W        W43328   6.807   3.507   1.509  0.1288 -0.1574  0.2517
27195W        W43329   2.858   0.827   3.974 -0.0907 -0.0342 -0.1681
27196W        W43330   5.140   0.552   4.650  0.0677  0.1587  0.1669
27197W        W43331   0.477  16.402   0.747 -0.1414  0.1961  0.0118
27198W        W43332  12.193   3.695   2.595  0.2234  0.0113 -0.1172
27199W        W43333  16.478   6.742   3.564 -0.4409 -0.0539  0.1612
27200W        W43334  12.616   7.310  12.466 -0.0108 -0.0351  0.0057
27201W        W43335  16.142   2.709  10.356 -0.0993  0.1785 -0.1014
27202W        W43336  15.890   3.573   4.253  0.1010  0.0692 -0.0713
27203W        W43337   1.679  16.293   0.235 -0.5791 -0.3868 -0.3725
27204W        W43338   1.987   3.412   2.408 -0.1184 -0.3789  0.0138
27205W        W43339   8.844  14.958   1.729  0.1704  0.4356 -0.2917
27206W        W43340  12.960  15.634   2.310  0.2634 -0.1306  0.0956
27207W        W43341  10.133   3.759   1.752 -0.0373 -0.1331 -0.1669
27208W        W43342   7.320   9.501  10.670  0.3972 -0.0294  0.0740
27209W        W43343   8.475   5.161   1.699 -0.0320  0.1137  0.1284
27210W        W43344   5.069   6.685  14.646 -0.1302  0.1097 -0.1464
27211W        W43345  13.246   8.522   0.056  0.0104 -0.0908  0.1335
27212W        W43346  18.270  15.021   1.298 -0.1629 -0.1532  0.1006
27213W        W43347  13.938  16.474  12.001  0.0182 -0.2505  0.2643
27214W        W43348  12.217   9.780  13.271 -0.1402  0.0084  0.0201
27215W        W43349   1.570  14.367   4.974  0.1330  0.0317  0.1994
27216W        W43350   2.261  14.836  11.993 -0.1113 -0.2871  0.0112
27217W        W43351   7.903  10.205  14.169  0.0036 -0.2836 -0.0545
27218W        W43352  17.152  10.936  11.547  0.0990 -0.2335  0.2946
27219W        W43353   5.857   0.362   4.800 -0.0357  0.1413 -0.1339
27220W        W43354   7.382  16.446   5.712  0.0583 -0.0857  0.1932
27221W        W43355  14.661   6.275   0.751 -0.0748 -0.2423  0.0081
27222W        W43356   3.619   2.739   1.500 -0.0115 -0.2505 -0.3336
27223W        W43357   2.496   9.280  13.505 -0.2770  0.0615  0.0178
27224W        W43358  11.819   1.179   5.448 -0.3273  0.0652 -0.3174
27225W        W43359   0.706  13.907   4.827 -0.0044  0.1021  0.0446
27226W        W43360  14.481   9.336  12.307  0.1282  0.2398 -0.1912
27227W        W43361   6.223  17.190  12.829  0.1000  0.3027  0.3212
27228W        W43362   1.340  11.855  11.763  0.0262  0.2612  0.0619
27229W        W43363  14.924   6.021  13.799  0.0804 -0.1685 -0.0743
27230W        W43364   0.834   0.601   4.963  0.1303  0.3884 -0.1648
27231W        W43365  12.458  10.106   4.094 -0.2827 -0.1198  0.2665
27232W        W43366   5.062  14.720   3.127 -0.1262 -0.0851  0.1031
27233W        W43367  15.965   1.932   2.170 -0.1330 -0.0483 -0.0572
27234W        W43368   8.815  11.627   4.178  0.2134  0.0364  0.3247
27235W        W43369  11.751  19.224   0.948 -0.1017  0.5271 -0.1393
27236W        W43370  17.723   0.138   2.292  0.0715  0.0375 -0.1216
27237W        W43371  15.371   4.598  12.164  0.1500 -0.0478 -0.4014
27238W        W43372   5.295  14.171  11.554 -0.0763  0.2149 -0.1519
27239W        W43373   0.971   4.764  13.580 -0.1791  0.1464  0.2173
27240W        W43374   8.869   5.061   1.399 -0.2640 -0.2355  0.0437
27241W        W43375   4.709   8.470   2.172 -0.1812  0.1857  0.0877
27242W        W43376   8.377  17.898  15.006  0.2756  0.3280 -0.0065
27243W        W43377  15.418   9.734   3.303  0.0055  0.2549 -0.1174
27244W        W43378  14.818   7.244   0.732  0.3910  0.0549  0.0547
27245W        W43379  16.627  14.136   3.547  0.0315  0.0565  0.1272
27246W        W43380  10.116   5.160   3.591 -0.2558  0.3442 -0.1622
27247W        W43381  13.138   1.666   0.260  0.0693  0.0646 -0.2271
27248W        W43382  13.543   7.694   0.278 -0.0175  0.0148 -0.1115
27249W        W43383   2.645  18.740   2.622  0.2046  0.0835  0.4258
27250W        W43384   6.752   0.028   4.865 -0.0539  0.1151  0.0833
27251W        W43385  12.360   0.081  10.945 -0.2602 -0.3161  0.1349
27252W        W43386   9.226   1.540   4.302  0.1466 -0.0304 -0.0270
27253W        W43387   5.231  12.964  12.854  0.0504 -0.1290  0.1229
27254W        W43388  17.819   1.801   4.212  0.2389 -0.0404 -0.1211
27255W        W43389  16.380  16.928  15.003  0.1856  0.0146 -0.0746
27256W        W43390  13.232   9.016  13.375  0.0732  0.0980 -0.0667
27257W        W43391  13.222   9.086   1.203  0.2554  0.1206 -0.2677
27258W        W43392  10.212  14.711   2.547 -0.4444  0.1413 -0.1808
27259W        W43393   0.429   6.559   4.834  0.2020 -0.0491 -0.4076
27260W        W43394   1.302   0.296   2.247 -0.2058 -0.0027 -0.1130
27261W        W43395  17.151  17.224   0.491  0.0557 -0.1127  0.3766
27262W        W43396  12.426  15.935  13.447  0.4554 -0.0992  0.2876
27263W        W43397   9.199  13.602  14.596  0.4110  0.1620 -0.0570
27264W        W43398  15.731  19.095  10.494 -0.0109 -0.4348 -0.0195
27265W        W43399  11.135   3.070   9.981 -0.2154 -0.0987  0.2874
27266W        W43400   5.665  17.647   4.487  0.1267  0.1387 -0.3521
27267W        W43401  17.023   4.401   4.653 -0.1053  0.1061  0.0577
27268W        W43402  13.329  10.259   4.357  0.1634  0.1668 -0.0441
27269W        W43403   1.767  17.709  13.620  0.2403 -0.1203 -0.1501
27270W        W43404   7.866  18.604  10.518  0.0054 -0.2032  0.1529
27271W        W43405  13.586  11.815   3.744  0.3852 -0.0854 -0.0567
27272W        W43406   1.890   9.237  13.494 -0.1157  0.0419  0.0332
27273W        W43407   7.677   3.799  14.262 -0.2714 -0.0830  0.0693
27274W        W43408   1.080   1.473  11.484 -0.1726  0.0476  0.0069
27275W        W43409   5.577   0.231   2.624  0.3140  0.0780  0.1880
27276W        W43410  18.229  13.915  12.270 -0.3167  0.0547  0.0649
27277W        W43411   4.971   2.046  14.089 -0.0080 -0.3744 -0.0688
27278W        W43412  14.734  18.173  12.944 -0.3860  0.1748 -0.2187
27279W        W43413   8.024  12.537  10.501 -0.5759 -0.0751 -0.1286
27280W        W43414  14.403  14.273   2.830 -0.1225  0.0060  0.0637
27281W        W43415   8.416  18.602  10.482 -0.3282 -0.0927 -0.0615
27282W        W43416  10.016   3.407  13.318 -0.1164  0.1391  0.1261
27283W        W43417  16.171   1.438   3.592  0.2185 -0.0701 -0.2010
27284W        W43418   3.784   3.699   3.195 -0.0686 -0.0903 -0.1754
27285W        W43419  15.982   8.722   0.611  0.0146 -0.0582 -0.0710
27286W        W43420   8.416  11.687   3.887 -0.3441  0.3410  0.1468
27287W        W43421  19.152  13.395   0.268 -0.1936 -0.1874  0.2146
27288W        W43422  11.082  17.391   1.167  0.1420 -0.3086  0.3698
27289W        W43423  16.814   9.209   0.076 -0.2103 -0.1297  0.1727
27290W        W43424   0.371   2.388   9.946 -0.0520 -0.2303  0.1169
27291W        W43425   6.488   5.737  11.460  0.1107 -0.2584  0.0763
27292W        W43426   2.006  12.105  11.875 -0.3354 -0.0675  0.2560
27293W        W43427  16.869   4.805   3.072 -0.2725 -0.0519 -0.0713
27294W        W43428  17.781   9.644  14.349 -0.2461 -0.3582  0.0632
27295W        W43429   5.773   9.658  11.663  0.2441  0.0514 -0.5044
27296W        W43430  12.171  13.801  13.920  0.1917 -0.1541  0.1520
27297W        W43431  15.093   2.586   3.384 -0.0901 -0.1122 -0.0900
27298W        W43432   7.258  16.584  12.049  0.0467  0.2094 -0.2410
27299W        W43433  16.373   9.375   5.404  0.1061 -0.1276 -0.1856
27300W        W43434  17.418  16.137  10.361 -0.1403 -0.0087  0.3394
27301W        W43435  17.806   6.371   4.197 -0.3975 -0.1962  0.3805
27302W        W43436   2.241  10.067   1.995 -0.0369 -0.1036 -0.1109
27303W        W43437  16.333  11.552  14.700  0.0863 -0.4063  0.1087
27304W        W43438   1.747   8.383  11.083  0.1670 -0.3401  0.1071
27305W        W43439   2.169   9.933   1.463  0.0782 -0.0910  0.2022
27306W        W43440   9.816  17.079  12.790 -0.1080  0.2872  0.1388
27307W        W43441   9.144   7.210   1.835 -0.3294  0.4887  0.0390
27308W        W43442   2.065   4.273  11.117  0.5066 -0.2262 -0.0893
27309W        W43443  17.937   1.077   3.548  0.3099  0.0519 -0.0091
27310W        W43444  14.062   0.148   2.083 -0.0570 -0.3063  0.0343
27311W        W43445   4.740   8.232  11.001 -0.0518  0.1404 -0.0828
27312W        W43446   7.179  13.844   1.652 -0.0182 -0.2456  0.3813
27313W        W43447  12.618  14.371   2.855  0.3257  0.0798 -0.1160
27314W        W43448  13.067  18.705  14.730  0.2059 -0.0264 -0.1195
27315W        W43449   1.911   7.192  12.194 -0.0637 -0.0360  0.0081
27316W        W43450   9.399   7.902   2.675 -0.1303  0.1183 -0.0146
27317W        W43451   0.399  16.530  10.871  0.0269  0.0404  0.2245
27318W        W43452   3.868   3.382  12.262  0.1427 -0.2342 -0.0822
27319W        W43453  11.565  16.664  12.455 -0.4262 -0.0854 -0.0945
27320W        W43454   1.441  16.408   3.693  0.3575  0.3361  0.6039
27321W        W43455  15.878   8.853  11.254 -0.3721 -0.0732 -0.0551
27322W        W43456   0.840   4.010   0.256 -0.1736 -0.1523 -0.1176
27323W        W43457  17.639  18.518   0.645  0.0026 -0.1245  0.0730
27324W        W43458  17.030   0.802  14.872  0.3082  0.0488 -0.1853
27325W        W43459   8.008   6.461  10.901 -0.1911  0.2396  0.1867
27326W        W43460   4.623   5.871   0.241 -0.3596 -0.0345 -0.2851
27327W        W43461   3.079   6.450  10.953  0.3222 -0.1898 -0.1388
27328W        W43462  18.258  10.649  13.133 -0.1396 -0.2011 -0.1771
27329W        W43463   7.269  13.667  11.871  0.1191 -0.0922 -0.1602
27330W        W43464   8.534  14.823  14.805 -0.1643 -0.1163 -0.0332
27331W        W43465  18.364   9.417   3.525 -0.0941 -0.1899 -0.0620
27332W        W43466   6.265  11.279  13.103  0.2490 -0.2586  0.0251
27333W        W43467  12.026  16.480  12.370  0.1218  0.0468  0.1763
27334W        W43468  15.203  11.930  14.855 -0.0148  0.1052 -0.3809
27335W        W43469   4.421   0.717   3.046  0.0361 -0.0810 -0.0348
27336W        W43470   4.387   1.439  13.403  0.4203 -0.2649  0.1627
27337W        W43471  15.284   7.856  14.269 -0.1574 -0.3435  0.2188
27338W        W43472  15.014  16.120  14.920 -0.0739  0.2169 -0.1705
27339W        W43473   3.687  15.737   3.363  0.0961  0.1115 -0.0149
27340W        W43474   3.195   2.337   1.643  0.0966 -0.0752  0.0563
27341W        W43475  18.429   1.333   3.299  0.0578 -0.1360  0.0447
27342W        W43476   1.928  18.724   3.164 -0.2732 -0.2850  0.0651
27343W        W43477   8.265  11.916  12.754  0.1069  0.1555 -0.0419
27344W        W43478   4.507   3.964   1.974  0.4510  0.2792  0.1427
27345W        W43479  17.280   9.104   0.461 -0.2696  0.0051 -0.1343
27346W        W43480  18.966   1.605  11.906  0.2906  0.1169  0.1910
27347W        W43481   1.805   9.439   2.295 -0.2198  0.2231 -0.7147
27348W        W43482   3.787  18.738   3.238 -0.0742  0.1437  0.1769
27349W        W43483  11.188  12.099   1.165  0.0941 -0.0612  0.1760
27350W        W43484   3.999   3.812  14.560 -0.0952  0.0993  0.0065
27351W        W43485  11.635  18.336   4.472 -0.2575 -0.0094  0.0219
27352W        W43486  15.011  11.165   5.815  0.1853  0.0499 -0.0570
27353W        W43487  18.718  11.285   4.145 -0.1999  0.0798 -0.0209
27354W        W43488  13.549   4.594   0.078  0.0477 -0.1300  0.1842
27355W        W43489  12.688   2.615   0.347  0.1939 -0.1071 -0.0437
27356W        W43490   2.413   8.131  14.915 -0.0282  0.2328  0.1869
27357W        W43491  10.555   6.701  11.589 -0.0540 -0.1283  0.1788
27358W        W43492  12.992   0.821  12.922 -0.0344 -0.0709 -0.0820
27359W        W43493  10.132  10.856   3.589  0.1278 -0.2170 -0.0707
27360W        W43494   5.071  11.182   2.616  0.0381 -0.0543 -0.0942
27361W        W43495  19.161   9.630   0.912  0.0877 -0.0146  0.3481
27362W        W43496   2.571  17.123  11.118 -0.1096 -0.1187  0.0364
27363W        W43497  14.392  17.552   5.688 -0.0128 -0.1108  0.0582
27364W        W43498  12.019   7.050  10.834  0.0619  0.1727  0.2038
27365W        W43499   5.334   6.227   9.350 -0.0159 -0.3646  0.3895
27366W        W43500   5.163   2.454  13.869  0.1342  0.0789 -0.1341
27367W        W43501   1.694  13.444  11.414 -0.1824 -0.0815  0.3032
27368W        W43502   5.092  13.162   2.247 -0.0346  0.4158  0.0570
27369W        W43503  13.446   0.740   4.884  0.0162  0.1744 -0.3440
27370W        W43504  16.597  13.984   0.227 -0.2273 -0.3853  0.0513
27371W        W43505  14.404   0.138   4.564  0.0530 -0.1107 -0.5399
27372W        W43506   8.447  18.231  10.781  0.1956  0.0065  0.0221
27373W        W43507   6.462   0.172  11.935  0.0356  0.0151  0.0671
27374W        W43508   0.669  18.510  14.508  0.6548 -0.0505  0.3284
27375W        W43509  11.114  10.265   9.642 -0.1172 -0.0511  0.3178
27376W        W43510   6.698   2.877  10.267 -0.0602 -0.1845 -0.1754
27377W        W43511  15.000   8.395   5.277 -0.1559 -0.1233  0.2623
27378W        W43512  11.094   6.261   1.752 -0.0215 -0.4420 -0.0800
27379W        W43513   2.883   9.034   4.588 -0.0621  0.2254  0.1354
27380W        W43514   7.102   2.124   9.875 -0.2474 -0.2591  0.1224
27381W        W43515  17.304   3.626  11.925  0.2297 -0.2170 -0.0954
27382W        W43516   7.513  14.223   9.863 -0.3544  0.3346  0.3220
27383W        W43517   0.610   1.347  12.128  0.0825 -0.1718 -0.0317
27384W        W43518  16.007   3.648   3.427 -0.0575 -0.1690 -0.0242
27385W        W43519   9.295   9.579  12.098 -0.0254 -0.1561 -0.1016
27386W        W43520   1.826  12.346   0.773 -0.1362  0.2337 -0.2914
27387W        W43521   9.359   5.309  13.300  0.1106 -0.2644  0.0565
27388W        W43522  14.681   6.311  14.221  0.0107 -0.3225  0.0697
27389W        W43523  17.391  13.054  12.342 -0.2356 -0.0815  0.2122
27390W        W43524   9.074  14.569  12.271 -0.2070  0.0016  0.0382
27391W        W43525   1.379   7.485  13.460  0.1484  0.1228 -0.4253
27392W        W43526  10.596   8.816   5.259 -0.0581 -0.2047  0.2315
27393W        W43527   1.430   6.550  11.523  0.2546  0.3244  0.1975
27394W        W43528   7.379   7.891  13.578  0.1225  0.1089 -0.0990
27395W        W43529   9.002  14.148  14.649  0.1137 -0.0873  0.2234
27396W        W43530  12.264  13.784   4.558  0.2265 -0.0254  0.0501
27397W        W43531   0.485  13.218   1.537  0.0826  0.0420 -0.0470
27398W        W43532  18.493  18.221  11.221 -0.0958  0.1737  0.2228
27399W        W43533  10.665  14.396   3.395 -0.1331  0.1938  0.1923
27400W        W43534   9.829   7.225  13.612  0.3084  0.0025 -0.1192
27401W        W43535  16.420   4.073  12.334  0.0366 -0.0574  0.0478
27402W        W43536   6.974   4.723   3.772  0.0221 -0.0850 -0.2377
27403W        W43537  13.788   6.465   1.374  0.1379  0.2205 -0.1828
27404W        W43538  15.400  14.151   1.226  0.2453  0.1613  0.3546
27405W        W43539   9.068   4.873  13.421 -0.0049 -0.2480  0.1506
27406W        W43540   3.238   9.136  10.784  0.0881  0.0495  0.2811
27407W        W43541   3.478  16.501  14.574  0.5015  0.3774 -0.1864
27408W        W43542   4.442  17.531   2.237 -0.2432  0.0581 -0.2588
27409W        W43543  15.004   9.443   2.485 -0.0067  0.1958 -0.3315
27410W        W43544   3.588  14.526   0.117  0.0350  0.0708 -0.1347
27411W        W43545  16.535   5.560  10.361 -0.0538 -0.0867  0.3520
27412W        W43546  14.584   1.002  13.880 -0.0851 -0.1778 -0.2611
27413W        W43547  16.290   3.577   1.716 -0.1152 -0.2187  0.0712
27414W        W43548   0.959   4.182  11.925 -0.2636  0.0963  0.1132
27415W        W43549   8.219   2.409  11.359 -0.0973  0.1356 -0.0451
27416W        W43550  15.799  12.295   4.235  0.2050  0.1409 -0.0724
27417W        W43551  18.462  18.558   2.788  0.0684  0.4189 -0.3560
27418W        W43552  13.843  17.656   2.619  0.0052  0.2038  0.2142
27419W        W43553  18.235   0.091  13.938 -0.0759  0.1349 -0.2433
27420W        W43554   7.112  17.007   1.172  0.1745 -0.1156 -0.2635
27421W        W43555  12.137  10.102   4.767  0.1856  0.0913  0.0229
27422W        W43556   1.061  17.288   2.224 -0.0976  0.2023 -0.0015
27423W        W43557   7.702  16.196   0.341 -0.1926 -0.0525 -0.0934
27424W        W43558  19.022   0.653   4.904 -0.0354  0.3535  0.0105
27425W        W43559   2.983  11.639   2.555 -0.0123  0.1104 -0.1254
27426W        W43560   1.530   0.449   4.985  0.0642 -0.0851  0.4130
27427W        W43561   9.415   7.590  10.214 -0.0299 -0.1194 -0.2270
27428W        W43562  13.684   4.128   4.327 -0.1040 -0.1545 -0.1191
27429W        W43563   8.562  10.746  13.221  0.0080 -0.0019  0.3775
27430W        W43564   0.804  15.371   4.128  0.0479  0.1380  0.1397
27431W        W43565   5.200  18.481  13.951  0.0917 -0.2530  0.0708
27432W        W43566  18.052  18.418   3.079  0.1002 -0.3154 -0.1816
27433W        W43567   9.934   4.795  10.721 -0.2236 -0.0823 -0.0692
27434W        W43568   9.735  10.256  12.955  0.0420 -0.1318  0.0859
27435W        W43569   7.337   9.588  14.391  0.0206  0.4026  0.2714
27436W        W43570   0.070  12.787   0.386 -0.0590  0.1388 -0.2132
27437W        W43571  16.027   1.822   4.304  0.0856  0.0837  0.1547
27438W        W43572  12.738   6.280   1.380  0.1523  0.0638  0.0693
27439W        W43573   6.659  19.133   2.907  0.2459  0.0157  0.2509
27440W        W43574   4.446  11.905  13.204  0.0748  0.1013  0.0099
27441W        W43575  16.149  10.295   0.686 -0.0676  0.4558  0.0102
27442W        W43576   5.723   7.168   2.103 -0.0272 -0.3594  0.1289
27443W        W43577   8.839  12.804   0.700 -0.0138  0.2689 -0.0353
27444W        W43578  19.067  11.491  13.589 -0.1526 -0.2606  0.1496
27445W        W43579   4.299  10.502  11.620 -0.2173  0.1112 -0.2469
27446W        W43580   5.871   0.234  14.211 -0.0305 -0.1373  0.1291
27447W        W43581   2.823  15.823   1.144  0.1123  0.0524  0.0815
27448W        W43582  11.033  17.434  12.908  0.2402 -0.3458  0.2173
27449W        W43583   3.558   4.507   0.658  0.1940  0.0611  0.0022
27450W        W43584  11.383  16.800  13.223  0.0233  0.0175 -0.2046
27451W        W43585   0.029   3.221  13.998 -0.0490 -0.0504  0.2030
27452W        W43586   5.837   0.687  10.738 -0.0277  0.0759  0.2002
27453W        W43587   8.256   1.711   2.975 -0.1952 -0.2645  0.3319
27454W        W43588  11.388  11.177   5.469  0.0371 -0.0156 -0.2416
27455W        W43589  14.993   1.347  10.195  0.0354 -0.2945  0.0132
27456W        W43590   5.612   4.426  14.313 -0.0043  0.0450  0.0051
27457W        W43591  14.854   3.650   1.802 -0.0817 -0.0642 -0.0451
27458W        W43592   2.781  18.208  11.205 -0.2235  0.0902 -0.1690
27459W        W43593   0.729  15.824   0.585  0.0764  0.0552  0.2956
27460W        W43594   6.078  14.424  12.706  0.2337  0.2725  0.2773
27461W        W43595   6.789  13.595   1.434 -0.1290  0.1406  0.3605
27462W        W43596   8.432   5.358  13.941 -0.1052 -0.1801 -0.0076
27463W        W43597  19.071   2.024   0.275 -0.1715  0.0742 -0.0401
27464W        W43598   8.630   9.728  10.857 -0.1761  0.0610 -0.1194
27465W        W43599   0.817   8.536   4.153  0.0456 -0.0548  0.1189
27466W        W43600  16.547  18.958  14.772 -0.0157  0.1317 -0.1658
27467W        W43601  15.928  15.564  13.696  0.0988  0.0339  0.2537
27468W        W43602   9.219  17.944   0.862 -0.3640 -0.1326 -0.1485
27469W        W43603  17.505   3.019  11.215  0.2600 -0.5062  0.0317
27470W        W43604  16.898  18.207   3.587  0.0509  0.1020  0.1632
27471W        W43605  10.628  15.428  14.071  0.1584 -0.1565  0.0807
27472W        W43606  12.898   4.850  10.859  0.1355 -0.1157 -0.1882
27473W        W43607  17.385   4.135   4.542 -0.2792 -0.2042 -0.0478
27474W        W43608   7.049   0.632  11.287 -0.1987  0.0352  0.2464
27475W        W43609   1.270   4.313  13.359  0.1574 -0.2946 -0.2479
27476W        W43610  13.766   8.721   2.365 -0.0643  0.0188  0.0206
27477W        W43611  11.416  17.876  12.784  0.0185 -0.0854 -0.0011
27478W        W43612   3.014  17.478  11.324 -0.1697  0.1830 -0.0115
27479W        W43613  18.699   1.483   5.284 -0.0054  0.1027  0.3074
27480W        W43614   2.882   4.371   0.415  0.1536 -0.0308  0.1299
27481W        W43615   2.092   6.448   2.666 -0.1189  0.1494  0.1134
27482W        W43616  18.561  10.277   5.366  0.2763 -0.2419  0.2312
27483W        W43617  12.305   1.406   0.678 -0.3315  0.0536 -0.1806
27484W        W43618   5.821  13.313   3.088  0.1346 -0.3370 -0.1754
27485W        W43619  13.737   3.765  10.879  0.4415 -0.3101 -0.3196
27486W        W43620   6.218   1.896   3.103 -0.0805  0.0207 -0.2476
27487W        W43621   1.253   1.264   3.418  0.0086 -0.1341 -0.0240
27488W        W43622  11.973   5.641  13.151 -0.0532 -0.1019 -0.0664
27489W        W43623   6.584  14.649  14.052 -0.1695  0.1891  0.0553
27490W        W43624   7.810  15.871  14.998  0.0061 -0.0131 -0.0056
27491W        W43625  12.967   6.213  12.448 -0.0897 -0.0206 -0.3297
27492W        W43626  17.769  10.559   4.719 -0.2384 -0.0782  0.1186
27493W        W43627  17.174  15.008   3.318  0.1598  0.0444  0.1367
27494W        W43628   3.286   3.737  10.483 -0.1050 -0.0074  0.0662
27495W        W43629   6.282   6.488  10.293 -0.1135 -0.3079 -0.0201
27496W        W43630  10.969   6.080   3.679  0.3944  0.2960  0.0781
27497W        W43631   6.089   1.564   3.825  0.1635 -0.2043  0.1507
27498W        W43632  11.684   7.770  13.040 -0.0409 -0.0646 -0.1791
27499W        W43633   4.132   2.264  12.380  0.1283 -0.2472 -0.0301
27500W        W43634   1.131  14.919   0.480  0.4315  0.0563 -0.2066
27501W        W43635  10.527  12.218   4.310  0.0200 -0.0387  0.0586
27502W        W43636   3.806  16.682   4.536 -0.2770 -0.1773 -0.0179
27503W        W43637  16.239   6.223  10.934  0.1174 -0.1942  0.0915
27504W        W43638  12.887  15.106  13.859  0.2071  0.0670 -0.0425
27505W        W43639   8.776   2.919  11.892  0.0462 -0.0734  0.1836
27506W        W43640   8.932   4.910   3.129 -0.3114  0.3560  0.1156
27507W        W43641   7.079   4.305  13.608  0.0861  0.0802 -0.0748
27508W        W43642  12.720  17.064  11.830 -0.1518 -0.2849  0.2456
27509W        W43643   6.945  17.617  14.953 -0.2628 -0.0678 -0.2472
27510W        W43644   5.753   6.419   2.484  0.1254 -0.1846  0.1086
27511W        W43645  17.679   8.535   2.943  0.1914  0.0106  0.1635
27512W        W43646   6.626   2.430  14.558 -0.1001 -0.0110  0.0969
27513W        W43647  12.209  18.217   9.838 -0.3217  0.2997 -0.0924
27514W        W43648  13.762   2.085  14.827 -0.3079 -0.1005 -0.1928
27515W        W43649  14.999   7.614  10.034 -0.1932  0.2017 -0.2281
27516W        W43650   6.889  16.393  13.520 -0.3445 -0.1113 -0.0071
27517W        W43651  12.904  15.099  10.974 -0.0547 -0.1240 -0.3127
27518W        W43652   5.260  10.865   4.970 -0.1788  0.0262 -0.1181
27519W        W43653  12.241  16.110   4.596  0.0528 -0.1014 -0.0881
27520W        W43654   5.229  12.588  13.816 -0.0647 -0.1470 -0.0956
27521W        W43655  16.214   4.773   0.905 -0.2392 -0.2338  0.1987
27522W        W43656   2.654   4.027   5.225 -0.1379  0.0231 -0.0900
27523W        W43657   3.016   1.301   3.548 -0.1955  0.1650  0.0432
27524W        W43658  13.193  17.163  10.763 -0.6689  0.0307 -0.3039
27525W        W43659   3.501  10.926   2.532  0.3460  0.2801  0.1722
27526W        W43660  16.666  14.971  14.392 -0.1643  0.0924  0.2093
27527W        W43661  18.013   1.218  11.218 -0.2887  0.0091  0.1331
27528W        W43662  15.705   3.487   3.747  0.1303 -0.1520  0.2799
27529W        W43663  18.047   1.200   1.076  0.0597 -0.0380  0.2653
27530W        W43664   0.679  17.995   3.208 -0.0415  0.0424 -0.4754
27531W        W43665  13.339  13.627  14.057  0.0496  0.0566  0.0040
27532W        W43666  17.029   8.015   4.215  0.2826 -0.1564 -0.0522
27533W        W43667   8.300  11.007  12.929  0.2361 -0.1271  0.1034
27534W        W43668  14.748   1.996   2.114  0.3474  0.0699  0.4327
27535W        W43669   7.580   7.102   9.361  0.2958  0.0191 -0.1416
27536W        W43670   6.653  19.172  10.813 -0.0860 -0.2603 -0.0332
27537W        W43671   8.470   8.969   5.041  0.0842 -0.0629 -0.0369
27538W        W43672   9.266  17.576  12.557  0.3591 -0.2979 -0.1368
27539W        W43673   6.541  13.693   0.629 -0.1784  0.0609 -0.2696
27540W        W43674   4.124  15.206   4.916  0.1607  0.0177 -0.2925
27541W        W43675   9.501   7.089  14.033  0.1674 -0.2698 -0.1081
27542W        W43676   3.248   8.163  10.391  0.0856  0.0796 -0.2075
27543W        W43677   6.443   7.207  14.889 -0.2888  0.0528  0.3040
27544W        W43678   3.732  10.212   2.007 -0.0863 -0.1566 -0.2905
27545W        W43679  13.277  17.227   0.682  0.1116  0.0586 -0.1028
27546W        W43680   0.898  16.686   3.748 -0.0403  0.1061 -0.0326
27547W        W43681  11.918   4.029   4.855  0.3839  0.1752 -0.1590
27548W        W43682   9.545  17.971  14.626 -0.2777 -0.0279 -0.0076
27549W        W43683   5.887   0.747   2.429  0.4145 -0.1449 -0.1565
27550W        W43684   1.217   7.536  11.445 -0.0411 -0.2070  0.1578
27551W        W43685  11.486  11.336  12.717 -0.0434 -0.1596 -0.0659
27552W        W43686   8.405  14.781   2.072 -0.0316 -0.0904 -0.2168
27553W        W43687   2.657   0.803  12.669 -0.2482 -0.1556  0.1466
27554W        W43688  14.171  12.711   5.327  0.0921 -0.1074 -0.0286
27555W        W43689  12.145  12.182   1.248 -0.0371 -0.0131 -0.1278
27556W        W43690   9.021   4.224  11.785  0.1477  0.2429  0.3266
27557W        W43691  19.191   8.831   1.044 -0.0014  0.2816 -0.2055
27558W        W43692   4.046  17.545   2.573  0.0046 -0.1110 -0.1426
27559W        W43693   5.601  15.731   0.514  0.1067  0.0026  0.0492
27560W        W43694   3.827  12.860   1.621  0.0675  0.1826 -0.1662
27561W        W43695  13.083  12.231   4.235  0.0549  0.0335  0.4441
27562W        W43696  13.926  15.284  13.639 -0.0831 -0.1153  0.1286
27563W        W43697  14.471   8.637   0.527  0.1067  0.2931 -0.2292
27564W        W43698  14.370   1.817  13.292 -0.0953  0.2853 -0.2049
27565W        W43699  15.006  16.199  13.887 -0.0496 -0.1233 -0.0130
27566W        W43700  10.404  18.315   4.839  0.3157 -0.0035  0.0414
27567W        W43701   3.219   7.275   4.968  0.4539  0.1179  0.0761
27568W        W43702   2.367  13.655   1.426  0.3331  0.0275 -0.0292
27569W        W43703   5.085  17.956   1.929 -0.2599 -0.1260 -0.2549
27570W        W43704   1.062  11.868   0.588 -0.1882 -0.4335 -0.0254
27571W        W43705  15.923  10.404  11.876 -0.2307 -0.1726  0.0578
27572W        W43706   6.350  16.426  12.206  0.1501  0.0244  0.2431
27573W        W43707  14.452   3.557  13.681  0.0270  0.0700  0.2195
27574W        W43708  16.377   4.167   4.324 -0.1273 -0.2325  0.2893
27575W        W43709   8.010  13.021   3.187  0.1999 -0.2480 -0.1670
27576W        W43710   0.980  16.971  12.398 -0.0793  0.0597  0.0620
27577W        W43711   5.263   5.113   9.771  0.0875  0.0608  0.2735
27578W        W43712   1.320   9.011  14.983  0.0401 -0.0581 -0.3485
27579W        W43713  16.498   6.162   0.095  0.0274  0.0409 -0.0581
27580W        W43714  14.445   7.680  11.677 -0.1899 -0.0514 -0.1429
27581W        W43715   9.224   9.149  10.570 -0.3377 -0.0022 -0.2619
27582W        W43716  13.046   3.734   0.223 -0.1673  0.4901 -0.0082
27583W        W43717  19.027  19.093  14.404  0.2293 -0.3090 -0.1492
27584W        W43718   2.846   9.455  14.932  0.1727  0.0761 -0.1391
27585W        W43719   7.769  11.843   3.161  0.0577  0.0415  0.0082
27586W        W43720   8.232   9.430   1.087  0.2718 -0.5672  0.0959
27587W        W43721  18.955   6.575   0.666  0.2146  0.0593 -0.1706
27588W        W43722  14.042   7.829   1.313  0.2601 -0.1307 -0.2528
27589W        W43723   6.145  18.568  12.213  0.3791  0.2471  0.0117
27590W        W43724   0.680  17.542  11.340 -0.2483 -0.0391  0.0696
27591W        W43725  13.833  10.260   3.773  0.2013  0.1072 -0.2991
27592W        W43726   5.125   2.279  12.471 -0.1007  0.0989  0.1511
27593W        W43727  14.164   8.078  10.314 -0.1678 -0.1793 -0.1495
27594W        W43728  15.492  15.961   3.538  0.0379  0.0371 -0.0850
27595W        W43729  15.887   3.511   2.078  0.1286  0.1457 -0.0670
27596W        W43730   5.974  16.673   2.412 -0.0204 -0.2070 -0.2041
27597W        W43731   9.449   8.090  10.284  0.1734  0.0043 -0.0967
27598W        W43732   1.201   9.192   0.809 -0.1082 -0.0188  0.1917
27599W        W43733   8.972   7.464   9.386 -0.2749 -0.4173  0.0363
27600W        W43734  11.294   2.882  14.693 -0.0796  0.2382  0.0378
27601W        W43735   9.550  13.750   1.418 -0.2759  0.1749  0.1345
27602W        W43736  15.491  13.840   3.204 -0.0688 -0.0746  0.0051
27603W        W43737  13.203   3.872  13.966 -0.1049 -0.0547  0.1024
27604W        W43738   0.796   9.703   0.717 -0.1265 -0.0520  0.1801
27605W        W43739   7.998  10.675   4.920 -0.2264 -0.0236 -0.1873
27606W        W43740  19.030  14.909   4.588  0.3494  0.4111  0.0366
27607W        W43741  13.475  18.236   5.494  0.0067  0.3375 -0.1586
27608W        W43742  15.638  13.706  13.416 -0.0774 -0.2285  0.0506
27609W        W43743   7.819   2.619  12.049  0.1889 -0.3642  0.0241
27610W        W43744  14.649   0.722  12.845  0.1069 -0.1449 -0.0228
27611W        W43745   2.130   9.666  12.077  0.2121 -0.2330 -0.0504
27612W        W43746   6.496   0.537   4.001 -0.1368  0.3174  0.0873
27613W        W43747   9.878   5.604  11.090  0.0556 -0.1132  0.4523
27614W        W43748  16.267  14.185   5.017 -0.3958  0.0115  0.0827
27615W        W43749  10.761   7.816   5.058  0.2026 -0.3268  0.2131
27616W        W43750  16.572   9.082   2.738  0.0690 -0.1234 -0.3674
27617W        W43751  15.570  12.168  11.883  0.1642 -0.0840  0.0835
27618W        W43752   0.180   3.537  10.980  0.1207 -0.1142 -0.2352
27619W        W43753  13.410   7.966  10.109 -0.1853  0.0882  0.4325
27620W        W43754  17.034  13.088   0.534  0.0210  0.3160  0.0624
27621W        W43755   2.736  15.904  13.155  0.0802 -0.1821  0.0089
27622W        W43756  14.040   2.243   1.992  0.3558 -0.0266 -0.1799
27623W        W43757  11.237   4.044  14.778  0.0334 -0.2546  0.0012
27624W        W43758  11.391   1.516  10.505  0.1500 -0.4084 -0.0635
27625W        W43759   4.814   5.522   5.240  0.0144 -0.2301 -0.1931
27626W        W43760  17.447  12.268  13.584  0.3430  0.1043  0.1526
27627W        W43761  16.097  16.447   2.264 -0.0818 -0.1102  0.1039
27628W        W43762   2.394  13.381  13.690 -0.1949 -0.1321 -0.3395
27629W        W43763  15.873  10.288   1.454 -0.3098  0.1750 -0.2339
27630W        W43764  15.920   2.312  11.454  0.0597  0.2156  0.0618
27631W        W43765   2.281   3.762   1.693  0.1089  0.0019 -0.1740
27632W        W43766   4.368   7.655   2.711  0.0076  0.1346  0.1432
27633W        W43767   8.328   3.232  10.072 -0.1042 -0.3428 -0.0904
27634W        W43768   6.082   6.966  13.030 -0.0520 -0.0497  0.2190
27635W        W43769  16.585   7.930   4.568  0.0797 -0.0453 -0.0888
27636W        W43770  12.524   8.452   4.420 -0.2303  0.0814  0.1947
27637W        W43771   1.188   9.659  10.552  0.0496  0.0940 -0.1672
27638W        W43772   1.754   2.523  13.190  0.0462 -0.1301  0.2564
27639W        W43773  16.778  14.679   0.675 -0.1873  0.1346 -0.0866
27640W        W43774   6.208  10.797  12.352 -0.3120  0.2286 -0.2408
27641W        W43775  19.106   2.975   4.961  0.1264  0.1081 -0.1275
27642W        W43776   9.042   9.011  11.352 -0.1095 -0.0360 -0.1968
27643W        W43777  12.098   9.933  11.222 -0.0661 -0.1670 -0.2447
27644W        W43778   7.086  13.999  14.561 -0.0642 -0.1324 -0.1658
27645W        W43779  16.272   9.285   0.149 -0.0777  0.0593 -0.0884
27646W        W43780   3.300  14.136   1.315  0.2709  0.0145 -0.3144
27647W        W43781  12.560   3.916  13.646 -0.0382 -0.1527 -0.2631
27648W        W43782  19.051  15.425   3.969 -0.0785 -0.0890  0.1244
27649W        W43783   1.688   8.621  14.857 -0.2633 -0.1793  0.2850
27650W        W43784   1.575  18.822  12.420  0.3220 -0.0533  0.2349
27651W        W43785  17.608   7.650  12.650  0.1842  0.1504  0.2667
27652W        W43786   8.422   2.905  10.520 -0.2218 -0.2223  0.1137
27653W        W43787  17.239  17.761   3.065 -0.1411 -0.0538  0.4017
27654W        W43788   4.573  15.207   0.489  0.0647 -0.3954 -0.2940
27655W        W43789   8.992  15.960   1.759  0.1648 -0.0722 -0.4073
27656W        W43790  12.174   8.193  12.915 -0.2591  0.2766  0.2691
27657W        W43791   7.544   5.869  11.527 -0.3690  0.1303  0.3271
27658W        W43792   4.372   7.578   4.291 -0.3666  0.0584  0.3833
27659W        W43793   4.481  14.207  11.870  0.1362 -0.2046  0.2764
27660W        W43794   8.308  17.106   3.150  0.1696 -0.3271 -0.1594
27661W        W43795  19.168   4.296   1.701  0.0937 -0.0589  0.2469
27662W        W43796  13.923  18.455  10.739  0.1785 -0.0630  0.2050
27663W        W43797   6.848   9.979   4.176 -0.1384  0.1971 -0.3771
27664W        W43798  18.573  13.757   2.253  0.0106 -0.1738 -0.0213
27665W        W43799  16.794  12.787   2.141  0.0393  0.2100  0.2807
27666W        W43800   5.797  17.487   2.806  0.0752  0.0925 -0.0126
27667W        W43801  19.029  14.300   0.350 -0.2743  0.0676  0.0510
27668W        W43802  11.550  16.619   3.684  0.0457 -0.1450 -0.0440
27669W        W43803  17.268  10.859  14.474  0.0887  0.1265 -0.1115
27670W        W43804  10.004   3.203  11.387  0.1227  0.0708 -0.0312
27671W        W43805   1.643  19.103  10.659  0.3401 -0.0276 -0.0669
27672W        W43806   0.750   8.913  11.056  0.1852  0.0288 -0.1001
27673W        W43807  15.490   4.111   0.824  0.2353 -0.0846  0.0279
27674W        W43808  16.153   8.826   5.514  0.0625 -0.2309 -0.1319
27675W        W43809   0.178   4.475   0.055  0.2395 -0.0153 -0.1333
27676W        W43810  14.468  15.091   0.857 -0.0551  0.0161 -0.0620
27677W        W43811  11.753   1.549   1.860  0.1907 -0.0144 -0.2680
27678W        W43812   1.691  14.696   3.391 -0.1932 -0.2129 -0.0833
27679W        W43813  14.988   3.040  14.089  0.3566 -0.2603  0.1749
27680W        W43814   4.900   2.519   4.718 -0.0288  0.0733  0.0360
27681W        W43815   0.152  13.538   4.644 -0.3561  0.1199 -0.1378
27682W        W43816   8.500  13.118  12.309 -0.0422 -0.0345 -0.5212
27683W        W43817   4.340   3.693   3.201 -0.2892  0.0171 -0.2675
27684W        W43818   3.501  10.476  13.943 -0.2978 -0.0658  0.0647
27685W        W43819   0.343   2.519   1.506  0.0035 -0.4387  0.1152
27686W        W43820  14.461  17.207  13.667  0.0412  0.3184 -0.0881
27687W        W43821  10.685   9.698   0.172 -0.0107 -0.1556 -0.0806
27688W        W43822   5.361   5.242   1.858 -0.3027 -0.1049 -0.2498
27689W        W43823  15.452   9.123   4.865  0.1214 -0.1368  0.2552
27690W        W43824  17.968   9.492  13.217 -0.0292  0.3343  0.1949
27691W        W43825  12.909   6.474   1.807 -0.3385  0.1718 -0.0739
27692W        W43826  10.496   8.352   5.574 -0.3308  0.2057  0.1546
27693W        W43827   1.922   5.487   2.418 -0.3178  0.0520 -0.0875
27694W        W43828  14.928  14.880  12.525  0.0958 -0.1115 -0.0592
27695W        W43829   3.710  11.572   4.908  0.0216 -0.0101  0.1350
27696W        W43830  13.286   3.547  14.728  0.2115 -0.0929  0.1122
27697W        W43831   1.551   4.406   1.755  0.2143  0.1936 -0.0466
27698W        W43832   1.460  13.554  14.872 -0.2036  0.5257 -0.2698
27699W        W43833  10.389  12.555  13.121  0.2273 -0.0284  0.0509
27700W        W43834   5.429  16.965  14.709 -0.0786  0.0466 -0.0966
27701W        W43835  19.187   7.426  12.655  0.2913 -0.0396  0.0233
27702W        W43836   4.901  13.926   1.909  0.2448  0.1913 -0.1341
27703W        W43837  13.098   1.059   2.029 -0.3444  0.0214  0.2195
27704W        W43838   4.167  13.550   0.157 -0.1535 -0.1729 -0.0093
27705W        W43839   0.591  12.178  11.093 -0.0286 -0.1120 -0.0244
27706W        W43840   1.277   4.715   1.371  0.3306  0.1917 -0.0282
27707W        W43841  11.611   1.375   3.061 -0.0464  0.0061 -0.0652
27708W        W43842   2.873   5.577   0.199  0.2744 -0.0881  0.0375
27709W        W43843   1.316  17.573   0.573 -0.1347  0.4943 -0.3894
27710W        W43844  19.167  11.594   0.011  0.2626  0.0303 -0.1137
27711W        W43845  13.240   2.596  12.824  0.1826 -0.3191 -0.4592
27712W        W43846  16.824   1.605   4.291  0.0289  0.1496  0.5006
27713W        W43847  16.777  17.563  11.699  0.0557  0.2272  0.0497
27714W        W43848   7.397   5.269  10.339 -0.3060 -0.2549  0.3883
27715W        W43849  12.857   4.285  13.824 -0.2729  0.1866 -0.0970
27716W        W43850  11.277  13.096  11.367 -0.0230 -0.4428  0.1041
27717W        W43851  18.780  17.469   3.112 -0.0667 -0.3187  0.0209
27718W        W43852  17.180   1.535  13.190 -0.4127  0.0603  0.1910
27719W        W43853  11.895  12.775  14.349 -0.2528  0.1176  0.0010
27720W        W43854  16.538  16.247   4.805  0.1737  0.0207  0.0073
27721W        W43855   5.146  10.809  12.220 -0.0292 -0.0530 -0.0494
27722W        W43856   0.765   2.374  11.122  0.0656 -0.2970 -0.1565
27723W        W43857   8.521   4.469   3.760 -0.3192  0.0535  0.1432
27724W        W43858  15.057  10.751   3.129  0.1606  0.1739 -0.0171
27725W        W43859  10.042  16.020   0.977  0.0989  0.2230  0.0863
27726W        W43860   1.647  14.472   9.733 -0.1435 -0.0075 -0.3488
27727W        W43861   7.634  15.625  10.764  0.1693 -0.0823  0.0193
27728W        W43862  15.235  14.775   4.619 -0.2196 -0.3256 -0.0777
27729W        W43863  18.936  12.009  13.246  0.1679  0.2337 -0.1273
27730W        W43864   2.835   7.898  12.158 -0.1388 -0.0457  0.0784
27731W        W43865  16.551   2.263   3.578 -0.0459 -0.0639  0.2996
27732W        W43866   0.878  11.889   1.102  0.0131 -0.0815 -0.2515
27733W        W43867  10.023  16.561   1.549 -0.1106 -0.3414 -0.0631
27734W        W43868  10.368  19.183   0.213 -0.3402 -0.4494  0.0372
27735W        W43869   8.170   9.989   2.113 -0.2837 -0.0182  0.1588
27736W        W43870  16.959  13.333  11.584 -0.2186 -0.1260  0.0915
27737W        W43871  13.059   9.530   3.784 -0.4824 -0.1689  0.3377
27738W        W43872  13.929   1.050  11.365 -0.0849 -0.1351  0.0677
27739W        W43873   2.882  11.527   4.950 -0.1016  0.2394 -0.1943
27740W        W43874   6.026  16.351  14.221 -0.4958 -0.1078 -0.0317
27741W        W43875   7.572   7.238   3.911 -0.2154  0.3397  0.0319
27742W        W43876   6.890  15.168   0.511 -0.1738  0.1442 -0.2428
27743W        W43877   0.303   5.876   0.978  0.1333  0.0013 -0.3884
27744W        W43878   7.870  12.007   4.279  0.0496 -0.0903 -0.0952
27745W        W43879  10.874   4.568   5.456 -0.2698  0.2825 -0.1780
27746W        W43880   5.170   2.947   4.411  0.1155 -0.1176 -0.1875
27747W        W43881   4.952   8.224  13.671  0.0406  0.0646  0.1370
27748W        W43882  11.383  10.720  10.538  0.1282 -0.3501  0.0348
27749W        W43883  13.367   5.577  14.339  0.1421 -0.1039  0.2687
27750W        W43884   8.439   7.205  13.566 -0.0378 -0.0292 -0.0615
27751W        W43885   7.423   4.439  11.977  0.0335 -0.0583  0.2788
27752W        W43886   5.233   6.435   3.778  0.0121  0.2436 -0.0636
27753W        W43887   9.977  14.736   3.835 -0.0092 -0.0541  0.2168
27754W        W43888   3.010   6.055  14.306  0.1804 -0.0238 -0.1978
27755W        W43889  13.649  16.235   5.089  0.0683 -0.1810 -0.0583
27756W        W43890  16.528  11.318   0.595  0.3618  0.0003 -0.1609
27757W        W43891   2.606  16.480  10.666  0.2887 -0.2889 -0.1198
27758W        W43892   2.013  14.993   1.875 -0.1928 -0.1574 -0.0022
27759W        W43893  16.618   5.246   2.767 -0.2625 -0.0674  0.1423
27760W        W43894   3.731   8.772  11.047  0.1008  0.2187  0.2938
27761W        W43895  10.339  14.210   2.372 -0.1684  0.1266 -0.0461
27762W        W43896  13.899   8.336  14.462 -0.2413 -0.1651  0.1176
27763W        W43897  10.053  15.742   2.102  0.1669 -0.1850 -0.0563
27764W        W43898   7.523   3.447   4.858 -0.1391  0.4500  0.0844
27765W        W43899  17.122   4.192  12.160 -0.1143  0.1510  0.1584
27766W        W43900   1.581  16.048  12.091  0.0930 -0.3647  0.5363
27767W        W43901   7.680   3.222   3.042  0.0859  0.0664 -0.0047
27768W        W43902   8.786   3.265   3.712  0.0524 -0.0116 -0.1170
27769W        W43903  16.744   3.383  11.331  0.2059  0.0039 -0.4279
27770W        W43904   8.062  14.400   3.524  0.1546 -0.1771  0.2759
27771W        W43905  16.383  18.326   2.806  0.0022 -0.4635  0.0753
27772W        W43906  15.176   9.532  14.876  0.0090  0.1484 -0.4166
27773W        W43907   5.685   1.271  13.090  0.2500  0.4537 -0.1061
27774W        W43908   6.058  13.337   3.637 -0.2122  0.0206  0.2311
27775W        W43909   7.188  13.380   3.398  0.0380  0.0570 -0.2466
27776W        W43910   5.624  16.202  14.413  0.0754 -0.1658 -0.0608
27777W        W43911   8.114  15.294   3.306 -0.2588 -0.0231  0.1454
27778W        W43912  16.922  12.361  14.878 -0.3172 -0.1435  0.2102
27779W        W43913  13.459  16.549  12.052  0.1443 -0.3275  0.1617
27780W        W43914  10.351   9.725   0.553 -0.3321 -0.3727 -0.1328
27781W        W43915   6.517   2.005   2.152 -0.0714 -0.4444 -0.1057
27782W        W43916  17.771   3.304   3.809  0.2098 -0.0117 -0.0866
27783W        W43917  15.039  12.500  12.726 -0.1062 -0.2076 -0.0914
27784W        W43918  15.114  11.093   5.232  0.1369  0.1277 -0.2325
27785W        W43919  17.159   0.328   3.989 -0.3104  0.0379 -0.1105
27786W        W43920   3.099  13.258   1.946 -0.1685  0.1477 -0.1585
27787W        W43921  16.940   1.732   2.988 -0.2359  0.1010 -0.0286
27788W        W43922  18.724   7.552  12.585 -0.1047 -0.0172  0.0858
27789W        W43923   6.782   9.385  13.989  0.2813 -0.2771  0.1924
27790W        W43924   5.492   6.385  12.916 -0.2122  0.0014  0.1700
27791W        W43925   2.316  10.389   2.935 -0.1392 -0.0767  0.2144
27792W        W43926   6.214  19.118  10.284  0.1023  0.3132  0.0062
27793W        W43927  18.094   0.590  14.643  0.1255 -0.0812  0.1131
27794W        W43928   6.401  15.827  14.104  0.0500  0.0688  0.2290
27795W        W43929   1.301  16.574  10.156  0.2125 -0.1602 -0.3782
27796W        W43930   4.856  12.936  13.217  0.1433  0.2180  0.0666
27797W        W43931  17.015  13.386  12.186 -0.3021 -0.1368 -0.0587
27798W        W43932   5.014  13.006   2.830 -0.0219  0.4544 -0.1288
27799W        W43933  18.964   2.632   3.699 -0.0285  0.3320 -0.0315
27800W        W43934   5.794   4.175   0.350 -0.1305  0.1945  0.2392
27801W        W43935   3.767   8.650   5.068 -0.0092  0.0902  0.1791
27802W        W43936   1.777   6.722  13.643 -0.0634  0.1126  0.0043
27803W        W43937   8.587  12.315  14.924 -0.1900 -0.3717 -0.0169
27804W        W43938  14.484   9.881  12.054  0.1532  0.2227 -0.0647
27805W        W43939   1.333   5.632  12.556 -0.1993  0.3355  0.1981
27806W        W43940   8.953  18.996   4.593 -0.0449 -0.2292  0.1760
27807W        W43941   6.644   2.714  12.638  0.1303  0.1595 -0.0919
27808W        W43942  18.535  10.072  12.677 -0.1395  0.1864  0.1343
27809W        W43943   1.181  12.251  12.682 -0.0137  0.1856 -0.0330
27810W        W43944   6.780   8.643   0.882  0.1179  0.0323  0.1909
27811W        W43945   4.304  17.000   0.933 -0.3468 -0.0894 -0.2530
27812W        W43946  13.676   5.020   3.886  0.0623 -0.2751  0.0678
27813W        W43947  13.293  13.296   3.809 -0.1357  0.1315  0.0417
27814W        W43948   9.442  16.873  11.305  0.2270  0.0403 -0.4745
27815W        W43949  15.031   2.347   2.220 -0.1321 -0.1787  0.2057
27816W        W43950   1.712   3.449   0.276 -0.2274  0.1503 -0.3653
27817W        W43951   0.054   8.400  12.252  0.0084 -0.1221 -0.0799
27818W        W43952  14.324   8.799  13.775 -0.1416 -0.0931  0.0861
27819W        W43953   3.976  10.705  10.717 -0.2172 -0.2957 -0.1149
27820W        W43954  11.178  10.747  13.239  0.5343 -0.1540  0.1495
27821W        W43955  13.583  12.695  13.835  0.1185  0.0816  0.1510
27822W        W43956  16.113  13.121  13.854 -0.0810 -0.0631  0.1806
27823W        W43957  17.894  10.802   5.289  0.0159 -0.0857  0.1479
27824W        W43958  10.337   1.933  11.558  0.2665 -0.1522  0.3229
27825W        W43959   0.930   5.179  10.747 -0.0902  0.0134  0.2316
27826W        W43960  10.025  16.194  11.552  0.1815  0.2510  0.1178
27827W        W43961  13.187  18.173  11.330 -0.2099  0.0480 -0.1572
27828W        W43962  15.637   3.457   3.160 -0.2292  0.1358 -0.0274
27829W        W43963  15.575   6.153   2.959 -0.0904 -0.1874  0.1905
27830W        W43964   4.003   8.714   3.258 -0.0187  0.0465  0.0166
27831W        W43965   7.737   4.244   3.237 -0.3504  0.1284 -0.0485
27832W        W43966  14.052   4.607  13.074  0.0046  0.0157 -0.0469
27833W        W43967  18.912  14.638   5.918  0.1823  0.4512  0.0788
27834W        W43968   5.744   3.192  11.467  0.3167  0.3584 -0.1038
27835W        W43969  14.918  18.018   2.247 -0.0841  0.2264  0.1048
27836W        W43970  17.684  17.905  11.474  0.1316 -0.2468 -0.1638
27837W        W43971   4.002  14.557  14.863 -0.0254 -0.0519 -0.0504
27838W        W43972  15.735   0.444  10.342 -0.1149  0.0246 -0.0634
27839W        W43973   5.260   9.294  11.719  0.1791 -0.0493  0.3059
27840W        W43974   8.057   3.483  14.945  0.1115 -0.1990  0.1055
27841W        W43975   1.554   7.296  14.921  0.0110  0.2744  0.3114
27842W        W43976  18.426  18.024   0.727 -0.0176 -0.2743 -0.1844
27843W        W43977   3.133   5.551  13.427 -0.0521  0.5476  0.1278
27844W        W43978   1.030   5.464   2.011 -0.0121  0.1087 -0.2296
27845W        W43979   2.656   6.724  14.725  0.1949 -0.0112 -0.1118
27846W        W43980  11.150   9.553  10.177 -0.1020  0.0316  0.1705
27847W        W43981   5.208  11.823  11.923 -0.2155 -0.2059  0.0117
27848W        W43982  14.115  19.068  10.058  0.2714 -0.1043  0.0505
27849W        W43983   2.615   1.198  10.401 -0.1261 -0.1486 -0.4713
27850W        W43984  15.001  16.621   1.408  0.1499 -0.1312  0.1690
27851W        W43985   0.757  13.310  12.891  0.2326  0.0217 -0.1629
27852W        W43986   6.802   7.534   4.477 -0.0793  0.2265  0.1026
27853W        W43987   3.764  15.115  11.085  0.1580 -0.1546  0.0358
27854W        W43988  13.038  10.491  11.272  0.0779 -0.0960  0.0169
27855W        W43989  17.864  11.309  10.972 -0.0028 -0.1327 -0.0026
27856W        W43990  10.153  10.792   2.783  0.0066 -0.0067  0.0064
27857W        W43991  15.711  12.101   1.583  0.0181  0.0703  0.2106
27858W        W43992   6.107   1.172   2.908 -0.1998  0.1091 -0.2220
27859W        W43993   4.602   8.859  13.870  0.6341  0.1003  0.0555
27860W        W43994   8.380  10.104  12.313  0.2065  0.0826  0.0164
27861W        W43995  18.184   2.075  13.122 -0.1301  0.1097 -0.3683
27862W        W43996   8.078  12.473  14.091  0.1783  0.0769  0.0202
27863W        W43997   1.216  18.199  10.717 -0.2168 -0.2558 -0.2530
27864W        W43998   9.309   8.089  11.420  0.0281  0.2850 -0.1107
27865W        W43999   5.155  13.129  12.397  0.1672  0.2374  0.5144
27866W        W44000  17.235  10.128  13.290  0.0344 -0.0834 -0.0173
27867W        W44001  18.807  18.047  11.570 -0.0851 -0.4154 -0.3196
27868W        W44002  16.804  18.191   5.713  0.3588  0.0030  0.0624
27869W        W44003   1.628  12.837   2.480 -0.0873  0.1480  0.2009
27870W        W44004  13.285  16.217  14.990  0.3355 -0.0430  0.1528
27871W        W44005   0.359  15.589   4.595  0.2498  0.4803  0.3274
27872W        W44006   7.079  16.331  11.421 -0.0213 -0.0582 -0.0434
27873W        W44007  19.118  17.471  11.927 -0.0477  0.1030 -0.3322
27874W        W44008  15.254  13.276   3.991  0.2328  0.1790 -0.0132
27875W        W44009   1.025   4.653  14.290  0.2086 -0.0682 -0.1478
27876W        W44010   2.707  13.375  14.076  0.0992  0.0916  0.2310
27877W        W44011  11.406  13.206   2.543  0.1203  0.0894  0.1237
27878W        W44012   0.370  13.160  11.153  0.0278 -0.2954  0.0621
27879W        W44013  17.543   4.333  12.426 -0.1177  0.2148  0.1219
27880W        W44014  18.332   1.468  13.797  0.2218 -0.2139  0.1878
27881W        W44015   7.753   1.266  13.521 -0.0672  0.0078  0.2228
27882W        W44016  14.719   5.957  11.321  0.1887  0.1148  0.1132
27883W        W44017  14.797   0.893  10.294 -0.0174  0.0945 -0.1023
27884W        W44018   9.718  12.952  12.386  0.0410  0.1429 -0.1347
27885W        W44019  17.969  18.537  11.890 -0.1631  0.1489  0.1341
27886W        W44020   3.877   5.821  13.812  0.1016  0.3582  0.2567
27887W        W44021  14.963   6.817  12.719  0.3579 -0.5767 -0.0080
27888W        W44022  13.567   7.818   1.712 -0.2427 -0.2040 -0.0303
27889W        W44023   1.799   3.460  11.423  0.2944 -0.1962  0.1118
27890W        W44024   9.286  17.617   2.650  0.1371 -0.3785  0.2270
27891W        W44025  12.074  11.813   4.288 -0.2227 -0.0420 -0.1941
27892W        W44026  11.790   3.070   2.159  0.0632  0.3537 -0.1979
27893W        W44027   6.838  17.083   5.227 -0.4520 -0.0088  0.0796
27894W        W44028  16.834   6.643  11.304  0.0568 -0.1019  0.2776
27895W        W44029   6.602  13.248   1.755 -0.3794  0.0703  0.3362
27896W        W44030  15.097   8.509   0.629  0.0771 -0.2621 -0.1095
27897W        W44031   0.337  14.759   1.521 -0.1426 -0.0163 -0.0861
27898W        W44032   4.940   3.216  13.163  0.1515  0.2557 -0.2978
27899W        W44033   9.720  12.468   2.481  0.1167  0.0108 -0.0353
27900W        W44034   6.146   3.305   9.690 -0.0500  0.0552 -0.0544
27901W        W44035  11.827  16.952   1.106 -0.1200  0.1952  0.0270
27902W        W44036   0.294   9.960   3.914 -0.2303  0.2041  0.0053
27903W        W44037   4.850  16.266  14.480 -0.2321  0.0838  0.5219
27904W        W44038  15.104   0.611  11.819 -0.1324 -0.1133 -0.0979
27905W        W44039   2.621   1.222  11.673 -0.0457  0.0658 -0.2567
27906W        W44040  17.698   3.820  14.088  0.1334  0.0563  0.1071
27907W        W44041  14.134   8.397   2.214 -0.1032 -0.4626 -0.3842
27908W        W44042  15.714   7.708  14.805 -0.0468  0.1344 -0.1952
27909W        W44043  10.962  11.363  12.650  0.2041 -0.0975 -0.3565
27910W        W44044   7.708   5.738  13.290 -0.2366  0.2544 -0.0688
27911W        W44045   2.393   0.848   2.765  0.1939  0.2461 -0.0886
27912W        W44046  17.474   1.226   3.525 -0.0158  0.4135 -0.2141
27913W        W44047   2.483  12.291   1.466 -0.0614 -0.0068  0.0479
27914W        W44048  15.850   8.228   4.825  0.0793 -0.2059  0.1663
27915W        W44049  10.041  11.397  11.670 -0.1068 -0.1630 -0.1334
27916W        W44050   3.758   2.794   4.385 -0.0977 -0.1240  0.1865
27917W        W44051   7.801  11.051   4.148 -0.0666  0.2060  0.1005
27918W        W44052   7.176   3.898   1.345 -0.0398 -0.1311 -0.4515
27919W        W44053  11.819  11.420   3.520  0.1330  0.1802 -0.2290
27920W        W44054  18.193  16.456  12.244 -0.1145 -0.1834 -0.1943
27921W        W44055  14.997   4.886   2.133 -0.3223 -0.2629  0.1129
27922W        W44056   7.912   5.476  11.975 -0.2048 -0.1838 -0.2355
27923W        W44057   3.177   4.586   1.422  0.1004 -0.0286 -0.2204
27924W        W44058   9.263   2.756  11.784  0.1552  0.0496 -0.1961
27925W        W44059   2.219   6.052  14.062  0.2365  0.0776 -0.1637
27926W        W44060   5.586  13.189  13.157  0.0419  0.4031  0.0696
27927W        W44061  13.668   7.283  10.496  0.0132 -0.1845  0.1118
27928W        W44062  16.376   4.020  10.101  0.2021  0.4947  0.1443
27929W        W44063  19.166   2.695   5.393  0.1455 -0.0078 -0.2832
27930W        W44064   6.918  12.336   0.954 -0.2678 -0.2593 -0.4022
27931W        W44065   4.878   1.784   0.161 -0.1678 -0.2091  0.0716
27932W        W44066  14.340   5.269  14.161  0.0289  0.2800  0.1858
27933W        W44067   0.319  13.140  13.102  0.1985 -0.1526 -0.0284
27934W        W44068   0.286   9.591   4.266 -0.0142 -0.1489  0.1456
27935W        W44069   0.892   2.744   1.326 -0.3573 -0.0107 -0.0748
27936W        W44070   5.409   6.887  11.972  0.2504 -0.0008 -0.1386
27937W        W44071   1.369  16.036  14.651  0.0040 -0.2372 -0.0410
27938W        W44072   4.868   7.208   1.730  0.3431  0.1107  0.0893
27939W        W44073   5.717  12.404  13.870 -0.1348  0.0954  0.1433
27940W        W44074   3.558  17.060   1.118 -0.0875 -0.0526 -0.3000
27941W        W44075  11.232   3.240   1.765 -0.0085  0.0073 -0.1522
27942W        W44076   5.990   2.645   0.260 -0.0455 -0.0361 -0.0636
27943W        W44077   8.222  15.737  13.987 -0.2636  0.1521 -0.3852
27944W        W44078  18.563   0.096  13.043 -0.0457 -0.0904  0.0082
27945W        W44079  14.299  17.606   3.514 -0.0044 -0.0859  0.2250
27946W        W44080   8.454   9.143   0.650 -0.1404  0.2059 -0.1360
27947W        W44081   9.100   7.338  10.954 -0.1515  0.0251  0.6265
27948W        W44082   8.834  18.265  10.520 -0.1746  0.1361 -0.0683
27949W        W44083   4.060  16.819  15.031 -0.6208  0.1096 -0.0252
27950W        W44084  13.989   3.434  10.607 -0.1100  0.3585 -0.2259
27951W        W44085   9.838  15.375   4.741  0.0594 -0.0434  0.1089
27952W        W44086  18.387   4.601   9.526  0.4262  0.3689 -0.1058
27953W        W44087   8.900  14.193   0.788  0.0791 -0.0826  0.1015
27954W        W44088  16.767   0.029   4.757  0.2171  0.0435  0.2223
27955W        W44089   0.136  15.836  14.183  0.4985 -0.1329  0.0764
27956W        W44090  13.801  17.876  10.774 -0.0065  0.0840  0.0307
27957W        W44091   7.809   8.594  11.775 -0.1028 -0.2178 -0.3562
27958W        W44092   9.443  12.040   0.879 -0.0472 -0.1634 -0.2702
27959W        W44093  15.601  16.416   3.425  0.1540 -0.1885  0.0342
27960W        W44094   3.598   9.419  12.903 -0.0308  0.1327 -0.4824
27961W        W44095   5.724  10.556  13.254 -0.0621 -0.0079  0.0444
27962W        W44096  13.113  10.351  14.160  0.4056 -0.0934  0.0767
27963W        W44097  11.209  10.081   2.584  0.0548 -0.0700  0.0007
27964W        W44098   1.456  13.433  13.449 -0.0431  0.0058  0.2811
27965W        W44099  17.424   9.540  11.400 -0.0653 -0.2980 -0.1220
27966W        W44100   9.237  18.780  12.205  0.1052  0.2733 -0.0523
27967W        W44101  16.008  13.172  13.256  0.0718 -0.0813  0.0946
27968W        W44102  14.052  13.526   2.549  0.1003  0.4882  0.0899
27969W        W44103  12.397   7.888  11.248  0.3251  0.0592 -0.2814
27970W        W44104   8.428  16.991   1.193 -0.0724 -0.1325  0.1328
27971W        W44105   6.307  12.612   2.487 -0.1361 -0.1231  0.0587
27972W        W44106  18.267   5.421   1.500 -0.0652  0.0718  0.0416
27973W        W44107   7.852  10.859  11.450 -0.0878  0.0144  0.1542
27974W        W44108  10.373   5.775  13.847  0.0102 -0.2991 -0.0215
27975W        W44109  10.357  12.258   3.062 -0.0298  0.3309 -0.0559
27976W        W44110  11.633   4.621   2.802  0.2516 -0.0583  0.0119
27977W        W44111   8.863   6.638   3.400  0.0142  0.1595  0.0717
27978W        W44112   7.404  17.422  12.796  0.1231  0.3171 -0.0396
27979W        W44113   5.316   8.841   0.258 -0.0654 -0.1958 -0.1479
27980W        W44114  13.060  17.619   0.891 -0.0077  0.2560  0.2311
27981W        W44115   0.382   6.154   0.580 -0.1147  0.2211  0.0450
27982W        W44116  18.407   5.994  12.616  0.1809 -0.1772  0.0280
27983W        W44117  14.037   7.359  13.313  0.1538 -0.0161 -0.2145
27984W        W44118   9.550   3.501   1.446  0.1176 -0.2062 -0.4323
27985W        W44119   4.270  12.006   4.973 -0.1495 -0.2573 -0.0040
27986W        W44120   9.488  14.554   4.677 -0.0025  0.1367 -0.0443
27987W        W44121   5.672  10.909   3.547  0.1052  0.2603  0.0084
27988W        W44122  12.839   9.882  11.680 -0.1906 -0.1489  0.2796
27989W        W44123   0.820   8.792   9.309  0.1956 -0.0972 -0.4531
27990W        W44124   8.779   5.963   3.423 -0.3275  0.2651  0.0235
27991W        W44125   1.580   2.951  12.194 -0.1722  0.0050  0.1704
27992W        W44126  15.897  19.087   0.765  0.0792 -0.0421  0.0272
27993W        W44127  16.970   7.829  14.801  0.0375 -0.1076 -0.1178
27994W        W44128  18.229  12.379   2.140 -0.4465  0.1074 -0.1642
27995W        W44129   8.650  17.099  12.836 -0.0738  0.1110  0.0323
27996W        W44130   1.517   0.184  12.766 -0.0312 -0.0052  0.0659
27997W        W44131   3.442  14.411  14.029  0.1330  0.1005  0.4671
27998W        W44132  10.815   5.839  14.059  0.1024 -0.2775 -0.0863
27999W        W44133   1.856  13.055  10.007 -0.1425 -0.2069  0.1326
28000W        W44134   7.076  12.165  12.603  0.1061  0.1293 -0.0180
28001W        W44135  16.435   5.538   0.959 -0.1314 -0.1481 -0.1489
28002W        W44136   6.900   3.861  12.133  0.0929 -0.1103  0.0737
28003W        W44137   1.066   9.724   4.426  0.4867  0.1695  0.0407
28004W        W44138   9.640  10.059   0.249  0.0461 -0.1641  0.4354
28005W        W44139  16.158   5.556   1.403  0.2615 -0.0301 -0.2322
28006W        W44140   1.613   1.469  13.694 -0.0067  0.1991  0.0996
28007W        W44141   2.330  15.787  14.217 -0.2958  0.4918  0.0638
28008W        W44142  17.636  17.593   1.833  0.1627 -0.0047  0.1539
28009W        W44143   4.970   1.780   0.643 -0.0231 -0.0887 -0.3283
28010W        W44144   1.101   6.526   0.405 -0.1214 -0.2177 -0.1493
28011W        W44145  12.992   7.022  12.686  0.1104  0.0796  0.1646
28012W        W44146  18.527  17.358   1.498 -0.0815  0.1128 -0.0081
28013W        W44147  18.614  15.724   3.741  0.0707 -0.3293 -0.0254
28014W        W44148   5.454   1.979  11.745  0.0267  0.0049  0.0754
28015W        W44149   4.130  12.334  12.334 -0.0113 -0.1847 -0.1977
28016W        W44150   9.943  10.886   0.031 -0.3126 -0.1002  0.0297
28017W        W44151  18.259   9.953  14.437  0.0653  0.2999 -0.0572
28018W        W44152   6.786   9.754  12.109  0.1180  0.0379 -0.0341
28019W        W44153   0.238   0.190  12.814 -0.0332  0.2439 -0.1567
28020W        W44154  13.522  16.745   5.068  0.2668 -0.3428 -0.0458
28021W        W44155   6.130  15.976   3.045  0.0182  0.0498 -0.3300
28022W        W44156   0.416   6.183  14.096  0.1345 -0.0862 -0.4356
28023W        W44157  12.706   9.781   0.084  0.1342  0.0207 -0.1847
28024W        W44158   7.299   4.132   3.159  0.0471 -0.2877  0.0696
28025W        W44159  14.800   5.637  14.873 -0.1739 -0.2401  0.0962
28026W        W44160   6.528   6.690  11.002  0.1522 -0.2845  0.1499
28027W        W44161  16.860  14.216   5.147  0.0817 -0.2470 -0.1455
28028W        W44162   2.342  12.706   2.447  0.1347 -0.2049  0.2056
28029W        W44163  15.271  16.409  13.099 -0.1360 -0.1166 -0.1851
28030W        W44164   9.288   6.300   1.189 -0.1431  0.0048  0.0431
28031W        W44165   6.740  17.681   4.188  0.2849  0.2179  0.1099
28032W        W44166   8.934  14.458  13.472  0.2417  0.3309  0.1204
28033W        W44167  11.825   7.410   2.784 -0.2382 -0.0032  0.0246
28034W        W44168   1.544   1.120   5.306  0.0071 -0.1984 -0.2071
28035W        W44169  10.530   7.420  11.095  0.1963  0.0257  0.0072
28036W        W44170   4.555  10.119   0.980 -0.1455  0.2078 -0.1812
28037W        W44171  14.928  15.320   0.691 -0.0446  0.1417 -0.0435
28038W        W44172   6.506  14.442   1.766 -0.1166 -0.1780  0.1184
28039W        W44173   6.088  15.544  12.063  0.0057  0.2983  0.0599
28040W        W44174  15.165   2.257   1.736  0.0994 -0.0687  0.0686
28041W        W44175  11.062  15.581   2.789  0.1809  0.2076  0.0637
28042W        W44176   5.871   3.624   3.077 -0.1188 -0.1617  0.0029
28043W        W44177  17.779  11.026   3.916 -0.0546  0.1259  0.1817
28044W        W44178   6.391  12.105  12.474  0.1674 -0.0835  0.1860
28045W        W44179  19.146   6.214   2.856 -0.1180  0.2801  0.2896
28046W        W44180   1.980  10.032   4.216 -0.2922 -0.0756 -0.1349
28047W        W44181   4.315   4.065  14.162  0.0617  0.0253  0.0517
28048W        W44182   2.631   6.477   4.575 -0.0431  0.1306  0.0193
28049W        W44183   7.037   7.997   1.358  0.0664 -0.0629 -0.1555
28050W        W44184   1.055   8.606   5.153  0.0456 -0.0211 -0.0213
28051W        W44185   8.408   8.977   1.126 -0.0153  0.1165  0.4704
28052W        W44186   7.406  16.185   0.998  0.3806 -0.3601  0.0984
28053W        W44187  10.453   6.671  12.593 -0.3097  0.1020  0.1656
28054W        W44188   2.582   5.174   3.495 -0.4960 -0.0085  0.1076
28055W        W44189  13.754  11.895  12.053  0.0076 -0.1934 -0.0241
28056W        W44190  13.932  14.417   4.147  0.0352  0.1107  0.3144
28057W        W44191   9.779  14.054  14.766  0.0299 -0.0075  0.0660
28058W        W44192  13.599   9.975   1.670  0.2827  0.1138 -0.0972
28059W        W44193  12.175  15.730  11.499  0.1754  0.0911 -0.0274
28060W        W44194   9.589  10.830  12.265 -0.0105 -0.0886  0.0013
28061W        W44195   0.674   4.899  12.617  0.1865 -0.0582  0.1794
28062W        W44196   2.001  11.920   3.460  0.0747  0.0251 -0.1176
28063W        W44197  14.338  18.886  13.529 -0.3100 -0.4034  0.0646
28064W        W44198  18.473   8.801  12.226 -0.0301  0.1627  0.1200
28065W        W44199  10.554  12.653   0.697 -0.3709  0.0167  0.1253
28066W        W44200  14.607   0.585  14.115 -0.0983  0.1545  0.0798
28067W        W44201   5.162   6.216   1.724  0.0126 -0.1074  0.1264
28068W        W44202   4.497  14.067   2.808  0.1390  0.0947  0.2376
28069W        W44203   0.707   2.163   5.030  0.0069 -0.0589  0.2136
28070W        W44204   9.547  13.135  14.532 -0.0240 -0.1804  0.1123
28071W        W44205   8.926   3.790   2.205 -0.1194  0.3509  0.1727
28072W        W44206   2.356  18.348   5.648  0.0518  0.0458 -0.0593
28073W        W44207  14.925   5.332   2.821  0.3931 -0.2386  0.2787
28074W        W44208  17.900   8.065  12.728  0.0878 -0.0190  0.0839
28075W        W44209  17.601  10.262   4.339 -0.2140  0.4041  0.1281
28076W        W44210   6.075   0.344   2.612  0.3264 -0.0267  0.1359
28077W        W44211   8.667  12.436  11.363  0.1953 -0.0975 -0.0536
28078W        W44212  14.775  17.296   4.803 -0.2834 -0.1473 -0.1447
28079W        W44213   1.557   3.047  13.743 -0.3721 -0.0213  0.1543
28080W        W44214   4.155  17.606   9.331 -0.0110 -0.3656  0.2718
28081W        W44215  16.975  13.256   3.905 -0.1158  0.2092  0.0151
28082W        W44216   6.598   9.077   4.460  0.1728  0.1294 -0.3365
28083W        W44217  12.121   5.267  10.553  0.1607 -0.2431  0.0824
28084W        W44218   2.008   5.984   2.415  0.3617 -0.0298  0.0827
28085W        W44219   9.594   9.678  11.036 -0.0785 -0.2291  0.3102
28086W        W44220   4.427   5.811   0.682 -0.1459  0.1071  0.1325
28087W        W44221   6.203  16.310   4.941  0.0430  0.0145 -0.2961
28088W        W44222   3.113   2.929   1.026  0.1603 -0.1523 -0.1870
28089W        W44223   1.487  18.466  11.529 -0.3824  0.1372 -0.1439
28090W        W44224   6.775  13.406  12.758  0.0493 -0.1741 -0.0165
28091W        W44225  15.928  11.671   5.089  0.1536 -0.0235  0.0515
28092W        W44226  10.276   9.017  13.715  0.0916  0.1553 -0.0964
28093W        W44227   6.670   2.733   4.729 -0.0058  0.1166 -0.2552
28094W        W44228   0.612  14.629   1.073 -0.1828 -0.0004 -0.0466
28095W        W44229   0.353  12.416   0.385  0.1757  0.2537  0.1972
28096W        W44230   3.573  13.932   2.559  0.0237 -0.0621 -0.1295
28097W        W44231   0.452   5.303   3.250 -0.3274 -0.0219  0.1104
28098W        W44232   2.273   6.780  10.836  0.0320  0.0939 -0.0526
28099W        W44233  13.187  15.113   3.112  0.0649  0.2103 -0.0256
28100W        W44234   8.855   0.616   5.141  0.1916  0.0918  0.2610
28101W        W44235   4.344   2.791  12.407  0.2773  0.0113  0.1108
28102W        W44236   3.791  10.635   4.547 -0.4113 -0.0703 -0.3092
28103W        W44237   8.451   6.506   1.706  0.1327  0.0841 -0.2791
28104W        W44238  11.168  14.285  13.276  0.0439 -0.0735  0.0443
28105W        W44239  16.534   1.274  12.694 -0.2024  0.0880 -0.0559
28106W        W44240  17.864   9.693  11.636  0.0247 -0.2149 -0.0899
28107W        W44241   6.430   2.120   1.355 -0.0576  0.2587  0.1430
28108W        W44242   6.442   4.951   1.249 -0.2019  0.1165 -0.0539
28109W        W44243  12.341  13.267  14.824  0.1877 -0.3501  0.2117
28110W        W44244   2.131  15.138   0.609 -0.0870 -0.3099 -0.1074
28111W        W44245  16.862  15.045  10.888  0.0624 -0.0962 -0.0821
28112W        W44246  16.109   4.094   4.799 -0.3485 -0.0067 -0.4653
28113W        W44247  13.425  10.551  14.992  0.2480 -0.1698  0.1652
28114W        W44248   5.995  16.116  12.557 -0.0328 -0.1238 -0.0393
28115W        W44249   4.658  11.478  12.960 -0.0425 -0.1355 -0.0971
28116W        W44250  16.821   9.976  12.947  0.2125  0.3756  0.1096
28117W        W44251   6.395   5.169   3.278 -0.0002  0.0547  0.0566
28118W        W44252  14.953   7.649  11.652 -0.1295  0.3610  0.2122
28119W        W44253  11.141   2.568   3.936  0.0497  0.1305  0.0466
28120W        W44254  11.955  15.992   3.134 -0.3207 -0.0539 -0.0627
28121W        W44255   4.191  18.124  13.372  0.1100 -0.2098 -0.0563
28122W        W44256   4.219   0.420   3.894  0.3950  0.1279  0.0131
28123W        W44257  12.344   5.220   2.308  0.0466  0.2224 -0.0417
28124W        W44258  12.919   9.195  10.660  0.4382  0.1021  0.1384
28125W        W44259   3.185   4.670   4.921  0.1228 -0.1291  0.1121
28126W        W44260   8.431   8.024   2.820  0.1333  0.0400 -0.3838
28127W        W44261  11.815  15.448   2.206 -0.0294 -0.0914 -0.3229
28128W        W44262  17.379   9.489   4.690 -0.1718 -0.2980 -0.0356
28129W        W44263  16.882  19.190   0.870 -0.0545 -0.2279  0.1205
28130W        W44264  14.767  14.879   1.330 -0.1333 -0.0259 -0.2137
28131W        W44265   1.743   0.710   4.569  0.2535 -0.3065  0.3290
28132W        W44266   9.880   1.407  13.492 -0.0069  0.1403  0.3026
28133W        W44267   2.292  13.467  11.425 -0.1080  0.2615 -0.0929
28134W        W44268  18.227  11.504  14.204  0.1777 -0.2078  0.3252
28135W        W44269   6.958  11.208  13.795  0.3764 -0.2728 -0.2217
28136W        W44270   1.303   5.360  14.906 -0.3552  0.1127  0.0644
28137W        W44271  10.370   2.341  11.911  0.1449  0.0291  0.0759
28138W        W44272  12.473  16.940  12.293 -0.1155  0.2666  0.1023
28139W        W44273   7.518   2.922  14.341 -0.2691 -0.3990  0.2694
28140W        W44274   6.081   4.085  12.583 -0.1599  0.0713 -0.1176
28141W        W44275   1.254  18.525   1.496 -0.0304 -0.1137  0.0430
28142W        W44276   8.773   5.879   4.410 -0.0938  0.0517 -0.1903
28143W        W44277  17.177  18.976   0.359 -0.3545  0.2065 -0.0159
28144W        W44278   7.644   0.753   2.340  0.1410  0.3242  0.0358
28145W        W44279   2.174  14.333  13.165 -0.0766  0.1025 -0.0639
28146W        W44280   8.953  17.441   1.067 -0.0130  0.0444 -0.1821
28147W        W44281   6.006  18.074  12.773 -0.0833  0.0951  0.0888
28148W        W44282   4.579   7.886  13.544  0.1360  0.1604 -0.2716
28149W        W44283  13.529   6.142   3.482  0.0516 -0.0517  0.0407
28150W        W44284  10.436  12.530  13.878  0.2554  0.3748 -0.0748
28151W        W44285  13.585  10.595  11.343  0.2167 -0.0732 -0.1925
28152W        W44286  10.918  13.199   2.023  0.3868  0.1232  0.0625
28153W        W44287  19.049   5.485   1.593  0.1697 -0.2909  0.0550
28154W        W44288   1.071  17.750   2.218  0.1125 -0.2528 -0.2238
28155W        W44289  16.445  14.282   1.608  0.1305 -0.1424 -0.1345
28156W        W44290  13.357   6.365   1.658 -0.1443  0.2372  0.0876
28157W        W44291  19.212   4.901   0.723  0.1545  0.1491  0.2292
28158W        W44292  16.974  18.970  11.626 -0.1137 -0.0313 -0.2026
28159W        W44293  12.080   0.670  12.279 -0.2069  0.0042 -0.1400
28160W        W44294   0.224  11.338   4.043 -0.1451  0.0108 -0.2085
28161W        W44295   4.108   5.277   2.526  0.2905  0.1791 -0.3594
28162W        W44296   6.531  10.990   4.693 -0.0353  0.0320  0.0029
28163W        W44297   2.108  13.717  12.906  0.5427  0.0684 -0.3568
28164W        W44298  11.967  13.612  14.987 -0.1539  0.0166 -0.1377
28165W        W44299  11.477  17.483  11.664 -0.0515  0.1149 -0.0329
28166W        W44300  18.865  17.519   4.021  0.1228 -0.1410 -0.2374
28167W        W44301  11.558   5.213  12.350  0.0320  0.1076 -0.0094
28168W        W44302   0.336   9.533   0.578 -0.0154 -0.1141 -0.3067
28169W        W44303  15.500   6.562   3.332  0.0691  0.1059  0.0413
28170W        W44304  10.951   6.885  13.768  0.1224 -0.1096  0.3345
28171W        W44305  15.795  10.610   2.750 -0.0676 -0.0812 -0.1863
28172W        W44306   9.281   4.454  12.127  0.0225 -0.1736  0.2955
28173W        W44307   8.356  10.748   4.245  0.4311 -0.2752  0.1400
28174W        W44308  14.694   7.929   5.264  0.1349  0.1161  0.2569
28175W        W44309  16.003   7.160   2.672 -0.1170  0.1122 -0.0759
28176W        W44310  17.479  17.106  14.366  0.0572 -0.0788  0.1241
28177W        W44311   3.824  12.695  11.517 -0.3280  0.3527 -0.2135
28178W        W44312   7.557   2.117   0.027 -0.2403 -0.0812  0.1102
28179W        W44313   9.195   6.443   4.687 -0.5000 -0.2117  0.1994
28180W        W44314  11.200  18.348  13.046 -0.3049  0.1158  0.0213
28181W        W44315  16.411  18.280  11.319 -0.2090  0.0534 -0.2605
28182W        W44316  17.707  16.694  11.542 -0.1376  0.1283 -0.3752
28183W        W44317  18.732  11.195  12.366  0.0263  0.0779  0.0780
28184W        W44318  15.027  17.920   4.133  0.3228 -0.1393  0.0342
28185W        W44319   4.396  11.528   4.405  0.2574  0.0552  0.1449
28186W        W44320   0.048   0.979   2.004  0.1693  0.0577 -0.3107
28187W        W44321   0.430  13.859   3.967  0.1557  0.3459 -0.0039
28188W        W44322  14.712   8.656  12.136 -0.0231 -0.2031  0.1312
28189W        W44323  11.440   2.235   4.182  0.1009  0.0428 -0.1193
28190W        W44324   2.360  15.334   3.098  0.1435 -0.1465  0.1181
28191W        W44325  14.689  14.274  13.909  0.0068 -0.1284  0.1504
28192W        W44326   5.319   4.166   1.528  0.0755  0.2375 -0.1199
28193W        W44327   0.310   4.095   0.395  0.2755 -0.1206  0.2619
28194W        W44328   2.361  13.824  13.404  0.0877 -0.0975 -0.2079
28195W        W44329   4.204  12.555  11.205  0.3297 -0.0249 -0.1525
28196W        W44330   4.757   6.640  10.644  0.2917 -0.0049  0.0631
28197W        W44331   7.123   8.730  10.868  0.2685 -0.0515 -0.0019
28198W        W44332  10.077  14.165  11.645  0.1426  0.1775  0.2412
28199W        W44333   5.820  13.424   4.049 -0.0460 -0.4259  0.1411
28200W        W44334  18.230   2.175  14.511  0.2906 -0.0441  0.0832
28201W        W44335  13.592   1.891  11.686 -0.2591  0.3830  0.1414
28202W        W44336  13.312   7.498   3.623  0.0158 -0.0260  0.0134
28203W        W44337  13.212  12.003   2.562  0.3285 -0.1163  0.1263
28204W        W44338  16.872   5.903  12.560 -0.1644  0.1239 -0.0887
28205W        W44339   4.540  12.717   3.415  0.2348  0.0162  0.0953
28206W        W44340   4.119   4.571   3.537 -0.4917 -0.2075 -0.1615
28207W        W44341   5.298   3.418   3.372 -0.4603 -0.3704  0.1129
28208W        W44342  18.456  16.067   4.068 -0.1952  0.2118  0.1028
28209W        W44343   8.249   9.189  10.259 -0.0015 -0.0071 -0.0638
28210W        W44344   9.381   9.849   1.034  0.1706 -0.0953  0.2528
28211W        W44345   3.878  16.029  13.750  0.1658  0.0043 -0.0302
28212W        W44346  11.162  16.443  14.554  0.0253 -0.0552  0.0978
28213W        W44347  13.327   6.120   0.227  0.0182  0.0038 -0.1887
28214W        W44348  13.504   4.050  11.216  0.0710  0.1325  0.2253
28215W        W44349   8.122  16.725   4.561 -0.3048 -0.1430 -0.0169
28216W        W44350  18.116   3.946  13.269  0.0278  0.0526 -0.3630
28217W        W44351  15.850  13.416  11.468 -0.0658 -0.0283  0.0174
28218W        W44352   6.449  11.586   0.936  0.3077 -0.2975 -0.2796
28219W        W44353   1.038   4.302   1.660  0.2214  0.3723 -0.3775
28220W        W44354   2.832   2.995  15.039  0.2087  0.2476 -0.0968
28221W        W44355   3.116  13.839  11.990 -0.0267  0.0835  0.1447
28222W        W44356   7.953  13.909   3.334  0.1982  0.1475 -0.1531
28223W        W44357  14.377  17.815   4.136 -0.0620 -0.1504  0.2524
28224W        W44358   3.317  18.430  10.100 -0.0368 -0.0019 -0.0718
28225W        W44359   5.195   7.622  10.527 -0.2279  0.0406 -0.0188
28226W        W44360   1.307  17.220  14.390  0.2134 -0.1538 -0.0119
28227W        W44361   4.113  15.403  10.219  0.0665 -0.0105  0.1202
28228W        W44362   1.324   3.953   4.157  0.0927 -0.1971 -0.0232
28229W        W44363  16.197   4.246  10.561  0.1021  0.0491 -0.0986
28230W        W44364   1.054  18.578   4.552 -0.0320 -0.1957 -0.1059
28231W        W44365   1.923   1.030  12.137  0.0360 -0.0538  0.0730
28232W        W44366   8.799   5.441  12.108  0.2921  0.0572  0.0983
28233W        W44367  16.578  15.853  13.348  0.2290 -0.2036 -0.1004
28234W        W44368   6.069   2.996   4.017 -0.2914  0.0885  0.0797
28235W        W44369  10.362   0.822   4.276 -0.2511 -0.0913  0.0562
28236W        W44370   7.644   2.292   0.507  0.2322  0.5181  0.1155
28237W        W44371  15.875  13.061   9.723 -0.1470 -0.0187  0.1344
28238W        W44372  18.284  10.676  11.037  0.4803  0.2181 -0.1636
28239W        W44373   4.473   2.197   3.564  0.2076  0.2419 -0.1723
28240W        W44374  14.428   1.453  10.192 -0.1013 -0.1726 -0.4320
28241W        W44375  12.261  11.312   5.013 -0.1310  0.0505 -0.1307
28242W        W44376   4.528   9.708  14.447 -0.1256 -0.2146  0.0014
28243W        W44377   5.502   2.120   4.207  0.1312 -0.2827  0.0905
28244W        W44378  15.246   8.949  12.196 -0.0819  0.1738  0.0041
28245W        W44379  18.056   9.258   0.978 -0.2043  0.0168 -0.2935
28246W        W44380   5.586  13.733   2.540 -0.0096  0.0951 -0.0431
28247W        W44381   7.952  10.891   0.541  0.0456 -0.4937  0.0807
28248W        W44382   4.950  17.481   0.827  0.3216 -0.2209  0.2733
28249W        W44383  16.837   5.729   0.002  0.1242  0.2638 -0.3411
28250W        W44384  10.641  12.948   5.840 -0.3421 -0.4763 -0.2677
28251W        W44385  16.536  12.724   4.356 -0.0432 -0.3286 -0.0780
28252W        W44386   3.469   0.863  12.265 -0.1747 -0.0993  0.1851
28253W        W44387   4.531   7.057   3.868  0.0505 -0.1655 -0.0496
28254W        W44388  11.188   4.856  12.233  0.2328 -0.0447 -0.1812
28255W        W44389   1.459  15.368  13.444  0.2156  0.2760  0.0839
28256W        W44390   4.445   8.146  12.779  0.5615  0.1918 -0.0836
28257W        W44391  14.399   1.709  10.764  0.0921 -0.0822  0.0840
28258W        W44392  16.537  14.009  11.060 -0.2777  0.0740 -0.0688
28259W        W44393  15.433   3.855   1.336 -0.0959  0.0877  0.0768
28260W        W44394  18.415  17.595  14.987  0.0153  0.0610 -0.1684
28261W        W44395   7.453  17.758  14.651 -0.1591 -0.1467  0.1678
28262W        W44396  12.526   5.024   3.916  0.0144  0.2781 -0.0548
28263W        W44397   3.674  10.019   0.642  0.2585  0.1271 -0.0378
28264W        W44398   7.797   9.935  11.669 -0.1519 -0.1264  0.0509
28265W        W44399  18.112   0.433  12.997 -0.3669 -0.1074  0.0570
28266W        W44400   1.678   6.275  11.879 -0.0180  0.0383 -0.0314
28267W        W44401   6.003   1.983   4.244  0.0889  0.2598  0.1376
28268W        W44402  12.931  10.654  15.033 -0.0259 -0.3819  0.1291
28269W        W44403  18.649  16.352  12.488  0.1259  0.2736 -0.3542
28270W        W44404  14.696  13.189   0.978 -0.3744  0.0872 -0.0174
28271W        W44405   4.881  17.883  10.019  0.1926 -0.2635  0.1041
28272W        W44406   3.622   9.979  14.338 -0.0794 -0.0621 -0.2835
28273W        W44407  18.257  12.222   4.016  0.0553  0.0209 -0.0204
28274W        W44408   8.137   6.343   3.776 -0.2162  0.0497  0.2085
28275W        W44409   0.216  17.383  12.685  0.1823  0.2144  0.2719
28276W        W44410  16.215   3.260   3.802 -0.0701  0.0632 -0.0667
28277W        W44411   4.937   1.566  14.240 -0.0921  0.3630  0.0214
28278W        W44412   1.496   6.406  10.935 -0.0056  0.0847 -0.2309
28279W        W44413   0.171   7.901  12.925  0.1492  0.1371  0.1590
28280W        W44414   6.626   8.532  10.053  0.4511 -0.1862 -0.0189
28281W        W44415   6.039   8.848   1.376 -0.0040 -0.1110 -0.1220
28282W        W44416  16.566  13.633  11.401 -0.2664 -0.0535 -0.0638
28283W        W44417  11.241  15.800  13.328 -0.3353  0.1681  0.0575
28284W        W44418   7.213   2.431   4.110  0.0948 -0.1927  0.0145
28285W        W44419  13.607  12.842   3.831 -0.1534  0.1863  0.0225
28286W        W44420  13.495  12.757  10.899  0.4019 -0.1555  0.1519
28287W        W44421  16.990  12.713   3.769 -0.0338  0.4113 -0.1380
28288W        W44422   9.332   0.126   4.814  0.1771 -0.1421  0.1126
28289W        W44423  14.457  10.609  10.942  0.0023 -0.2099 -0.0013
28290W        W44424   2.528   2.126  10.570 -0.4226 -0.0917  0.3247
28291W        W44425  11.153  17.372   1.678  0.1333 -0.0457 -0.1493
28292W        W44426  16.875  18.756  13.112  0.2168  0.1061  0.0642
28293W        W44427   5.633   0.406  11.671 -0.2200  0.4596  0.1530
28294W        W44428  16.079   7.517   3.408 -0.1087  0.1291  0.1798
28295W        W44429   3.376   2.237  13.130  0.1122 -0.1698  0.1107
28296W        W44430   9.441  10.555   9.253 -0.1666  0.1045 -0.1078
28297W        W44431  10.751   4.991   1.512 -0.0947 -0.0407  0.3420
28298W        W44432  18.020  18.256   0.453 -0.0332 -0.1448 -0.3569
28299W        W44433  16.716  15.906   0.316  0.0155  0.0934  0.2050
28300W        W44434  18.444   6.395   1.005 -0.4334  0.0826  0.0427
28301W        W44435   7.799  10.181  11.133  0.3890 -0.0749  0.0100
28302W        W44436   3.262  15.845   4.230 -0.0367  0.4770 -0.1803
28303W        W44437   1.082   6.068  12.617 -0.2149  0.1355  0.1035
28304W        W44438   9.968  13.853   2.496  0.2269  0.1450  0.0308
28305W        W44439   7.417   1.022   3.394  0.2014 -0.0027 -0.2280
28306W        W44440  16.962   6.223  11.550 -0.0306 -0.0645 -0.1790
28307W        W44441  12.174   6.994   4.022  0.0552 -0.0127 -0.0677
28308W        W44442  11.824  15.422  11.403  0.0824  0.0808 -0.2292
28309W        W44443   5.961  14.910   0.691  0.0219  0.4132 -0.0532
28310W        W44444  10.811   7.858  10.708 -0.3266 -0.2878 -0.2508
28311W        W44445   1.479  13.113   1.057 -0.3205  0.2595  0.1728
28312W        W44446  17.709   5.030  13.704  0.0696  0.3259  0.0044
28313W        W44447   1.319   9.318  13.155 -0.0960  0.0076 -0.1952
28314W        W44448  15.605   7.181  12.087  0.0683  0.5588  0.0163
28315W        W44449  10.790  16.153   3.924 -0.0990 -0.2354  0.2311
28316W        W44450  15.175   4.120   5.363 -0.0155 -0.2223  0.0386
28317W        W44451   4.356  18.859  13.951 -0.0970  0.2061  0.1580
28318W        W44452   7.265  17.027  12.310 -0.2654  0.0743 -0.1740
28319W        W44453  12.750   1.696  14.142 -0.0279 -0.1519  0.0315
28320W        W44454  11.223  16.951  12.806 -0.3183  0.0255 -0.0022
28321W        W44455   3.306   6.103  13.187 -0.2766  0.2587 -0.3469
28322W        W44456  10.326   8.924   4.766  0.0358  0.0242 -0.1763
28323W        W44457  18.459  11.934   0.635  0.1205 -0.2297  0.1019
28324W        W44458  11.548   8.036   2.003 -0.1102 -0.2701 -0.2169
28325W        W44459   7.488  17.238   1.394 -0.4894 -0.0703  0.0642
28326W        W44460  14.349   0.772  11.465 -0.3043 -0.1114  0.2026
28327W        W44461  10.523   6.014  10.568  0.0206  0.2508 -0.3237
28328W        W44462  12.685  15.626   1.415  0.1470  0.0696  0.1286
28329W        W44463  15.471  13.740   1.504 -0.0535 -0.0470 -0.5780
28330W        W44464   7.727  16.020  12.728 -0.0480 -0.3021  0.0634
28331W        W44465  18.130   5.553  10.665  0.1943  0.1348  0.1546
28332W        W44466   7.325   6.642  11.459  0.1663  0.1090 -0.1770
28333W        W44467  17.190  18.799  14.591  0.3523  0.1368 -0.0096
28334W        W44468   9.091  10.352   3.618 -0.3298  0.0426 -0.0894
28335W        W44469   1.528  10.964  14.419  0.0231  0.0834  0.1008
28336W        W44470  14.344   4.237  11.687 -0.0036  0.1273  0.0006
28337W        W44471   8.571   6.751   0.222 -0.1427  0.1466 -0.1833
28338W        W44472  13.523   9.371  13.609  0.2250  0.2024  0.1908
28339W        W44473  18.758   7.954   3.177 -0.1592 -0.0186 -0.1385
28340W        W44474   1.304   7.427  10.937  0.1266  0.2869  0.1210
28341W        W44475   4.118   8.154  13.311 -0.0592 -0.3349 -0.1449
28342W        W44476  11.266  18.896  13.229 -0.0672 -0.1926 -0.0088
28343W        W44477   3.521   8.687  12.316 -0.2426 -0.2244  0.0733
28344W        W44478  10.406  10.047  10.565  0.1011 -0.3214  0.0897
28345W        W44479  16.989   0.796   4.603 -0.0941 -0.0263 -0.1233
28346W        W44480   5.455   4.838   1.588 -0.2788  0.0488  0.0735
28347W        W44481   6.086   3.593  13.538  0.0051 -0.0077 -0.0572
28348W        W44482   0.886  17.465  14.863  0.0542  0.0112  0.1189
28349W        W44483   0.275   3.342  10.459  0.3167  0.0164  0.0680
28350W        W44484   1.063  16.415  14.761  0.1692 -0.0387  0.0730
28351W        W44485  14.449   7.287   1.646  0.2724 -0.3644 -0.0312
28352W        W44486   6.013  17.625  13.032 -0.0912 -0.1727 -0.0374
28353W        W44487  15.429  15.299   4.734 -0.0271  0.0595  0.0544
28354W        W44488  12.086  12.824   0.548 -0.1238 -0.0679 -0.1687
28355W        W44489   2.484  12.886  11.908  0.3228 -0.1495 -0.1364
28356W        W44490   6.102  16.468   1.037 -0.1319 -0.3976  0.2105
28357W        W44491  12.723  11.146   1.970  0.0692  0.2410  0.2464
28358W        W44492   3.475   8.212   1.253  0.1311  0.1019  0.0742
28359W        W44493  14.603  18.685   3.688 -0.0954 -0.2232 -0.0279
28360W        W44494  14.289  13.771  13.225  0.3116 -0.0854 -0.1928
28361W        W44495  16.639   4.474  10.615 -0.2161 -0.2687  0.2437
28362W        W44496   2.227  16.278   3.885 -0.1662 -0.0767  0.1229
28363W        W44497  16.823  10.131  11.800  0.2331 -0.1562 -0.2045
28364W        W44498  10.340  16.500  11.241 -0.1131 -0.0238  0.1425
28365W        W44499  17.751   7.609   1.427 -0.0808  0.0433  0.0136
28366W        W44500  17.877   6.402   4.956  0.0590 -0.0057  0.2321
28367W        W44501  16.871  18.518  11.542 -0.1739 -0.1081  0.1359
28368W        W44502  15.696   6.509   2.679 -0.3076 -0.3157  0.0857
28369W        W44503  16.540   8.784  11.995  0.2726  0.3428  0.1105
28370W        W44504  16.827   5.849   1.147  0.0570  0.2587  0.2362
28371W        W44505   2.355   4.627   1.118  0.1825 -0.0048  0.3508
28372W        W44506  12.263  11.350   4.300 -0.1154 -0.3181 -0.1936
28373W        W44507  17.491   7.158  12.446  0.0385  0.1144 -0.4330
28374W        W44508   7.210  15.000  11.321 -0.1293  0.1615 -0.3971
28375W        W44509  13.278   8.766  11.263 -0.0633 -0.3754 -0.0121
28376W        W44510  11.608   1.331   2.523 -0.2014 -0.0642  0.2628
28377W        W44511   1.404  16.500  10.659 -0.1970  0.0584 -0.0566
28378W        W44512   7.437  14.854   0.314  0.2487  0.0693 -0.0531
28379W        W44513   5.896  11.016   0.385 -0.0214  0.4111 -0.1208
28380W        W44514   1.224   9.105   3.554 -0.1360 -0.1369 -0.0069
28381W        W44515   9.728   2.071  10.497 -0.1802 -0.0208  0.2089
28382W        W44516  10.230   3.986  10.530  0.0202 -0.2555 -0.3830
28383W        W44517   9.086  15.549  14.639  0.3065 -0.2307 -0.0606
28384W        W44518  13.782   5.689   3.427 -0.1058  0.0618 -0.2755
28385W        W44519  18.932   4.846   4.715  0.1477  0.3464 -0.0434
28386W        W44520   6.309   6.844  13.452 -0.2047  0.1690  0.1838
28387W        W44521   7.956  15.575   4.283  0.1807  0.1606 -0.1787
28388W        W44522   0.223  13.154  14.944 -0.0905 -0.1311  0.1032
28389W        W44523  18.194   5.520  12.557 -0.1492 -0.0793  0.0416
28390W        W44524   7.679   5.072  12.906  0.1392 -0.2298  0.2629
28391W        W44525  18.517  18.138   4.423 -0.0590  0.5197 -0.0319
28392W        W44526   8.546   7.908   2.160  0.0946 -0.0847  0.2075
28393W        W44527   7.284   8.755  11.339 -0.0432  0.1444  0.1418
28394W        W44528   7.840  12.598   4.429  0.2105 -0.0012  0.0991
28395W        W44529  18.233  13.366  11.220  0.0337 -0.1402  0.1261
28396W        W44530  18.714  15.389   0.683  0.4215  0.0629  0.0482
28397W        W44531  19.018  14.691  13.170  0.1145  0.1771  0.1434
28398W        W44532  18.404   0.511  14.279  0.2950 -0.1832 -0.2009
28399W        W44533   8.180   3.820   4.856 -0.6328 -0.2937 -0.0344
28400W        W44534   6.494   5.589  12.739 -0.0334  0.1119  0.2337
28401W        W44535  17.689  16.632   4.278 -0.0197 -0.1934  0.1864
28402W        W44536   8.499  18.936  12.748  0.0151 -0.0789 -0.0840
28403W        W44537   9.921  17.345   9.753  0.0850  0.2282 -0.0811
28404W        W44538  15.365  16.799  13.999 -0.0048 -0.2286  0.0315
28405W        W44539   7.421  18.422  11.314  0.0093 -0.1553 -0.0551
28406W        W44540   6.162   2.498   1.108  0.3609 -0.5678 -0.1196
28407W        W44541   2.751  13.564  10.221  0.0227 -0.0663 -0.1252
28408W        W44542   2.490   6.695  12.727 -0.0289  0.1145 -0.3253
28409W        W44543   6.081  13.766   5.247  0.0510  0.1012  0.0377
28410W        W44544   8.152  13.220  11.523  0.1330  0.1787 -0.1678
28411W        W44545  11.067  12.595   4.123 -0.3825 -0.0777 -0.0782
28412W        W44546   0.589   3.356   2.557 -0.1986 -0.3741 -0.1519
28413W        W44547   1.272   8.684   5.643 -0.0474  0.1493 -0.0731
28414W        W44548  14.620   8.651  11.073  0.1165  0.2087 -0.0400
28415W        W44549   8.270  17.113  12.500 -0.1000 -0.0945 -0.1214
28416W        W44550  13.425  11.846   1.868 -0.2011  0.0025  0.0640
28417W        W44551   8.464  15.237   1.426  0.0703 -0.0584  0.0292
28418W        W44552   7.244   9.746  13.372  0.0502 -0.0617  0.0032
28419W        W44553   7.526   9.491  12.619  0.0914 -0.0146  0.2174
28420W        W44554  14.806   1.182  12.095  0.1250  0.2394  0.1216
28421W        W44555   8.780  11.983   0.231  0.1669  0.2232  0.0415
28422W        W44556  11.764   6.739  14.478  0.1208 -0.1954  0.1983
28423W        W44557   2.273  10.895  14.864  0.2027 -0.0631  0.3002
28424W        W44558   7.202   5.750  13.380  0.2797 -0.0925 -0.0323
28425W        W44559  10.506   4.616  12.488 -0.0235  0.2294  0.4150
28426W        W44560   3.615  15.224   5.203 -0.2636  0.4074  0.1750
28427W        W44561  12.959   8.754  13.670 -0.3010 -0.2695  0.0276
28428W        W44562  17.948  17.866  12.456  0.0888 -0.1321  0.3389
28429W        W44563  13.799  12.973  12.959  0.3389  0.0520  0.1731
28430W        W44564   0.494   4.068  12.096  0.1359 -0.0995  0.0311
28431W        W44565   9.280   7.417   2.619  0.0589 -0.2267  0.1384
28432W        W44566   5.720  11.960  10.376 -0.0316  0.2045  0.2052
28433W        W44567   0.801  13.995  14.387  0.0372 -0.0831 -0.0466
28434W        W44568  18.162   2.304   2.709 -0.0656 -0.0930 -0.0465
28435W        W44569  11.467  17.820   4.609 -0.2079 -0.1159  0.0574
28436W        W44570  12.697  12.988   4.620 -0.3144  0.2790  0.1155
28437W        W44571  17.756   0.299  12.705  0.1238  0.3702 -0.0150
28438W        W44572  14.316   3.096   2.462  0.2379 -0.2844 -0.2086
28439W        W44573  10.824   0.189  12.234 -0.0475 -0.0612 -0.1701
28440W        W44574  14.693   2.746  12.593 -0.3379  0.5299 -0.1952
28441W        W44575  17.330   7.763   5.192 -0.2688 -0.0940 -0.2130
28442W        W44576   4.974  18.267   2.383 -0.1237  0.1325  0.0078
28443W        W44577  12.056   4.247   1.159  0.1025 -0.0112 -0.1057
28444W        W44578   1.433  15.202  10.855 -0.0194  0.0660  0.1872
28445W        W44579   6.761   6.219   3.300  0.0512 -0.3144  0.1362
28446W        W44580  16.787   0.243   3.332  0.0938  0.1017 -0.1746
28447W        W44581   1.678   1.903  12.636 -0.3002  0.1118 -0.4410
28448W        W44582   5.427  15.469  11.577  0.2378 -0.1643  0.3023
28449W        W44583  14.240   6.650   5.215  0.1519 -0.0022  0.3390
28450W        W44584  17.404  10.788   1.784 -0.4950  0.1066 -0.1513
28451W        W44585  10.237   3.248   9.967 -0.0496 -0.0342 -0.0895
28452W        W44586  18.478  10.839  12.151 -0.2687 -0.1440 -0.1175
28453W        W44587  11.946  14.370  12.733  0.0254 -0.1800 -0.2753
28454W        W44588   4.648  11.746  14.083 -0.0567  0.2115  0.1007
28455W        W44589  17.696   4.109   2.808  0.0301  0.3681 -0.0600
28456W        W44590   0.401   3.760   2.265 -0.1953 -0.0199 -0.3103
28457W        W44591   5.611   1.265   4.213  0.0775 -0.0750 -0.2163
28458W        W44592   6.412   5.979  10.306 -0.0492 -0.0432  0.0962
28459W        W44593  18.240   7.476   4.111  0.1712  0.6258 -0.0109
28460W        W44594  12.765   4.734   1.832 -0.1959 -0.1431  0.4178
28461W        W44595   2.115   2.473   2.886 -0.0009 -0.0518  0.2009
28462W        W44596   9.805   4.148   1.056 -0.0293 -0.1679  0.0129
28463W        W44597  10.293  10.235   0.592  0.0157 -0.0731 -0.0265
28464W        W44598   7.666  17.416   3.310 -0.2251  0.1865  0.0190
28465W        W44599   6.753   5.741  13.654 -0.0907 -0.2514  0.1793
28466W        W44600   4.594   4.539  11.056  0.2290  0.2041  0.2278
28467W        W44601   3.173  12.680   3.922 -0.2247  0.0791 -0.0714
28468W        W44602  11.258   5.765  14.222  0.1412  0.0501  0.0654
28469W        W44603   1.164   4.171  14.243 -0.0988 -0.1103  0.1023
28470W        W44604   6.517  16.275  11.354  0.2107 -0.1633  0.0429
28471W        W44605  15.528  12.068  12.883 -0.0417  0.2312 -0.3749
28472W        W44606   0.296  11.102   0.161  0.1750 -0.0429 -0.4456
28473W        W44607  13.047   2.056  13.913  0.2176  0.2889 -0.3292
28474W        W44608  18.691   5.811  13.541  0.0217 -0.0308  0.1417
28475W        W44609  17.891   7.857  13.158  0.1363 -0.0046 -0.0456
28476W        W44610   7.175   8.265  12.197 -0.3223  0.0601  0.1506
28477W        W44611   3.863  13.464   2.632  0.1329  0.0138  0.0342
28478W        W44612   7.581  16.079  11.583  0.5248  0.1443  0.1609
28479W        W44613   3.669  10.763   1.096 -0.0581  0.1606 -0.0112
28480W        W44614  15.571   5.443  13.894  0.2025 -0.2750 -0.3739
28481W        W44615  10.535   2.206   2.640 -0.1471  0.2033 -0.3002
28482W        W44616  14.192   1.062   3.117  0.3944  0.0017 -0.0463
28483W        W44617   7.537  18.212  14.498 -0.0164  0.1339 -0.0837
28484W        W44618  11.125   1.894   3.814  0.0585 -0.1261 -0.1091
28485W        W44619   5.630  15.981   4.106  0.0780  0.0638 -0.2940
28486W        W44620   2.355  15.203  14.143 -0.2058 -0.4185 -0.0473
28487W        W44621  12.114  19.096  11.472  0.2236  0.0209 -0.0475
28488W        W44622  13.348   3.425   1.359  0.0584  0.0466  0.0480
28489W        W44623  13.757   8.899   4.803  0.2723  0.0429 -0.0426
28490W        W44624   9.489  11.020   3.560 -0.1730 -0.2815  0.0426
28491W        W44625  14.618   8.005  10.089  0.3334 -0.1728 -0.1041
28492W        W44626   1.138   8.883  11.541  0.0668  0.1836  0.0064
28493W        W44627  12.547  11.883   4.221 -0.1807  0.0487  0.1883
28494W        W44628   9.856   2.540  14.152 -0.1552 -0.0456 -0.1523
28495W        W44629   0.161   5.694   3.290  0.2315 -0.2260 -0.2986
28496W        W44630  17.757   0.272  14.944 -0.3507 -0.2082 -0.1432
28497W        W44631  14.427   1.289   2.372 -0.1959 -0.2278  0.2731
28498W        W44632  12.047  14.189  13.197  0.0633  0.2825  0.2670
28499W        W44633   7.531  12.284   9.694  0.1031  0.1429  0.2063
28500W        W44634  17.868  10.386  10.956 -0.1645  0.1139 -0.0405
28501W        W44635   9.456  18.868   9.847  0.0194 -0.0505 -0.1314
28502W        W44636   5.221   4.693  13.051 -0.0007 -0.1458  0.0362
28503W        W44637  11.347  12.423  13.500 -0.2079  0.1780  0.2329
28504W        W44638  13.144  15.653   3.253  0.0269  0.1561  0.3312
28505W        W44639   1.177   7.448   9.623 -0.2694  0.1388  0.2885
28506W        W44640  15.729  14.127  14.745  0.3077 -0.1177  0.1783
28507W        W44641   9.928  15.810  12.274 -0.0848 -0.0771  0.0345
28508W        W44642  15.148  14.574   0.163 -0.1559 -0.2811  0.4587
28509W        W44643   8.112  18.709   9.558 -0.1100 -0.2192  0.1477
28510W        W44644  11.051   5.654   3.047 -0.0718  0.2421  0.0415
28511W        W44645  15.500  17.206   2.076  0.1654 -0.4196  0.0153
28512W        W44646  10.069  14.422  13.758  0.0368 -0.0627  0.1707
28513W        W44647   0.890   1.676   2.886  0.1469  0.3592 -0.2006
28514W        W44648   2.149   1.795  12.781  0.0139 -0.1608  0.2355
28515W        W44649   4.596  13.489   1.338 -0.2374  0.4627  0.2230
28516W        W44650  15.769   7.133  14.626  0.0809 -0.0371  0.1331
28517W        W44651   9.329  19.063  10.429 -0.1889 -0.0159  0.1211
28518W        W44652  15.635   5.435  11.091  0.3167  0.1114  0.0192
28519W        W44653  18.857  14.731  12.692 -0.0514 -0.4316 -0.1383
28520W        W44654   6.847   9.979  10.705  0.3852  0.3287  0.4074
28521W        W44655  12.927  18.900  13.573 -0.1162 -0.1501  0.1043
28522W        W44656   3.796   4.500   2.177  0.2188  0.1797  0.2169
28523W        W44657  17.971  12.977   4.157  0.1056 -0.1001 -0.2705
28524W        W44658  17.301  17.211   3.441 -0.1884 -0.2649 -0.3289
28525W        W44659   5.270  13.807  14.431 -0.1035 -0.0501  0.0156
28526W        W44660  14.968  15.779  12.379 -0.0802  0.1539  0.5260
28527W        W44661  10.783  16.126  13.728  0.1366  0.0540 -0.0108
28528W        W44662   0.213  17.760   6.098 -0.0925 -0.1328 -0.0543
28529W        W44663  11.212  12.371   0.313  0.0962  0.0918  0.3231
28530W        W44664  19.024  19.217  12.633 -0.0286  0.1357  0.0939
28531W        W44665   5.136  10.933   3.489 -0.1333 -0.1430  0.0437
28532W        W44666  16.472   8.774   4.553  0.0218  0.1889  0.2413
28533W        W44667   7.535  14.027   5.477 -0.2204  0.3685  0.2090
28534W        W44668   0.903   9.665  14.693 -0.0547 -0.1385 -0.3450
28535W        W44669   1.542   1.682   2.189  0.0239 -0.0064  0.3113
28536W        W44670  13.969   8.508   2.763 -0.0237 -0.4286 -0.0639
28537W        W44671   7.638   5.453  10.837 -0.1661  0.1449 -0.0142
28538W        W44672   9.086  19.170  12.719  0.2619  0.0536  0.0162
28539W        W44673  13.289  10.963  11.165  0.0906  0.0326  0.2364
28540W        W44674   8.436  16.765   2.323 -0.1740 -0.1526  0.1039
28541W        W44675  13.428  10.770  12.172  0.0817 -0.2862  0.4392
28542W        W44676  17.191   6.554  14.209 -0.3834  0.2564  0.1282
28543W        W44677  11.747   2.695   0.452 -0.3720 -0.6191 -0.0275
28544W        W44678   5.739   1.240   0.126  0.2379  0.3204 -0.0183
28545W        W44679  18.324   1.350  10.805 -0.2409 -0.0758  0.0216
28546W        W44680   8.090  18.753   3.065 -0.1459  0.1353  0.1959
28547W        W44681  15.904  14.568  12.561  0.0603 -0.0879  0.0283
28548W        W44682  15.946  14.462   0.460 -0.0737 -0.0379  0.7369
28549W        W44683   9.309  13.650  13.735  0.1191 -0.1225 -0.3173
28550W        W44684  12.487   1.596  13.207 -0.1398  0.1202 -0.2440
28551W        W44685  13.955  16.627  10.050 -0.2277 -0.0590 -0.1409
28552W        W44686   1.443  17.494  11.031  0.1087  0.1084 -0.1572
28553W        W44687   1.147   8.129   3.870  0.2070 -0.1908 -0.0964
28554W        W44688  16.963  18.760   2.102  0.1293 -0.0647  0.0471
28555W        W44689   6.561   4.929   2.511  0.0337 -0.1042 -0.0523
28556W        W44690  16.151   6.561   2.332  0.2083  0.1605 -0.2190
28557W        W44691   3.115  12.122  12.242 -0.1441  0.1004  0.0801
28558W        W44692   1.799   6.807   3.912 -0.1775 -0.0981 -0.0723
28559W        W44693   0.262   8.542  13.274  0.1311 -0.1163  0.4179
28560W        W44694   3.966   3.422   0.336  0.2665 -0.3936  0.0541
28561W        W44695   8.749   6.474   2.907 -0.1406  0.2111 -0.0267
28562W        W44696   4.232  17.107  13.190  0.2935  0.2452  0.1604
28563W        W44697   1.557   8.879   0.806  0.0058  0.0667 -0.0081
28564W        W44698   7.079  13.439   0.263  0.0898 -0.2322 -0.1368
28565W        W44699  10.113   4.387  12.296  0.1631 -0.2407  0.0144
28566W        W44700   1.644  19.008   5.255  0.3093  0.2566  0.0622
28567W        W44701  10.516  10.486   3.545 -0.2337 -0.0954 -0.1367
28568W        W44702  12.377  16.201   2.937  0.0713 -0.1394 -0.1480
28569W        W44703   0.200   0.722   0.384 -0.1098 -0.0163  0.2278
28570W        W44704   7.987   6.483   1.401  0.2534 -0.1764 -0.1128
28571W        W44705  10.984   6.549   2.399  0.1111 -0.1665  0.3349
28572W        W44706   5.351   3.244  11.818  0.0088  0.0369  0.0992
28573W        W44707   3.627  12.856   3.037 -0.3192  0.0804 -0.1056
28574W        W44708   1.261   6.853  12.892  0.1789 -0.0373  0.1724
28575W        W44709  11.385   0.858   1.540  0.3187 -0.0113  0.1669
28576W        W44710   2.874   5.153  13.736  0.0610  0.0015  0.1167
28577W        W44711   0.064   2.956   1.477  0.0090  0.0123  0.0193
28578W        W44712  18.891   5.602   3.493 -0.0147 -0.1891 -0.0437
28579W        W44713   3.842   0.269  13.362 -0.3504  0.2503  0.0459
28580W        W44714   7.177  19.090   2.959 -0.1770 -0.0490 -0.0737
28581W        W44715   8.605   8.123  13.621  0.1332 -0.0163  0.0979
28582W        W44716  11.802   5.156   0.980  0.1577  0.2372  0.2336
28583W        W44717   9.138   2.085  13.092 -0.0060 -0.0441 -0.3380
28584W        W44718   9.765  14.817  13.258 -0.2723 -0.1943  0.2103
28585W        W44719   0.972   4.467   2.147  0.2963  0.1409  0.0007
28586W        W44720   4.692  11.104   4.239 -0.1630 -0.1830 -0.0927
28587W        W44721   5.933   4.138   3.323  0.1609  0.1442 -0.0488
28588W        W44722   3.160  15.016  11.832 -0.1665  0.1235  0.1144
28589W        W44723   8.862   8.194   0.420  0.1024 -0.1093 -0.5773
28590W        W44724   5.535  13.480  12.147  0.3641  0.1724  0.0546
28591W        W44725   2.941   0.878  10.815  0.1550 -0.0463 -0.0167
28592W        W44726   0.625   9.532   4.624 -0.2223  0.1750 -0.1033
28593W        W44727   8.924   1.806   1.652 -0.1343  0.0402 -0.4443
28594W        W44728  15.671  17.790  10.784  0.1152 -0.1524 -0.1073
28595W        W44729   3.528  16.244   0.037 -0.1305 -0.0875 -0.0701
28596W        W44730   2.510  17.749  10.647 -0.3137  0.2663 -0.1601
28597W        W44731   8.416   4.923   2.809  0.0207  0.0823 -0.1458
28598W        W44732   7.857   3.334   3.483 -0.2825  0.0534  0.0968
28599W        W44733  12.547  15.912   2.537 -0.0907  0.0231 -0.3343
28600W        W44734   6.112   5.504   3.468 -0.1183  0.1339 -0.1412
28601W        W44735   0.124  11.832   5.327  0.2738  0.0183  0.1077
28602W        W44736   8.458  12.366   1.205  0.1154  0.0098 -0.0424
28603W        W44737  12.076   9.552   3.432 -0.2691 -0.0405  0.0059
28604W        W44738   3.034  18.501   2.910 -0.0058 -0.0540  0.0565
28605W        W44739  18.635  19.182  13.599 -0.0968 -0.0027 -0.0667
28606W        W44740   9.084   9.597  14.562 -0.3930 -0.2749 -0.0761
28607W        W44741  16.313   6.432   4.029  0.0600  0.0463  0.4680
28608W        W44742  18.371   6.728  10.629 -0.0632 -0.0684  0.0652
28609W        W44743   4.316  13.062   0.838 -0.2536 -0.0252 -0.0649
28610W        W44744  14.821  15.783   2.695 -0.0799  0.1220  0.0754
28611W        W44745  18.274   1.388   2.671 -0.3808  0.2794 -0.1527
28612W        W44746  15.618  16.373   0.774 -0.1743 -0.2167  0.2343
28613W        W44747  10.832   5.588  14.637  0.0645 -0.1542  0.2531
28614W        W44748  18.382  16.371  14.757 -0.2100  0.3092  0.1310
28615W        W44749   3.364  17.514  10.569  0.1010 -0.0059  0.0188
28616W        W44750  14.861  16.895   0.592  0.2168 -0.1810 -0.1853
28617W        W44751   9.838   1.024   0.561  0.0872 -0.0437  0.2546
28618W        W44752  18.629   4.821  14.369 -0.0028 -0.3640 -0.1570
28619W        W44753   4.952  11.981   1.723 -0.0251 -0.3939 -0.1976
28620W        W44754   0.774   7.672  10.447  0.0072  0.2249  0.2150
28621W        W44755   2.986   2.823  10.599  0.1508  0.0399  0.2415
28622W        W44756   7.344  18.776  11.701  0.1954  0.0059 -0.1600
28623W        W44757  17.635   2.121  13.727 -0.1471  0.0634 -0.2324
28624W        W44758   8.507   9.655   0.726 -0.2019  0.0161  0.4644
28625W        W44759   0.680  17.452   4.516  0.2238 -0.1297 -0.1105
28626W        W44760  18.224  14.833  11.451 -0.1634  0.1516  0.0636
28627W        W44761  18.942   7.561  12.158  0.2456 -0.0833  0.1722
28628W        W44762  16.817  11.822  11.418  0.0895 -0.0666  0.3376
28629W        W44763   6.472  15.556  13.246 -0.0703  0.0383 -0.0708
28630W        W44764   4.415  12.623   0.675 -0.0616 -0.1925 -0.0408
28631W        W44765   4.433  14.363   5.276 -0.0305 -0.0112 -0.2700
28632W        W44766  11.958  12.127   3.246  0.0596  0.3373  0.2568
28633W        W44767   4.228   5.153   2.059 -0.0229  0.2753 -0.2072
28634W        W44768   7.991   4.968   3.754  0.2368  0.0474 -0.3280
28635W        W44769   9.212  15.383   0.042 -0.0815  0.1672  0.0552
28636W        W44770  18.044  13.941   5.039  0.0016 -0.0109 -0.1149
28637W        W44771   9.345   7.038   0.600 -0.2410  0.1185 -0.2935
28638W        W44772   1.820   6.218  11.291 -0.0992 -0.0244  0.0532
28639W        W44773  14.626  17.445   3.928  0.0740  0.0565  0.0375
28640W        W44774   0.275  16.367   1.598  0.1560 -0.0795 -0.0899
28641W        W44775   9.312   8.069   3.716  0.2114  0.0898 -0.1192
28642W        W44776   9.875   2.386  11.525  0.0527 -0.1396  0.0681
28643W        W44777   5.451  16.086   2.162 -0.0440 -0.2997 -0.0191
28644W        W44778   9.182   7.097   3.508 -0.0559 -0.1443  0.1054
28645W        W44779  17.812  11.512   2.488  0.1708  0.1526 -0.4319
28646W        W44780  16.377  18.550   0.143 -0.2723 -0.0245  0.0714
28647W        W44781  13.014  14.992  11.581 -0.3103  0.0783 -0.1906
28648W        W44782   6.876  18.029  12.824 -0.0686 -0.1364  0.2190
28649W        W44783   5.428  15.626   0.034  0.1210  0.0302  0.1096
28650W        W44784   1.937  17.759   4.700  0.2239  0.0560  0.2019
28651W        W44785  10.891   2.317  14.205 -0.1463  0.1902 -0.2742
28652W        W44786  15.192   1.946   4.957  0.2451  0.1480 -0.0392
28653W        W44787  16.860   5.345  14.267 -0.1502 -0.0101 -0.1345
28654W        W44788  14.865  10.667   1.747  0.1754 -0.0393 -0.0565
28655W        W44789   8.009   2.837  12.667  0.2049 -0.1544  0.0835
28656W        W44790   4.241   4.199  13.416 -0.0575  0.5651 -0.3160
28657W        W44791  15.574  17.829   0.432  0.1430 -0.1714 -0.0861
28658W        W44792   4.187   7.150  11.042 -0.0385 -0.3121 -0.0353
28659W        W44793  16.524   5.791   2.586  0.1150  0.0260 -0.0426
28660W        W44794  18.533  14.705  13.105 -0.1496 -0.3309 -0.0956
28661W        W44795  14.439   4.463   4.812 -0.2185 -0.1148  0.0799
28662W        W44796   7.855   5.722   2.180 -0.5857  0.0571 -0.0617
28663W        W44797  15.705  10.115  11.263 -0.0917 -0.0096  0.0653
28664W        W44798   4.574  15.093   3.035 -0.1145  0.0001  0.2626
28665W        W44799   2.485   5.357  13.985 -0.2242  0.2236 -0.0783
28666W        W44800  11.818   4.623   4.460  0.0146  0.1532 -0.1664
28667W        W44801  14.288  12.018   3.082 -0.2110  0.0759  0.3144
28668W        W44802   4.880  13.408  12.974  0.0869 -0.1989 -0.0778
28669W        W44803   4.902  19.000  13.138  0.1931  0.0257  0.1509
28670W        W44804   2.425  10.955   1.508 -0.0676 -0.0695  0.1043
28671W        W44805   9.688   0.770  14.981 -0.1513 -0.1052  0.0149
28672W        W44806   9.383  18.015  12.927  0.2051 -0.0332 -0.0267
28673W        W44807  12.029   5.120   3.817  0.1740 -0.2391  0.2630
28674W        W44808  15.366   0.250   0.693  0.1872  0.0795  0.0184
28675W        W44809   0.365  16.614   2.469 -0.0898 -0.1411 -0.2320
28676W        W44810  11.747   1.113  13.463 -0.3946  0.4882  0.0152
28677W        W44811   2.396  10.588   1.927  0.0976  0.1785  0.0281
28678W        W44812   3.815  18.244   4.340 -0.3876 -0.2302  0.1340
28679W        W44813  13.560  13.880  14.379  0.0381  0.1274 -0.1083
28680W        W44814  14.635  18.826   0.768 -0.3787 -0.1379  0.0647
28681W        W44815  11.167  15.526  11.034  0.3167  0.0187  0.2631
28682W        W44816   9.225   3.460  11.239  0.0277 -0.1937 -0.0646
28683W        W44817   5.707   5.956   0.672 -0.1353 -0.1662  0.0311
28684W        W44818  17.217   3.814  13.795 -0.1763 -0.1880 -0.0327
28685W        W44819  15.790   3.895  10.578  0.0656 -0.1653  0.0388
28686W        W44820  17.842  11.368   0.136  0.0321  0.0160 -0.0914
28687W        W44821   0.984   7.206  12.019  0.1056 -0.0908 -0.0952
28688W        W44822   8.579  11.029   4.826 -0.0179 -0.1030  0.3837
28689W        W44823   8.027  18.834   4.827  0.0344  0.4451  0.0389
28690W        W44824   4.381   5.403  11.470  0.0739 -0.1383 -0.0800
28691W        W44825  14.797   7.996   3.857  0.0900 -0.3135  0.1045
28692W        W44826  15.751   0.246   1.542 -0.0598 -0.3196 -0.1252
28693W        W44827   3.893   6.179   4.344 -0.2946  0.1366 -0.1589
28694W        W44828   6.931  11.050   2.004  0.0104 -0.2121  0.1064
28695W        W44829   2.904   9.465  12.684  0.2172 -0.1171  0.2708
28696W        W44830  11.378   4.705  10.370  0.2271 -0.1283 -0.0085
28697W        W44831  17.843   0.453   0.616  0.0643  0.3851 -0.1607
28698W        W44832  11.502  17.816  14.900 -0.1395  0.0588  0.0844
28699W        W44833  13.122  18.456  13.625  0.0110 -0.0479  0.0589
28700W        W44834   6.999   4.439  14.066 -0.2589 -0.1476  0.1939
28701W        W44835   3.315  12.530  12.406 -0.0554 -0.0064 -0.0282
28702W        W44836  14.116   8.526  11.346  0.0954  0.0744  0.1897
28703W        W44837  13.305   0.536   3.932 -0.2375  0.0461  0.3897
28704W        W44838  12.003   1.608   2.754 -0.0057 -0.0881  0.1390
28705W        W44839  18.655  12.871   0.925  0.1342 -0.1245 -0.2140
28706W        W44840   1.082  15.727  14.312  0.1255  0.0442 -0.1728
28707W        W44841   7.462  18.722  14.235 -0.1141  0.2704  0.0124
28708W        W44842  10.061   9.036  12.452  0.0695  0.0164 -0.2404
28709W        W44843  16.759   0.390   1.809 -0.1486 -0.0206  0.0414
28710W        W44844  18.757  10.697  10.693  0.0557 -0.4407 -0.0301
28711W        W44845   3.707   9.811   0.124  0.1009  0.0380 -0.2837
28712W        W44846  10.932   3.092  13.236  0.0025 -0.0543  0.2134
28713W        W44847  14.854   6.835   2.857  0.2352 -0.0687 -0.2598
28714W        W44848   1.022   3.122   3.592 -0.1319  0.1591  0.1312
28715W        W44849   3.554   7.534   1.389  0.0815 -0.1227  0.0465
28716W        W44850  14.232  15.512   4.765 -0.0044  0.1197  0.3350
28717W        W44851   8.804   7.648   0.587 -0.3440  0.1088  0.1060
28718W        W44852   6.326   9.519  13.847 -0.1767 -0.0128  0.0286
28719W        W44853   1.256  14.120   4.640 -0.2276 -0.0522  0.2431
28720W        W44854  16.684  14.727  14.848  0.1497 -0.1192  0.2585
28721W        W44855   2.985  15.054  13.605  0.0990  0.1499  0.0133
28722W        W44856  13.877  15.961   1.460  0.2549  0.0294  0.1909
28723W        W44857  11.033  14.184  10.153  0.1818 -0.0072 -0.1203
28724W        W44858  12.425  18.790  10.745  0.2240  0.2679 -0.1468
28725W        W44859   2.492   5.919  12.077 -0.0890 -0.2737  0.1468
28726W        W44860  17.026   0.687   0.302 -0.1042 -0.1854  0.2676
28727W        W44861  11.994  10.591  13.160  0.3025 -0.0837 -0.0772
28728W        W44862  13.013  12.035  13.343  0.0325  0.0125  0.0119
28729W        W44863  16.831   3.057   3.236 -0.2782  0.1781 -0.1816
28730W        W44864   7.676   3.093  14.809 -0.0907  0.1801  0.1673
28731W        W44865   5.593  16.343  13.936 -0.0649  0.5074  0.1765
28732W        W44866  10.774  14.725   5.793 -0.2943 -0.0830  0.0587
28733W        W44867  12.907  15.549   4.529 -0.2158 -0.0380 -0.2532
28734W        W44868   7.610  14.380  10.845  0.2446  0.1678  0.2346
28735W        W44869   0.677   1.431   4.037  0.2364  0.3054  0.2902
28736W        W44870  13.959   3.300  12.859 -0.1149  0.3571  0.1152
28737W        W44871   6.467  17.190   9.858 -0.2065 -0.2683  0.0867
28738W        W44872   8.281  18.780   1.188 -0.1698  0.0113  0.4014
28739W        W44873   3.319   2.461   5.074  0.0391 -0.0568 -0.4331
28740W        W44874  17.160  17.426  11.982 -0.3397 -0.0702  0.2162
28741W        W44875   2.464  10.508  14.001  0.0726  0.1909 -0.2664
28742W        W44876  14.341  16.577   5.335 -0.1214 -0.1326  0.0458
28743W        W44877  17.424   7.985  13.102  0.1556 -0.1589  0.2348
28744W        W44878   3.193  10.387  14.889 -0.2672  0.1116  0.2702
28745W        W44879   6.101  10.794  14.670  0.1982 -0.0889  0.2439
28746W        W44880   6.656   5.224   1.635  0.2792 -0.0972  0.1725
28747W        W44881   1.711   4.567  14.987 -0.1158  0.0167 -0.0859
28748W        W44882  16.766   3.616  13.878  0.2462  0.1748 -0.1559
28749W        W44883   2.268  10.610   0.287 -0.1845  0.0324  0.0949
28750W        W44884  10.663  12.230  11.523 -0.1821 -0.0834 -0.0094
28751W        W44885  10.255  18.509  14.653 -0.2016 -0.2291 -0.1189
28752W        W44886   8.716  15.867   2.792  0.1272  0.2666 -0.0657
28753W        W44887   9.354   9.741   4.414  0.0015  0.0484 -0.3362
28754W        W44888   3.326   8.184   0.380 -0.1799 -0.0682 -0.1861
28755W        W44889  11.753  12.051  13.395 -0.1222  0.2302 -0.3392
28756W        W44890   2.329   2.720  14.188  0.3225  0.1019  0.3272
28757W        W44891  11.436   8.934   0.812  0.0606 -0.0326 -0.0915
28758W        W44892  10.805   6.862   1.465 -0.0307 -0.2971  0.0858
28759W        W44893   3.656  17.683  12.699  0.2381 -0.2074  0.2223
28760W        W44894   0.445   0.114   2.835  0.1465 -0.1784 -0.0409
28761W        W44895  13.918   9.479  10.495  0.0582  0.0926 -0.0886
28762W        W44896   8.858   0.722   4.205 -0.2024 -0.1302  0.1218
28763W        W44897  17.985  14.585  12.975  0.0992 -0.2702 -0.1318
28764W        W44898  17.316   2.917  14.206  0.0492 -0.0372 -0.1130
28765W        W44899  13.715   1.708  13.818 -0.3089 -0.0911 -0.0306
28766W        W44900   1.962   3.027  11.598  0.0183  0.0348  0.1565
28767W        W44901   4.874  12.612   2.436  0.0645  0.0335 -0.0890
28768W        W44902  16.851   4.748   5.596  0.1318  0.0740 -0.0194
28769W        W44903   7.663  10.521   3.989  0.1234 -0.2740  0.2619
28770W        W44904  15.182   6.467  15.041  0.0358 -0.2014 -0.0563
28771W        W44905   8.390  10.752  13.693  0.0801  0.0198 -0.3185
28772W        W44906   0.719   9.038  13.023  0.0976  0.0084 -0.0210
28773W        W44907  11.278  12.708   3.129 -0.0828 -0.1112 -0.0433
28774W        W44908   3.023   7.648   3.027  0.2326 -0.3712 -0.0155
28775W        W44909   0.841   1.351  11.057  0.0024  0.1130  0.1164
28776W        W44910   5.735   9.157  11.958  0.1273 -0.1741  0.0468
28777W        W44911  13.979   1.501   1.531  0.0832 -0.2300 -0.2246
28778W        W44912   2.780  11.784  14.920 -0.1809  0.0267  0.1190
28779W        W44913   4.471   1.854   0.456 -0.1034 -0.1429 -0.5022
28780W        W44914  11.551   5.821  12.261 -0.2769 -0.2292  0.1224
28781W        W44915  16.733   3.499   1.270  0.0011 -0.0572 -0.3011
28782W        W44916   5.268   9.554  13.977  0.0959  0.0234  0.0381
28783W        W44917  15.224   7.048   3.102  0.0061  0.0211  0.2400
28784W        W44918  11.456   9.582   3.546 -0.0901 -0.1832 -0.0617
28785W        W44919   1.338  17.896   3.862  0.5019  0.1803  0.0806
28786W        W44920   5.648  11.460  14.481  0.0223  0.0836 -0.1538
28787W        W44921  12.746   2.376  14.190  0.2322  0.3509  0.1189
28788W        W44922   9.061   5.436   0.129 -0.0734  0.1104  0.1801
28789W        W44923   4.573  13.651  10.988 -0.0362  0.0166 -0.0510
28790W        W44924   5.152  12.428   4.831  0.0530  0.0664 -0.2534
28791W        W44925  11.984   4.131  10.262  0.0643  0.1731 -0.1226
28792W        W44926   8.946  12.038   4.577  0.3019  0.0569 -0.3922
28793W        W44927  11.668  16.463  11.970  0.0413  0.2736  0.0434
28794W        W44928  13.485  12.400  11.674 -0.3349 -0.3081 -0.2794
28795W        W44929  16.744  16.777  11.663  0.0395 -0.1431  0.0201
28796W        W44930  12.659   1.883  12.190 -0.2108 -0.2895  0.0381
28797W        W44931   2.730  14.009   3.228 -0.0061 -0.2566  0.4496
28798W        W44932  15.764   4.986   0.659  0.0365 -0.4870 -0.0465
28799W        W44933  17.107   9.586   1.263 -0.1859  0.1974 -0.0732
28800W        W44934   0.056   1.873   0.684  0.1590  0.2613  0.0401
28801W        W44935  11.979  10.333  10.560  0.0578  0.3841  0.2583
28802W        W44936   5.567   3.046   2.096 -0.1660  0.2345  0.3613
28803W        W44937  11.702   7.630   4.776 -0.3019  0.0971 -0.2351
28804W        W44938   0.714  16.409   4.295  0.3517 -0.0310 -0.4136
28805W        W44939  15.443  11.084  12.042  0.1206  0.3977 -0.0759
28806W        W44940   2.877  17.237  14.758  0.0763  0.2724 -0.0375
28807W        W44941  17.034   2.659   2.694 -0.1809 -0.1568 -0.1857
28808W        W44942   5.876  11.817   3.161  0.1220 -0.0395  0.2233
28809W        W44943   1.525  13.844  12.237  0.0734 -0.4177  0.0249
28810W        W44944   9.471  15.776  11.551 -0.0534 -0.1859  0.1153
28811W        W44945   5.521  16.606   2.271 -0.2248 -0.0588 -0.1319
28812W        W44946   8.285  15.548   2.665 -0.0643  0.0037  0.3610
28813W        W44947  16.573  15.511  14.437 -0.0486  0.3317  0.1028
28814W        W44948  11.528  11.638   0.152 -0.0550 -0.0937 -0.4569
28815W        W44949  16.371   8.862  11.181 -0.1342  0.1117  0.0848
28816W        W44950  17.504   6.009   1.709 -0.0688  0.0128 -0.3466
28817W        W44951   1.741  14.277  10.884 -0.2607  0.0832  0.3303
28818W        W44952   9.463  11.321  12.159 -0.0762  0.3259  0.1549
28819W        W44953   8.928  15.596   4.789  0.0878  0.1602  0.1228
28820W        W44954  14.850  16.744   2.937 -0.2651  0.0366  0.0907
28821W        W44955  16.671   8.427  13.018  0.0719 -0.0813 -0.0858
28822W        W44956   7.508   5.702   1.170 -0.1383  0.3104  0.0052
28823W        W44957  14.450   4.497  12.763 -0.0563  0.0112 -0.3107
28824W        W44958   4.761   3.695  12.499 -0.0281  0.0110  0.3242
28825W        W44959  12.059  16.714   3.852 -0.1183 -0.4385  0.0693
28826W        W44960   3.975   9.182   4.524 -0.0963 -0.0803  0.1343
28827W        W44961  17.645  17.552  11.821 -0.1981 -0.0201  0.1228
28828W        W44962   1.875  16.645   0.846  0.1782  0.1100 -0.0780
28829W        W44963   2.870  12.500   2.523 -0.0724 -0.0232  0.3605
28830W        W44964  15.930  10.396   5.198 -0.0400 -0.1372  0.1417
28831W        W44965   4.307  12.768  12.153  0.0963  0.2790  0.0295
28832W        W44966  12.341   3.107  14.629 -0.0439  0.1198 -0.0204
28833W        W44967   2.701   3.088  12.103 -0.0226 -0.1702  0.0429
28834W        W44968   8.895  11.301  12.196  0.1312 -0.3179 -0.0171
28835W        W44969  12.771   4.603  12.899  0.2236 -0.2549 -0.3710
28836W        W44970   2.800  18.742   1.296 -0.0314 -0.0777  0.2437
28837W        W44971  11.536  18.321   1.193  0.2163 -0.0217  0.1464
28838W        W44972   6.386  18.025   5.067 -0.1653  0.1895  0.0494
28839W        W44973   2.582  11.395   9.849  0.0200  0.2325  0.0675
28840W        W44974   6.274   9.200   4.098 -0.0761  0.3194 -0.1020
28841W        W44975   9.237   1.296  11.766 -0.2472 -0.1263  0.4009
28842W        W44976  18.536   7.320   5.035  0.1798  0.1239  0.2136
28843W        W44977   1.650  10.997   4.856 -0.2255  0.0059 -0.0650
28844W        W44978   2.141   0.950  12.994 -0.0065 -0.0744 -0.1763
28845W        W44979   3.988  14.545   1.804  0.2045 -0.1073 -0.1177
28846W        W44980  18.867  10.039  13.764  0.4664 -0.1473  0.0092
28847W        W44981   0.953  13.699   3.337  0.0007 -0.1426  0.0861
28848W        W44982   5.286   1.572   2.055 -0.2133  0.0513  0.3755
28849W        W44983  15.191  19.164   3.881 -0.0073 -0.2672 -0.3973
28850W        W44984   7.732   8.929  11.432  0.2244  0.0334  0.0293
28851W        W44985   8.490  16.008   5.309  0.0312  0.0708  0.0827
28852W        W44986  17.380  15.526  14.842 -0.0151  0.1155  0.0380
28853W        W44987   5.441  15.923  13.689  0.0856 -0.3640  0.4754
28854W        W44988   3.669   9.890  13.253  0.0122  0.0324 -0.0638
28855W        W44989  14.014   7.224   0.235  0.1279 -0.2012 -0.3237
28856W        W44990   4.421   6.199  14.404 -0.1354  0.2275 -0.0284
28857W        W44991   0.198   1.239   4.191  0.0533  0.0397  0.3479
28858W        W44992  16.019  17.193  10.466 -0.0446 -0.0367  0.1070
28859W        W44993   0.069  10.054   4.336 -0.0506  0.1979 -0.0486
28860W        W44994   7.169  15.443  11.480  0.4694  0.2872 -0.0772
28861W        W44995   7.930  19.082  12.812  0.3456 -0.0067  0.1401
28862W        W44996  10.889  14.416   5.384  0.1372 -0.1642  0.1491
28863W        W44997  18.273  17.073  13.776  0.1948  0.2100  0.0894
28864W        W44998   7.766   0.798  11.284  0.0168  0.4105 -0.1286
28865W        W44999   2.412   0.774  14.829  0.1670 -0.0060  0.3442
28866W        W45000  11.663  19.116  11.896 -0.1143  0.2025  0.0197
28867W        W45001  15.783   3.060  13.165  0.0806  0.2223  0.2512
28868W        W45002  16.354  17.442  13.326 -0.0247  0.0617  0.1429
28869W        W45003   7.884   4.338  11.172 -0.0485 -0.0980  0.1261
28870W        W45004  12.842   0.048   4.655 -0.2818  0.1849 -0.1326
28871W        W45005  14.271   9.499  13.734  0.4385 -0.0114  0.3224
28872W        W45006  15.854   4.754   1.187  0.1161  0.1735 -0.1831
28873W        W45007  12.988   2.402   0.826  0.2200 -0.1913  0.0176
28874W        W45008  13.517   1.166  11.611 -0.0051 -0.1634  0.1818
28875W        W45009   8.002   9.068  13.574 -0.4153  0.3208 -0.5102
28876W        W45010  17.247  11.200   2.045  0.2988  0.1717  0.3040
28877W        W45011  18.262   1.214   5.293  0.0495 -0.0782 -0.0646
28878W        W45012  14.198  15.210  14.151 -0.1735 -0.1351  0.3479
28879W        W45013   5.831  12.235   0.091 -0.0884  0.0968  0.3303
28880W        W45014  11.845   3.011   1.677  0.1295  0.0898 -0.0222
28881W        W45015   6.906   4.888   1.453  0.1851  0.1855  0.0122
28882W        W45016  18.276   4.627  11.493 -0.0460  0.1824 -0.1357
28883W        W45017   3.687   4.214  10.398  0.3805 -0.1363  0.0287
28884W        W45018   5.018   3.974  13.747  0.2284 -0.1443 -0.4038
28885W        W45019   7.742   8.890   1.432  0.3817  0.1927  0.2646
28886W        W45020   4.526  11.163  12.502 -0.1947  0.0057 -0.2894
28887W        W45021   2.620   5.483  13.367  0.1882  0.3009 -0.2702
28888W        W45022   6.696  12.911  12.799 -0.2663  0.1159 -0.1053
28889W        W45023  10.921   6.416   1.307 -0.5009 -0.0429  0.0878
28890W        W45024  14.433   6.706   0.810  0.3374 -0.0138  0.0120
28891W        W45025  16.074   7.947   1.926 -0.0576  0.1971  0.0613
28892W        W45026  17.326  18.548   4.888 -0.0658 -0.2232  0.1992
28893W        W45027   6.472   0.700   0.976 -0.2446 -0.0808 -0.1378
28894W        W45028  11.081  13.277  12.141 -0.2187 -0.0543 -0.1051
28895W        W45029  15.556   9.853  14.969  0.2428  0.2232  0.2487
28896W        W45030   3.663   2.134  11.168  0.3523 -0.2008 -0.3885
28897W        W45031  16.898   7.569  10.250  0.0811 -0.0811 -0.0923
28898W        W45032   9.217  19.072   0.742  0.0048 -0.0048  0.5777
28899W        W45033   9.986  15.141   3.359 -0.3637  0.0085  0.1101
28900W        W45034  10.716   6.091   0.971  0.4100 -0.1687 -0.0711
28901W        W45035   7.813   7.104   3.303  0.2364 -0.1418 -0.3009
28902W        W45036   6.958  18.202   0.965  0.0331 -0.1337 -0.1004
28903W        W45037  17.302  15.526   3.465 -0.1890 -0.1192 -0.0701
28904W        W45038  17.355  19.163  13.598  0.0108  0.1344  0.0593
28905W        W45039  13.629  19.087   0.260  0.1835 -0.1051 -0.5148
28906W        W45040  10.728  10.078   3.475 -0.0742 -0.3114  0.2410
28907W        W45041   2.273   2.833   3.929 -0.0226  0.0753 -0.1573
28908W        W45042   8.274  16.236  11.770 -0.2967 -0.1602 -0.0552
28909W        W45043  17.211  19.023   4.745 -0.2795 -0.0699  0.0076
28910W        W45044   3.991  12.015   2.770  0.0289  0.4495  0.0014
28911W        W45045  15.549  14.914  11.926  0.0566 -0.0308 -0.2838
28912W        W45046   6.143  14.768  13.757 -0.0114  0.0264 -0.0415
28913W        W45047  16.458  11.540  11.660  0.0324 -0.1343  0.0474
28914W        W45048  16.655   2.252  13.706 -0.1507 -0.2598 -0.0136
28915W        W45049  17.799  11.553  14.724  0.0627 -0.2628  0.0454
28916W        W45050   9.220  12.828   1.231  0.1531 -0.2304 -0.1695
28917W        W45051   1.075   3.527   3.833 -0.0754  0.1239 -0.2633
28918W        W45052   2.652   5.000  13.275 -0.2137  0.1744 -0.0963
28919W        W45053   2.249   4.629   5.476  0.0751  0.4692  0.0939
28920W        W45054   9.063  11.851  14.879 -0.2666 -0.0852 -0.0894
28921W        W45055  15.608  11.096   4.151 -0.1067  0.3027 -0.1819
28922W        W45056   6.770   3.443  14.504 -0.0065  0.3015 -0.0796
28923W        W45057  12.262  11.309   2.441  0.0943 -0.0279  0.0870
28924W        W45058  11.702   5.207   2.332 -0.3577  0.0221  0.0082
28925W        W45059   6.331   4.605   3.038 -0.2193 -0.2430  0.1535
28926W        W45060  10.012  10.683   1.432 -0.0337  0.0117 -0.0930
28927W        W45061  11.933   2.559   2.087 -0.0912  0.1611  0.0252
28928W        W45062  11.925  15.294   3.876  0.2203 -0.0133 -0.0734
28929W        W45063  13.347  11.315   0.499 -0.0735  0.2681 -0.2213
28930W        W45064   6.628  17.417   0.308 -0.0988 -0.3126  0.0885
28931W        W45065   6.890  17.023  14.211 -0.0858  0.0220 -0.2185
28932W        W45066  12.387   9.092   0.897  0.1539 -0.0794  0.3318
28933W        W45067  15.943   3.693  10.122 -0.0787  0.0437 -0.1445
28934W        W45068  11.838   9.014  12.077 -0.2745  0.1309 -0.2530
28935W        W45069  17.749  14.009  10.870  0.2696 -0.3594 -0.0504
28936W        W45070   9.511  10.983  13.519  0.0074 -0.0385 -0.0568
28937W        W45071  18.867  18.276  12.110  0.1583  0.1770 -0.0930
28938W        W45072   0.288  16.016  11.141  0.0497  0.5836  0.2439
28939W        W45073   9.273  17.786   1.360  0.0419  0.1501 -0.1426
28940W        W45074  19.226  18.382  11.648  0.1279  0.0126  0.1440
28941W        W45075   4.824   1.822  14.669 -0.1772  0.0311  0.2112
28942W        W45076  11.737  10.336  13.878  0.0226 -0.0924  0.0168
28943W        W45077   7.340   2.074   2.436 -0.4513 -0.0565  0.0837
28944W        W45078  12.266  14.194  13.694  0.0474  0.0282  0.1213
28945W        W45079  10.225  10.522   4.000 -0.1775 -0.2997  0.0966
28946W        W45080  11.320   3.075   3.184 -0.1932 -0.1026 -0.0628
28947W        W45081  15.082   5.366   2.322 -0.1437  0.0983  0.0978
28948W        W45082   1.381   7.756   4.761  0.0925 -0.2872 -0.1089
28949W        W45083  16.775  15.569   0.936  0.2835  0.4508 -0.4089
28950W        W45084   0.045   8.422  14.025  0.0077  0.2477  0.0791
28951W        W45085  14.630   4.837  14.573 -0.0084  0.3543 -0.3181
28952W        W45086  14.974   0.541  14.491 -0.0217 -0.0429  0.1512
28953W        W45087  13.002   0.671   2.528 -0.1530  0.2354 -0.1506
28954W        W45088   6.885   6.733   1.817  0.1897  0.1802 -0.0294
28955W        W45089   9.156   1.521   0.015  0.1962 -0.4573 -0.0894
28956W        W45090  12.622  12.036   3.383 -0.1645 -0.0614  0.1735
28957W        W45091  14.698   9.011  11.519  0.0606 -0.1757 -0.1292
28958W        W45092  10.234   4.663   2.359  0.1933  0.0603 -0.1568
28959W        W45093   6.955   0.343  11.775 -0.0553  0.0161 -0.2826
28960W        W45094   0.079  13.266   5.074  0.1573  0.0570  0.1543
28961W        W45095  13.755  10.241   5.428  0.0391  0.1697 -0.1452
28962W        W45096   4.548   9.597  10.757 -0.2593 -0.1742  0.1594
28963W        W45097  11.757  16.069  10.757 -0.2929 -0.2122  0.1274
28964W        W45098   9.549  13.184   5.547  0.2205  0.2185 -0.1849
28965W        W45099  14.291  12.449   0.472 -0.1808  0.3312 -0.3818
28966W        W45100  17.018  14.956  14.029  0.2710  0.0469 -0.1046
28967W        W45101   5.635  18.438   5.342 -0.3817  0.0286 -0.0810
28968W        W45102   3.599   1.914   2.549 -0.1432 -0.1728 -0.0134
28969W        W45103  12.642   6.396  13.519 -0.0029  0.2783  0.0065
28970W        W45104   5.398   4.775  13.488 -0.0670  0.0639 -0.0295
28971W        W45105   0.148   1.875  13.959 -0.1975  0.0654  0.0344
28972W        W45106   6.586   8.090   2.958  0.1012  0.0432 -0.1261
28973W        W45107  10.244   1.112  12.168 -0.0777  0.6298  0.4321
28974W        W45108  10.255   7.885  11.236 -0.1763 -0.0440  0.3302
28975W        W45109   9.708   7.658   1.178  0.1753  0.0849  0.1802
28976W        W45110   5.798   1.226  10.632  0.2928 -0.0408 -0.2031
28977W        W45111   5.693  13.466  14.468  0.1918 -0.2415 -0.0260
28978W        W45112   7.551   1.184   1.988  0.2752  0.0612  0.0499
28979W        W45113  17.487  14.773  12.162  0.0254 -0.0055  0.1404
28980W        W45114  19.146  15.119   3.025 -0.2860 -0.0444  0.0021
28981W        W45115   3.375   5.610  10.249  0.1273 -0.2411  0.0599
28982W        W45116   1.602  18.463  13.143  0.0179 -0.1559  0.0089
28983W        W45117   0.959   2.367  14.343 -0.0370 -0.0119  0.0981
28984W        W45118  11.992   8.229   1.087  0.0029  0.2616 -0.0110
28985W        W45119   1.913   4.276   2.759  0.1488  0.3707 -0.2960
28986W        W45120   0.195  14.079   4.802 -0.2448 -0.4212 -0.1590
28987W        W45121  13.242  16.747  14.971  0.1080  0.0723  0.3154
28988W        W45122   6.114  11.062  10.268  0.0979  0.0958 -0.3529
28989W        W45123  15.835   4.343  10.951 -0.1807 -0.1820  0.2060
28990W        W45124   3.255  14.549   3.164 -0.1195 -0.2320 -0.1382
28991W        W45125  11.322   3.826   4.143  0.0530 -0.2317 -0.4752
28992W        W45126   4.591   8.508   1.699 -0.0118  0.0220  0.0600
28993W        W45127  18.032  17.104   0.155 -0.1049 -0.1387 -0.0175
28994W        W45128  15.506   6.897   1.275  0.1505 -0.0477 -0.0545
28995W        W45129   5.183   3.433  13.580  0.0283 -0.4311 -0.1216
28996W        W45130  10.533   5.817   2.929  0.1512  0.1635 -0.3009
28997W        W45131  13.611   6.801   2.993 -0.2342 -0.0983  0.2607
28998W        W45132  14.837  17.254  10.946  0.0417  0.2127  0.0816
28999W        W45133  12.315  16.942  10.875 -0.1254  0.0333 -0.3018
29000W        W45134   4.823   3.134   1.563  0.1012 -0.3291 -0.1157
29001W        W45135   2.786  16.462   1.852 -0.1057 -0.1401  0.2219
29002W        W45136   9.252  14.217  10.614  0.1059  0.0725  0.0312
29003W        W45137  18.182   5.809   1.837 -0.1653  0.2771 -0.0608
29004W        W45138  18.949   9.752   2.292 -0.3159  0.0325 -0.0581
29005W        W45139   5.886  18.083   3.590  0.2355  0.0073  0.3598
29006W        W45140  17.940   9.042  14.130 -0.5036  0.0444 -0.2018
29007W        W45141  10.360  15.661  13.055  0.1931 -0.0134  0.0777
29008W        W45142  18.200  18.885   4.079 -0.0876  0.0473 -0.2430
29009W        W45143  17.543  16.848   3.851  0.2359 -0.3122  0.1628
29010W        W45144   1.869  12.535  13.297 -0.0239 -0.0298 -0.1780
29011W        W45145   6.807  15.128  13.272 -0.2024 -0.2814 -0.0601
29012W        W45146   0.169  14.686   4.109  0.1181  0.2097 -0.0398
29013W        W45147  12.253   8.848  13.600  0.1938 -0.0106 -0.0271
29014W        W45148  10.938   1.119   9.977 -0.0573  0.2207  0.0609
29015W        W45149  13.874   7.131  14.695 -0.3065 -0.2975 -0.1172
29016W        W45150  11.232  12.384  11.719  0.1678 -0.1951  0.2548
29017W        W45151   2.860  15.537  11.772  0.3203 -0.1823  0.0270
29018W        W45152   6.255  11.895  12.013  0.1171  0.1505 -0.3523
29019W        W45153   2.555   8.364   3.489 -0.3390 -0.0563 -0.0992
29020W        W45154   2.912  17.977   3.038 -0.1399  0.4165  0.1522
29021W        W45155  16.293  16.753   4.135 -0.1325 -0.0840  0.2032
29022W        W45156  15.628   7.742   4.204  0.1457  0.0011 -0.0835
29023W        W45157  14.918   0.371   0.524 -0.0869 -0.0879 -0.3503
29024W        W45158  16.600   7.250   1.920 -0.0179  0.1270 -0.3340
29025W        W45159  12.589  18.612  13.980 -0.1570 -0.1951 -0.4459
29026W        W45160  17.771  15.158  14.896  0.1705 -0.0864 -0.1153
29027W        W45161  15.154  12.440   4.477 -0.1963  0.4197  0.3727
29028W        W45162  16.796   2.865  12.026  0.2160  0.1071 -0.0188
29029W        W45163   7.088  13.614   4.258 -0.4104  0.1010  0.0593
29030W        W45164  17.512   7.051  11.311  0.3034 -0.1181 -0.2895
29031W        W45165  18.027   2.075   3.607  0.2812 -0.0847 -0.2715
29032W        W45166   6.948   7.008   1.389 -0.1593  0.1552  0.3847
29033W        W45167   6.750   9.902   2.857 -0.1913 -0.0713  0.2624
29034W        W45168  12.434   4.956  12.125 -0.2251 -0.0042 -0.4958
29035W        W45169  16.030   3.059   1.587 -0.0814 -0.0933  0.0339
29036W        W45170   1.583   4.800  12.188  0.2870  0.0911  0.0067
29037W        W45171   2.722   0.972   0.180  0.1391  0.2857  0.1531
29038W        W45172  12.934   9.209   4.232 -0.0031 -0.2835  0.2973
29039W        W45173   5.027   5.524   3.509 -0.3434  0.2222 -0.0501
29040W        W45174   7.628   5.678   3.396 -0.2252  0.1460  0.2760
29041W        W45175   2.559  19.182   1.684  0.2464  0.0435  0.0959
29042W        W45176   1.109  19.025  11.992  0.1002 -0.2206  0.0480
29043W        W45177  11.488  12.404  12.715  0.3008 -0.1593  0.3176
29044W        W45178   9.929   3.860   0.632  0.0666 -0.0309  0.1187
29045W        W45179   8.581  18.357  12.896  0.0046 -0.0237 -0.1996
29046W        W45180   0.984   1.000   0.386  0.0099 -0.4001  0.1009
29047W        W45181  16.578  12.373   2.956  0.0459 -0.1585 -0.0281
29048W        W45182   0.883  17.447   0.302  0.2051  0.3724 -0.4005
29049W        W45183  14.411   2.937  15.019  0.3910  0.1203  0.0576
29050W        W45184  15.522  12.909   3.682 -0.2273 -0.3034  0.1659
29051W        W45185   0.759  17.560   5.151 -0.3568  0.0766  0.0768
29052W        W45186   2.800  11.680  11.239 -0.1443  0.1652  0.0529
29053W        W45187   0.211   7.955  14.966 -0.2728  0.2374 -0.1709
29054W        W45188   0.860  12.053   4.935  0.2305 -0.2463  0.2690
29055W        W45189  10.201  13.241  14.916 -0.1349  0.0691 -0.1530
29056W        W45190   5.364   7.791  12.848  0.0178 -0.2092 -0.0949
29057W        W45191  13.719   6.300   0.698  0.0961  0.1036 -0.0785
29058W        W45192  11.303  13.910   1.035 -0.0560  0.1434  0.0264
29059W        W45193  16.136  17.449   1.189  0.2439  0.0824 -0.4330
29060W        W45194   1.035   9.306   0.278  0.2083  0.1772  0.0864
29061W        W45195   4.978   1.745  11.917  0.1224 -0.1103  0.3039
29062W        W45196  18.968  12.872   3.797 -0.0821  0.2424  0.0603
29063W        W45197   9.002   9.220   1.796  0.2935  0.0888 -0.2187
29064W        W45198   2.970   6.273   4.849 -0.0078  0.0873  0.2007
29065W        W45199   4.021   4.162   1.829  0.0063 -0.5277  0.2330
29066W        W45200   1.090   1.199  11.933 -0.1494  0.3851  0.1413
29067W        W45201  11.445   4.781  11.751 -0.2005 -0.0876 -0.0777
29068W        W45202   7.453  11.904  13.443 -0.1693 -0.0674  0.0676
29069W        W45203  15.894   3.102   3.396 -0.2970  0.2192  0.1177
29070W        W45204  11.644  13.559  13.814  0.3871 -0.0415  0.0087
29071W        W45205  15.154   0.776   0.568 -0.0435  0.1556 -0.0872
29072W        W45206  15.815  11.222  12.358 -0.4652 -0.0751  0.0687
29073W        W45207  12.194  16.075  12.680  0.0486  0.1634 -0.2219
29074W        W45208   5.996  14.589  11.732 -0.1023 -0.2146 -0.0935
29075W        W45209  18.805   3.347   2.750  0.1987 -0.1173  0.0339
29076W        W45210  13.388   3.955   0.535 -0.0368 -0.1488  0.1055
29077W        W45211   7.992  17.348  14.035  0.1381  0.5943  0.0769
29078W        W45212  17.023   4.458   3.661  0.1366  0.1160 -0.1521
29079W        W45213  15.754  16.459   4.008  0.3360  0.1715 -0.1133
29080W        W45214   5.119  12.866  11.249  0.2196  0.1336  0.1158
29081W        W45215   5.925  15.042  10.818 -0.0237 -0.0488 -0.1108
29082W        W45216   9.279  18.119   2.506  0.2521 -0.0309 -0.2097
29083W        W45217   8.227   3.371   2.452  0.1215  0.1277  0.1481
29084W        W45218   4.616   5.789  14.144  0.1373 -0.1957 -0.2130
29085W        W45219  16.363   5.260  14.262  0.1131  0.1791  0.1727
29086W        W45220  11.891   5.747   3.576  0.4128  0.2001  0.2925
29087W        W45221  14.116   3.877  14.128  0.1123  0.2174  0.0339
29088W        W45222  18.945   9.521   1.356 -0.1942 -0.0311 -0.0408
29089W        W45223  15.331  12.741  11.228  0.4030  0.1624  0.2558
29090W        W45224   2.475   5.855   0.278  0.0137 -0.0242  0.1495
29091W        W45225  16.212  13.737  14.853 -0.2163 -0.0724 -0.0384
29092W        W45226   9.605   4.051   1.702  0.2772  0.0924  0.0558
29093W        W45227  10.971   0.945  13.852 -0.1057  0.3966 -0.1011
29094W        W45228  16.902  15.641   4.203  0.0226 -0.0731  0.1666
29095W        W45229  11.122  14.082  11.710 -0.2159 -0.1071  0.1048
29096W        W45230   0.443  14.384   3.247 -0.1662  0.0762 -0.0644
29097W        W45231   1.469   2.364   2.721 -0.0181  0.3749  0.0639
29098W        W45232  12.363   5.089   3.437 -0.0927 -0.2441  0.1331
29099W        W45233  10.133   7.629  12.834  0.3587  0.0798  0.0082
29100W        W45234  14.054  13.994   1.988 -0.2824  0.0778 -0.0919
29101W        W45235  12.806  10.389   4.308 -0.0873  0.2541  0.0651
29102W        W45236   7.086  16.107   4.818  0.1797 -0.1357  0.0334
29103W        W45237  15.752   6.149  14.314  0.3370  0.0295 -0.3656
29104W        W45238   1.096   1.122   5.584 -0.0030 -0.1118 -0.0192
29105W        W45239   7.062  11.443  11.799 -0.1319 -0.1536  0.1046
29106W        W45240   4.199   0.335  10.494  0.0076 -0.3091  0.1460
29107W        W45241   0.937   0.756  11.046 -0.1912  0.1388  0.1702
29108W        W45242  11.376  17.415  14.478  0.1887  0.1875 -0.0969
29109W        W45243   8.531  16.689   3.376  0.2822  0.0146 -0.2607
29110W        W45244   0.035   6.285   0.923 -0.4236 -0.4106  0.2615
29111W        W45245   8.615  16.226   1.491  0.0570 -0.1195  0.3058
29112W        W45246  17.215  17.571  11.423 -0.2410  0.0695 -0.4472
29113W        W45247   1.021  14.518   0.773  0.1451  0.0966 -0.0076
29114W        W45248   8.674   8.924  11.702  0.3307  0.1480 -0.0094
29115W        W45249   3.950  15.793  10.706 -0.0395 -0.1563  0.3891
29116W        W45250  11.271   0.787  10.081 -0.0163  0.0542  0.0988
29117W        W45251   2.296   4.119   3.604 -0.0713  0.0051 -0.1945
29118W        W45252  16.014  12.571   1.492  0.2873  0.2756 -0.0046
29119W        W45253   5.492  11.155  10.297 -0.0851 -0.0293  0.0669
29120W        W45254   2.454  15.085  13.614  0.1548  0.2274  0.2062
29121W        W45255  11.410  17.801  10.286 -0.4375  0.2035 -0.1400
29122W        W45256   3.795   5.708   2.588  0.0461  0.1963 -0.0117
29123W        W45257  10.614   3.118  10.346  0.0162  0.1214 -0.0616
29124W        W45258   7.832   1.100  14.585  0.3734 -0.2599  0.1410
29125W        W45259   2.617   5.824   4.844 -0.3007  0.1628 -0.3765
29126W        W45260   9.884   2.928   2.036  0.0452  0.0511  0.3315
29127W        W45261  14.975  11.403  12.262  0.0041  0.0552  0.0681
29128W        W45262  17.793   2.839   1.041  0.0917  0.0595 -0.3194
29129W        W45263   8.847  16.638  12.648  0.2045  0.0636 -0.2013
29130W        W45264   1.016   2.282  12.610 -0.1793 -0.1461 -0.1291
29131W        W45265  18.334   3.019  14.256 -0.3343 -0.1206  0.1708
29132W        W45266   8.410   6.982   3.296 -0.1650  0.0911 -0.1702
29133W        W45267   4.272  16.343   4.613  0.0082  0.0967 -0.1984
29134W        W45268  12.191   7.311  13.710 -0.4448  0.1016  0.1277
29135W        W45269   5.295  16.746   4.745  0.2696 -0.3433 -0.3780
29136W        W45270   8.880  10.377  14.504 -0.1858 -0.1294 -0.0919
29137W        W45271   1.771  15.035  12.888 -0.0749  0.1306  0.3250
29138W        W45272   1.773  12.989   1.544 -0.0092  0.2477 -0.1685
29139W        W45273  13.032   2.892   0.651 -0.1459  0.0895 -0.2013
29140W        W45274   0.218  18.068   2.873  0.0796  0.1298  0.0023
29141W        W45275   5.877   4.835   4.108  0.1550 -0.0653  0.1863
29142W        W45276  17.744   1.129  13.927 -0.1540 -0.2161 -0.2096
29143W        W45277  12.297  15.053   0.756 -0.2142  0.0572  0.0802
29144W        W45278   7.574   0.488   3.917 -0.0028  0.2604  0.1480
29145W        W45279   2.136  19.175  10.724  0.0317  0.3961  0.1989
29146W        W45280  17.268  15.352   1.071 -0.3265  0.0304  0.0719
29147W        W45281   5.340  19.131   5.377 -0.0833  0.0300 -0.0376
29148W        W45282   9.995   5.993  11.465  0.2684  0.4030  0.1121
29149W        W45283   9.868   3.479   9.551  0.4716 -0.1043 -0.0457
29150W        W45284  14.457   2.968  12.115  0.0507 -0.1313 -0.1810
29151W        W45285  16.001   4.081  13.894 -0.0197  0.1431  0.1969
29152W        W45286   1.722   2.127  11.766 -0.1320  0.0682 -0.0354
29153W        W45287   6.918  12.130   3.372 -0.0749  0.0411  0.0487
29154W        W45288   6.774  11.413   2.665 -0.2601  0.2709  0.0099
29155W        W45289  19.239   1.570  11.403  0.1292 -0.0317  0.0830
29156W        W45290  18.630  18.275   3.632 -0.4130 -0.1674 -0.2141
29157W        W45291   5.723   8.901  11.504 -0.1314  0.0921 -0.4494
29158W        W45292   5.569  15.729  14.547  0.1286 -0.0880 -0.2639
29159W        W45293   9.328  17.754  13.986 -0.0079  0.0843 -0.1385
29160W        W45294   1.307  17.161   0.297 -0.3294  0.0133 -0.0339
29161W        W45295  15.014   2.655   1.245  0.1408  0.2159 -0.1143
29162W        W45296   9.704   0.437  11.202 -0.0476  0.1689 -0.0320
29163W        W45297   1.556  11.211   9.910 -0.1410 -0.1699 -0.0616
29164W        W45298   1.931   5.183   0.553 -0.1823  0.0515 -0.0476
29165W        W45299  14.495   3.436   3.583 -0.4861 -0.1123 -0.3038
29166W        W45300  17.353   4.951   3.183 -0.2735  0.4259  0.2256
29167W        W45301   8.830  10.681  11.664  0.0918  0.1177  0.3096
29168W        W45302   9.134  16.093  11.782 -0.0447 -0.0115  0.0742
29169W        W45303   4.063   4.211   1.011  0.2742 -0.1573 -0.0795
29170W        W45304  10.090  12.831  11.138 -0.0627  0.0643  0.1871
29171W        W45305   3.047  15.962   2.185 -0.0185  0.0267 -0.5118
29172W        W45306  18.145  17.604  11.486  0.2566 -0.1936  0.5042
29173W        W45307   9.743   3.180   1.127  0.1217 -0.2712  0.2563
29174W        W45308  12.675   7.267  13.868 -0.3425 -0.0622 -0.0828
29175W        W45309   3.926   0.950   2.773 -0.2400 -0.2049 -0.0650
29176W        W45310   8.474  15.423  11.544  0.1512  0.0554 -0.1489
29177W        W45311  15.972   7.919   0.667 -0.1134  0.0125  0.0569
29178W        W45312  16.563  17.948  12.792 -0.0574 -0.2124  0.1798
29179W        W45313  16.083  13.203   0.094 -0.1985  0.2251 -0.0814
29180W        W45314  15.745  11.147  14.355  0.1392  0.1076  0.1466
29181W        W45315  13.361   8.796   3.414  0.1261 -0.1045  0.3598
29182W        W45316   9.088  18.719  10.728  0.1029  0.0783  0.0454
29183W        W45317   0.776  10.335  13.176  0.1115 -0.0455  0.0052
29184W        W45318  14.176  10.779  12.728  0.3657 -0.2342 -0.2130
29185W        W45319   9.721   4.692  11.960  0.1988  0.1533 -0.0013
29186W        W45320  12.709   0.915   4.529  0.4526  0.0107  0.0360
29187W        W45321  13.891  14.054  12.705  0.0967 -0.0670 -0.0191
29188W        W45322  15.779  11.709   1.849 -0.2020 -0.3030  0.2757
29189W        W45323   0.205  13.590   2.699 -0.2954  0.0749 -0.1349
29190W        W45324   9.889   6.411  10.895 -0.0630 -0.0269 -0.1075
29191W        W45325  12.696  10.691   3.797 -0.0609  0.0887 -0.2870
29192W        W45326  18.335   6.521  11.672 -0.2340  0.1922 -0.0353
29193W        W45327   6.285  18.929  11.374  0.0557 -0.2287  0.0998
29194W        W45328   8.681   1.005  11.084  0.2268  0.0114 -0.0201
29195W        W45329  19.017   1.028  13.633  0.2906 -0.0530 -0.2344
29196W        W45330   2.600  17.400  11.752 -0.1512 -0.2287  0.0220
29197W        W45331   3.156  17.282  12.706  0.1565 -0.2311  0.2587
29198W        W45332  15.693  14.636   1.804  0.0983  0.1209 -0.1811
29199W        W45333   4.402   7.608  14.560 -0.0590 -0.1619  0.0118
29200W        W45334   8.070   9.718  12.084  0.1051  0.1273 -0.0338
29201W        W45335   3.984  10.394  12.949 -0.3752  0.2216  0.0334
29202W        W45336   0.686  13.279  12.414  0.0622  0.0185 -0.0928
29203W        W45337  11.741  16.712   2.438  0.1052  0.2618 -0.2039
29204W        W45338  15.991  11.663  12.160  0.3503 -0.1480  0.1063
29205W        W45339  18.063   3.613   4.884 -0.0721  0.1500  0.2744
29206W        W45340  11.209   8.460  11.769  0.0985  0.0084  0.0099
29207W        W45341   4.865   3.446  11.888 -0.2623  0.1513  0.2366
29208W        W45342   1.273  14.460  12.886  0.2014 -0.0302 -0.0688
29209W        W45343   8.492  19.028   4.888 -0.1200 -0.1050  0.2074
29210W        W45344   1.071  15.962   5.662 -0.0675 -0.0430  0.1363
29211W        W45345  15.286   3.807  13.251 -0.2902  0.1699 -0.1769
29212W        W45346  17.004  17.380   4.256 -0.2366  0.1655 -0.1580
29213W        W45347  10.642   9.884  11.001  0.0638 -0.2837 -0.4526
29214W        W45348  14.532  19.145  14.936  0.2923  0.4681 -0.0872
29215W        W45349  14.961  19.079  13.175  0.3994 -0.1970 -0.0000
29216W        W45350   0.577   8.204   3.911 -0.1247  0.0500  0.2206
29217W        W45351   7.173   9.206  11.427  0.1214 -0.2664  0.0610
29218W        W45352   2.862  18.740  11.879 -0.0003  0.3109  0.0821
29219W        W45353   0.965   2.523   4.807 -0.2231  0.1822  0.0884
29220W        W45354  18.824   3.119  13.868  0.3868  0.2442  0.1491
29221W        W45355   4.831  18.181   5.127 -0.2729 -0.0991 -0.0838
29222W        W45356  17.440  17.766  15.020  0.0515 -0.0577 -0.1041
29223W        W45357   8.961   2.618   1.835 -0.0043  0.2367 -0.1987
29224W        W45358   1.807  14.219  15.016 -0.2603  0.0973  0.3111
29225W        W45359   2.732   9.542   2.556 -0.1111  0.0284  0.0227
29226W        W45360  10.436  18.090  12.695 -0.2291  0.0328 -0.2526
29227W        W45361  17.647   1.250   4.054 -0.1566 -0.0723  0.1953
29228W        W45362  10.219  12.972   1.427 -0.0445 -0.0147 -0.1305
29229W        W45363  19.023   1.008   0.407  0.0582  0.0254  0.1701
29230W        W45364  10.835   2.924   0.782 -0.1380 -0.1402 -0.1208
29231W        W45365  15.910  18.882  10.913 -0.0561 -0.0555 -0.0435
29232W        W45366   3.309  15.290   2.747  0.0674  0.2550  0.0849
29233W        W45367   4.514   0.219   4.281  0.2311 -0.0665  0.0147
29234W        W45368   8.734  17.954  11.523 -0.1350 -0.1413 -0.3485
29235W        W45369   2.356   1.565   4.448 -0.1625  0.0730  0.2931
29236W        W45370   3.397   7.121   4.509 -0.4105  0.4693 -0.3394
29237W        W45371   2.116   8.107  13.344 -0.2459  0.2934  0.3040
29238W        W45372   7.720   1.449  11.592  0.1561 -0.1342  0.3144
29239W        W45373   7.322   8.553   3.798 -0.0894  0.3322 -0.1978
29240W        W45374   8.982  12.425  14.486  0.2071 -0.2713 -0.3845
29241W        W45375  18.006   3.271   4.222  0.3010 -0.1288 -0.2555
29242W        W45376  10.812  12.685   1.136 -0.4618 -0.0081  0.1655
29243W        W45377   5.620  12.475   1.977  0.0299 -0.1290  0.3153
29244W        W45378   8.083  11.758   2.225 -0.3069  0.1583 -0.0411
29245W        W45379  17.152  13.974   4.822  0.4721  0.0298 -0.0352
29246W        W45380   8.000  12.847   4.858 -0.0143 -0.0765 -0.2351
29247W        W45381  17.634  18.186   0.168 -0.1292 -0.0182 -0.0462
29248W        W45382  15.303   1.360   0.265 -0.4599  0.2918  0.2977
29249W        W45383  10.333  18.925   9.515  0.1823 -0.0968  0.1484
29250W        W45384  18.682  16.130   4.695 -0.1954  0.2003  0.0499
29251W        W45385  12.611   7.067   4.822 -0.0300 -0.2700  0.2768
29252W        W45386  11.295   0.917   3.894  0.1487  0.4207 -0.1432
29253W        W45387   4.989   0.583   5.139  0.2058 -0.2384  0.0080
29254W        W45388   0.974   1.058   4.147 -0.0104 -0.2667 -0.0254
29255W        W45389  10.574  16.875   2.191 -0.2287 -0.1061 -0.1891
29256W        W45390  11.462   0.288   1.208  0.2694  0.5156  0.0550
29257W        W45391  11.809  17.069   0.102 -0.0562  0.3245  0.2280
29258W        W45392  13.998   2.669   4.441 -0.0432  0.3383  0.0608
29259W        W45393  19.193   3.315   4.554  0.1174  0.2432 -0.3185
29260W        W45394   5.840  12.990  14.600  0.0388 -0.0309  0.0097
29261W        W45395  18.838  13.736   3.374  0.1261  0.3984 -0.0438
29262W        W45396  15.574  16.919  13.387 -0.5019  0.0904 -0.0769
29263W        W45397   3.782  14.091  13.548  0.3017  0.1623  0.2201
29264W        W45398  11.681   3.542   2.467  0.2490 -0.1006  0.1724
29265W        W45399  15.795  10.652  10.476  0.3710  0.0367  0.1770
29266W        W45400   5.970   3.899  10.868  0.3271  0.2383 -0.0081
29267W        W45401  18.530   5.302   4.012 -0.0542  0.1296  0.2649
29268W        W45402   8.748   0.762  12.602  0.0473  0.0397  0.0447
29269W        W45403   0.150   0.116   2.402 -0.1730  0.0928 -0.0313
29270W        W45404  11.511   1.003  10.500 -0.1109 -0.3526  0.0512
29271W        W45405   7.546   4.059   9.847 -0.1958 -0.0578 -0.2427
29272W        W45406  19.013  15.298   2.169 -0.4006 -0.1538  0.0658
29273W        W45407  17.096  10.188  12.237  0.1171 -0.0824  0.2655
29274W        W45408   2.156  13.342  13.207 -0.0695  0.4161 -0.0348
29275W        W45409  10.024   5.048   0.091  0.3767 -0.1866 -0.1031
29276W        W45410   2.024   3.762  11.070 -0.0336  0.1692 -0.2398
29277W        W45411   2.259   6.494   4.095 -0.0621  0.0543 -0.2006
29278W        W45412   3.643   9.970  11.521  0.1121 -0.2544 -0.3131
29279W        W45413  13.035   2.556  10.165 -0.1511 -0.2797  0.0234
29280W        W45414  19.070   8.523  11.721 -0.2925 -0.0130  0.2827
29281W        W45415  11.615   5.477  11.934 -0.0408 -0.2134 -0.0151
29282W        W45416   6.422  15.061   3.394 -0.0232 -0.0439  0.2689
29283W        W45417  12.872  10.681   1.669  0.0619 -0.2019 -0.2479
29284W        W45418  14.486  16.631  12.099  0.2265  0.3482 -0.2403
29285W        W45419   6.468   6.941   1.628 -0.4080 -0.2711  0.1321
29286W        W45420   7.222  11.107   0.689  0.1325 -0.0026  0.0104
29287W        W45421  11.189   6.341  10.086 -0.1108  0.0336 -0.0503
29288W        W45422   6.405   2.531  15.024 -0.1723  0.2237 -0.1158
29289W        W45423   5.124   8.657   2.495 -0.0012 -0.1232  0.1256
29290W        W45424  16.296  18.813   4.543  0.0190 -0.1073 -0.0060
29291W        W45425  13.724   5.993  11.620  0.0032  0.0429  0.0697
29292W        W45426   0.991  13.299  14.524  0.2221 -0.1352 -0.2477
29293W        W45427  10.899  14.622  11.461  0.0492 -0.0032  0.0871
29294W        W45428   6.469  16.427   1.404 -0.0276  0.0626 -0.1438
29295W        W45429   7.865   9.019  11.946  0.1262  0.0075  0.2976
29296W        W45430   6.982  18.574   0.355 -0.0891  0.2737  0.1190
29297W        W45431   1.047   7.936   0.596 -0.0238 -0.2546 -0.1343
29298W        W45432  18.281  17.976  13.234  0.1970 -0.0545 -0.4125
29299W        W45433   1.584   4.098  14.606  0.1797  0.0870 -0.2180
29300W        W45434  17.869  15.099   1.699  0.0370 -0.0018 -0.0784
29301W        W45435  14.857  13.999   1.382 -0.1970  0.0487  0.3062
29302W        W45436  12.605   2.648   3.662 -0.0572  0.0817 -0.2398
29303W        W45437   1.906  16.650   3.513  0.2759 -0.0249 -0.1917
29304W        W45438  14.118   8.430  12.945  0.2814  0.2285 -0.2588
29305W        W45439   0.502  10.025   0.382  0.2245 -0.3504 -0.0465
29306W        W45440   3.468   3.623   1.620 -0.0730  0.3438 -0.1543
29307W        W45441  15.968  12.815   2.339 -0.0974  0.1158  0.1083
29308W        W45442  16.268  16.473  14.060 -0.2623 -0.0159 -0.0747
29309W        W45443   4.174   2.813   3.027 -0.2382 -0.2755  0.2057
29310W        W45444   8.719  18.310  14.608  0.1420 -0.0071 -0.0320
29311W        W45445   8.165  11.065  14.737 -0.0606  0.2126 -0.3063
29312W        W45446   7.466   9.070  12.267 -0.2169  0.2704 -0.2530
29313W        W45447   7.371   6.077  13.822 -0.2465  0.3474  0.0070
29314W        W45448  16.378  10.643  11.013 -0.0375 -0.2252  0.2368
29315W        W45449  10.678  12.144   0.931  0.3615 -0.1597 -0.2229
29316W        W45450   8.074   0.568  13.423 -0.3310  0.1814  0.3083
29317W        W45451   9.323   0.004  13.987 -0.0855  0.1257 -0.0604
29318W        W45452  13.603   6.527   2.305  0.3365  0.2744 -0.4682
29319W        W45453   4.098  18.492  13.031 -0.0703  0.2156 -0.0657
29320W        W45454  18.378   0.150  12.147  0.2115  0.1166  0.0716
29321W        W45455   0.408   8.112   2.539 -0.1906  0.0277 -0.2147
29322W        W45456   8.566  10.174   1.690 -0.2256 -0.0793 -0.0036
29323W        W45457   9.416  18.828  11.723 -0.1698 -0.1186  0.1587
29324W        W45458  13.698  15.220  14.217 -0.3174  0.4403  0.1040
29325W        W45459   2.329   2.503   1.293 -0.0476 -0.1407  0.3842
29326W        W45460   4.705  13.394   4.682 -0.0505 -0.1141  0.2909
29327W        W45461  10.687   1.579   3.479  0.2324  0.1702  0.0817
29328W        W45462  13.216   3.908   4.112  0.0540 -0.1563 -0.3834
29329W        W45463   1.299   8.503   1.083  0.4097 -0.0302  0.1374
29330W        W45464  18.254  13.748  13.205  0.1250  0.2323 -0.0157
29331W        W45465  17.759  10.030   3.693  0.1657 -0.0706 -0.2755
29332W        W45466   6.242  16.789  13.247 -0.1382 -0.3830 -0.0876
29333W        W45467  10.810   6.766   4.318 -0.2528  0.0656 -0.4003
29334W        W45468  13.547   9.478   1.496  0.3374 -0.1313  0.1506
29335W        W45469  13.378   0.688  11.630 -0.0570  0.1968  0.0288
29336W        W45470   5.218   4.235  11.842  0.2349 -0.1103 -0.2051
29337W        W45471   1.803  17.563   2.398  0.2171 -0.0419  0.2121
29338W        W45472  17.461   0.985  11.569  0.0838 -0.0515  0.1048
29339W        W45473   2.553   5.657   3.909  0.3803  0.1542  0.1804
29340W        W45474   5.715   5.013  11.048 -0.0010  0.1057 -0.2010
29341W        W45475  12.794  16.284  14.895 -0.0226 -0.1097 -0.0046
29342W        W45476  14.003  17.087  13.654  0.1669  0.1645  0.0787
29343W        W45477   4.866  14.738  13.303 -0.1835 -0.1001 -0.4225
29344W        W45478  14.899   0.524   0.994  0.3461 -0.1279 -0.2387
29345W        W45479  18.974   0.464  10.581 -0.0740 -0.2342  0.0647
29346W        W45480   9.048   7.048   0.153 -0.1045 -0.0771 -0.2575
29347W        W45481  16.023   4.509   3.190 -0.2490 -0.0664  0.1440
29348W        W45482  12.711   2.590  12.945  0.0427 -0.0614  0.3326
29349W        W45483   9.716   3.295  10.968  0.0538  0.1665  0.0445
29350W        W45484   1.816   6.371   1.176  0.2371  0.1869 -0.1507
29351W        W45485  18.888   0.653   2.713  0.3108 -0.0280  0.4495
29352W        W45486   4.359   4.431   4.284  0.2974 -0.0084 -0.4052
29353W        W45487  14.132   2.645   2.198  0.2131  0.0177  0.0295
29354W        W45488  16.161  18.576   1.244  0.2517 -0.0441 -0.0375
29355W        W45489  17.916   8.494   4.691 -0.2700 -0.2567 -0.1776
29356W        W45490   8.486   4.624  12.539  0.1135 -0.1597  0.2381
29357W        W45491   8.215  16.770  12.075  0.0261 -0.4014  0.2782
29358W        W45492  11.728   0.307  15.029  0.0225  0.0027 -0.0450
29359W        W45493  14.216   7.188   5.362 -0.0270  0.1067  0.0252
29360W        W45494  17.328  16.976   2.446  0.0000 -0.1701  0.1879
29361W        W45495   5.831  14.809   0.181  0.1623  0.0525  0.0230
29362W        W45496  16.303  13.730   0.834  0.0938 -0.3549  0.2054
29363W        W45497  14.124   6.399  12.155  0.1589 -0.1416 -0.0295
29364W        W45498   1.516   2.194   4.003  0.1274 -0.2175  0.0001
29365W        W45499   7.069  17.119  13.776  0.0547 -0.0612 -0.0482
29366W        W45500   3.176   5.883   1.814  0.1938  0.1861  0.2472
29367W        W45501   9.313  12.778  14.746 -0.1069 -0.1049 -0.2665
29368W        W45502   7.362  14.384   4.485  0.0532  0.1234 -0.0377
29369W        W45503  15.466   0.871   0.016 -0.1444 -0.0184 -0.0578
29370W        W45504   3.633  10.688   3.032  0.0432 -0.0327 -0.0855
29371W        W45505  13.005   5.246  11.692 -0.1005  0.0167  0.3309
29372W        W45506   6.125  15.133   4.191 -0.3191 -0.1246  0.1674
29373W        W45507  13.586  16.540  14.622 -0.4215 -0.2737 -0.0520
29374W        W45508   5.572   8.271  11.671  0.1333 -0.0397  0.5915
29375W        W45509   8.271  11.408   4.775  0.2635 -0.2329 -0.2385
29376W        W45510   2.839  13.775  13.684  0.0366  0.0432 -0.0053
29377W        W45511   1.210   3.186  12.692 -0.2149 -0.0615  0.2202
29378W        W45512  10.831   8.301   2.161 -0.0727 -0.2189  0.3513
29379W        W45513   3.051   8.606   4.182 -0.0267 -0.0385  0.1136
29380W        W45514  18.966   8.128  13.182 -0.1832  0.0295  0.0844
29381W        W45515  14.600   2.199  13.720 -0.3927  0.3060  0.0459
29382W        W45516   1.272  14.781   4.846  0.0400  0.1244  0.0907
29383W        W45517   8.672   1.758   4.512  0.0874  0.1805  0.1818
29384W        W45518   2.430   3.974  12.541 -0.2317 -0.4896 -0.2215
29385W        W45519   3.342   9.632   3.455  0.1946  0.2998 -0.0546
29386W        W45520  11.651   6.609   3.000  0.0720 -0.1863 -0.0446
29387W        W45521   3.790   8.234   0.875  0.1713  0.0694 -0.0093
29388W        W45522  15.135  13.715   1.889 -0.2311 -0.4000 -0.0654
29389W        W45523  18.789   0.944   1.736 -0.0687 -0.3343  0.1700
29390W        W45524  12.168  18.065  14.664 -0.0896  0.0559 -0.1804
29391W        W45525   7.604  10.532   5.646 -0.0227  0.2932 -0.3545
29392W        W45526   5.467   9.789  13.448 -0.0550 -0.0479 -0.0930
29393W        W45527  16.540   5.608  12.172 -0.0160 -0.0584  0.0067
29394W        W45528   3.917  14.368  12.986 -0.2103 -0.1005 -0.1898
29395W        W45529   8.443  14.105   2.402  0.0104 -0.0126  0.3475
29396W        W45530  15.783  17.146   5.647 -0.2390  0.1152 -0.0383
29397W        W45531  17.771   5.868   2.143 -0.0181  0.1469 -0.0498
29398W        W45532  11.492  15.951  11.871  0.1652  0.3998 -0.1169
29399W        W45533   2.286  15.914  13.322  0.0158 -0.3686 -0.2081
29400W        W45534  14.581   1.539   4.169  0.3626 -0.2336  0.2358
29401W        W45535  15.805  10.149  14.134 -0.4772 -0.0877  0.2397
29402W        W45536   7.984   4.372   0.942  0.0033  0.2584 -0.2312
29403W        W45537  12.531   7.001  13.406  0.1906  0.1367  0.2648
29404W        W45538   7.975  18.096  14.717  0.0596  0.0004  0.1299
29405W        W45539  11.998   9.643   1.612  0.0088 -0.0386 -0.0604
29406W        W45540  13.941   2.955  11.997 -0.1787 -0.0576 -0.4171
29407W        W45541   5.045   8.891   1.571  0.2058 -0.0647  0.0602
29408W        W45542   8.258  15.305   0.158  0.0884  0.1190 -0.0235
29409W        W45543   1.029  13.095   5.684 -0.0005  0.0344 -0.0524
29410W        W45544   7.423  14.736   4.019  0.4271 -0.0474  0.0152
29411W        W45545  17.339   8.461   2.388  0.0187  0.1266  0.0168
29412W        W45546  11.388   0.028  12.745 -0.2264 -0.1221  0.0582
29413W        W45547  15.214   1.095   5.018 -0.0221  0.0787 -0.1647
29414W        W45548  10.012   0.643  12.132  0.2027  0.1376 -0.2000
29415W        W45549   3.298  12.230   0.458 -0.1844 -0.0899  0.3954
29416W        W45550   4.408  16.208  10.891  0.1079  0.0797  0.4858
29417W        W45551  13.058  10.520  12.439  0.2929  0.2216 -0.0517
29418W        W45552  15.886  15.041  15.021 -0.4201  0.1541 -0.0296
29419W        W45553   5.025  12.129  14.975 -0.3058 -0.0111 -0.0564
29420W        W45554  16.722   8.262   2.123  0.1355 -0.1239  0.1709
29421W        W45555  17.546  10.940  13.802 -0.1545 -0.0420 -0.1820
29422W        W45556   4.462   6.142   4.748  0.0057 -0.1720 -0.0707
29423W        W45557   1.762   8.228   4.532 -0.3186  0.1353  0.2290
29424W        W45558  15.106   5.531  14.006  0.2631 -0.0641  0.2626
29425W        W45559   3.310  16.921   0.685 -0.0244  0.0279  0.0422
29426W        W45560   0.687   7.081   5.357 -0.1174  0.3717  0.0635
29427W        W45561  17.720   9.106   3.592 -0.2072  0.1391  0.1595
29428W        W45562   4.536   5.435   3.818 -0.0619  0.0180 -0.0040
29429W        W45563  14.125  12.585  12.167 -0.1520 -0.3767 -0.0665
29430W        W45564  12.340  10.592  14.417 -0.1914 -0.0502 -0.0756
29431W        W45565   7.458  11.682  11.965 -0.2537 -0.0648 -0.2404
29432W        W45566  13.248   6.439   0.583  0.1251  0.1429 -0.2937
29433W        W45567  14.295  14.479  14.833  0.4876 -0.1243  0.0870
29434W        W45568   0.836   8.858  12.511  0.4688  0.0824  0.1078
29435W        W45569  13.223  13.483   5.084  0.1503  0.0630 -0.1933
29436W        W45570   6.460  10.905   5.145  0.0376 -0.2527 -0.1580
29437W        W45571   7.498   0.213   2.668 -0.0681  0.0007  0.0993
29438W        W45572   6.676  16.689  13.905  0.1295 -0.0366 -0.1573
29439W        W45573  10.038  10.440  14.154 -0.2369 -0.1365 -0.1930
29440W        W45574  11.654   7.932  13.528  0.0436  0.2117 -0.0315
29441W        W45575  12.054  10.986   3.206  0.3110  0.0136  0.0938
29442W        W45576   0.119   0.637   0.960  0.0397 -0.2319 -0.0909
29443W        W45577  15.324  12.517   5.126  0.1306  0.1928 -0.1354
29444W        W45578  15.405   7.054  14.295 -0.2175 -0.0135 -0.4017
29445W        W45579   4.835   1.444   1.899  0.3319 -0.0004  0.3039
29446W        W45580  12.943  16.333   2.016 -0.2261  0.4684 -0.1305
29447W        W45581   7.325   7.359   8.972  0.0327  0.1741  0.1411
29448W        W45582  12.359   6.487   1.703 -0.1888  0.0417  0.0381
29449W        W45583  17.600   4.126   1.930 -0.3548  0.0520 -0.0604
29450W        W45584  12.729  14.493   5.498  0.2218  0.4228 -0.1641
29451W        W45585  11.372  13.674  11.911  0.2496  0.0866 -0.1052
29452W        W45586  12.566   0.598  15.019 -0.1850 -0.1944  0.0317
29453W        W45587  12.065   9.684   2.211 -0.0206 -0.0766 -0.1172
29454W        W45588   2.445   6.788   2.815 -0.5298  0.1243 -0.0813
29455W        W45589  11.253   5.264  14.057 -0.3212 -0.1523 -0.3200
29456W        W45590  15.932   3.403  10.609  0.1706  0.0140 -0.2532
29457W        W45591   4.537   2.192  10.728 -0.0321  0.1395 -0.1367
29458W        W45592   5.221  14.077   2.393  0.2432 -0.1747  0.1842
29459W        W45593   7.204  16.143   0.498 -0.1837 -0.1291  0.1097
29460W        W45594   9.672  17.091  11.896 -0.0576  0.1358 -0.0973
29461W        W45595  14.601  11.192   3.938  0.4038  0.0999  0.0114
29462W        W45596   8.667  12.898   5.723 -0.0753 -0.0397  0.2014
29463W        W45597  15.375   4.329  13.278 -0.3360  0.4231 -0.1631
29464W        W45598  15.568  13.261  14.908 -0.1175 -0.0969  0.2661
29465W        W45599  15.652  12.889  12.960 -0.0084 -0.0209 -0.4443
29466W        W45600  15.180   9.590   3.795  0.3263  0.0128 -0.1598
29467W        W45601  14.005   1.241   9.984 -0.3788 -0.1002 -0.0211
29468W        W45602  18.666  11.682   2.361 -0.1956  0.1259  0.3595
29469W        W45603   2.029   4.646  13.850  0.0312  0.1767  0.1160
29470W        W45604   2.130   6.789   0.339 -0.0338 -0.2804 -0.2920
29471W        W45605   4.802  12.515  14.539  0.2839  0.0959 -0.2891
29472W        W45606  17.087   1.730  15.005 -0.2409  0.5713  0.2540
29473W        W45607  11.234  13.814   4.457 -0.1000 -0.2664  0.0510
29474W        W45608  14.784   7.417   1.325 -0.3062  0.0322  0.0211
29475W        W45609   4.219   4.217  14.751  0.0220 -0.2494 -0.1724
29476W        W45610  14.905   0.055   2.164 -0.2810 -0.2181 -0.0533
29477W        W45611  13.859   9.621   3.831  0.0482  0.1646 -0.0418
29478W        W45612   9.810  15.403  11.486  0.1468 -0.2055  0.1031
29479W        W45613  15.779   7.997   5.523  0.1340 -0.0913  0.3083
29480W        W45614   5.765   2.434   0.808 -0.3369 -0.0810  0.1989
29481W        W45615   5.730   0.246  13.173 -0.0507 -0.1364  0.4374
29482W        W45616  16.361   5.818  12.650 -0.1265  0.0934 -0.0163
29483W        W45617   0.779  11.934   0.149  0.3361 -0.1395  0.1052
29484W        W45618   2.254  11.896  11.111 -0.1719 -0.0540  0.1443
29485W        W45619  18.944   9.647   3.157  0.0992 -0.1024  0.1266
29486W        W45620  15.305  15.450   2.361 -0.1716 -0.1172  0.1251
29487W        W45621  13.013   3.178   4.534 -0.0524 -0.0009  0.1095
29488W        W45622   9.499  11.964  12.186  0.0802  0.1859  0.0920
29489W        W45623   4.828  10.397   0.059 -0.5782 -0.1668 -0.0461
29490W        W45624   0.724   0.141  12.974 -0.0481  0.1297 -0.0018
29491W        W45625   8.236   7.189  12.694  0.3298  0.0967  0.0871
29492W        W45626   5.884   1.674  13.784 -0.3011  0.3061 -0.0831
29493W        W45627  15.112  17.628  10.708  0.2563 -0.0810  0.0840
29494W        W45628  13.161   2.316   3.179 -0.2345  0.2148 -0.1423
29495W        W45629  12.137  17.591   1.866  0.0300 -0.1835  0.0037
29496W        W45630  13.614   5.119   1.883  0.1091 -0.2227 -0.0766
29497W        W45631   4.175  12.444   3.587  0.0873  0.2577  0.1112
29498W        W45632  16.869  10.736  14.722  0.0759  0.2520 -0.1965
29499W        W45633   3.263  14.506  14.523  0.2699  0.1309  0.2216
29500W        W45634  11.516  10.175   4.464 -0.2119 -0.2739 -0.2178
29501W        W45635  17.026  18.582  12.032  0.3530  0.0444  0.1236
29502W        W45636   3.221   2.718  12.152 -0.4083 -0.0242  0.1885
29503W        W45637  12.429  12.983   4.234 -0.0267  0.1668 -0.1521
29504W        W45638   4.989  14.333   1.371  0.1882 -0.0769  0.0915
29505W        W45639   8.691   8.456   2.337 -0.0864 -0.0294  0.0966
29506W        W45640   9.665   2.139   1.642  0.1708 -0.1877  0.2638
29507W        W45641   0.422  19.110  10.924  0.0185 -0.1942  0.1856
29508W        W45642   1.183  11.522   4.120 -0.0673  0.2117  0.1314
29509W        W45643   7.724   3.090  11.916 -0.1223 -0.0510  0.0092
29510W        W45644  12.183   9.768   3.898 -0.1910 -0.1505  0.0669
29511W        W45645  11.682   7.168   3.610 -0.0539  0.3813 -0.1110
29512W        W45646  14.056   7.244   1.126 -0.1390 -0.3876 -0.2377
29513W        W45647  14.359   9.569  10.654  0.0916 -0.0814  0.6048
29514W        W45648   0.912   8.822  14.453 -0.0217  0.1200  0.2112
29515W        W45649  12.133   1.048  14.452  0.0625 -0.0017  0.0725
29516W        W45650   1.923  18.285  10.721  0.0573  0.2583  0.0559
29517W        W45651   8.446  15.168   5.651  0.2367 -0.0746 -0.0597
29518W        W45652   4.252  10.057   2.782 -0.0920 -0.1523 -0.1310
29519W        W45653  17.819  16.445  14.595 -0.1448 -0.1381  0.4662
29520W        W45654   3.368   3.957  14.860  0.3111 -0.2003  0.1158
29521W        W45655   7.206   4.422   4.124 -0.3364  0.2593 -0.0122
29522W        W45656  17.265   0.164  12.743 -0.2166  0.1938 -0.2044
29523W        W45657   8.043   1.555   1.957 -0.1264  0.1233  0.2880
29524W        W45658  15.859   0.610   3.775 -0.0760  0.0793  0.1573
29525W        W45659   0.307   0.367  12.336  0.2377  0.3660 -0.0752
29526W        W45660   1.692   4.962   1.454 -0.0345 -0.2014  0.1673
29527W        W45661  13.728  12.145   1.555  0.0691 -0.2129  0.3400
29528W        W45662   5.510   0.557   1.085  0.1300 -0.0024 -0.2848
29529W        W45663  18.360   5.649  14.810 -0.3408 -0.1779  0.2200
29530W        W45664   3.667   0.501  12.707  0.1171  0.0082  0.3288
29531W        W45665   8.811  14.936  10.767  0.0102  0.0025 -0.4217
29532W        W45666  19.191  13.133   4.160  0.1556 -0.0804 -0.3138
29533W        W45667   7.004  10.429   0.042 -0.0876  0.1220  0.5230
29534W        W45668  15.655   5.334   1.503  0.0935 -0.0492  0.1229
29535W        W45669   9.879   9.931   0.752 -0.1450 -0.2102  0.2315
29536W        W45670  12.196   9.301   1.950  0.0679  0.1117  0.1916
29537W        W45671   4.397  14.746  13.674 -0.2861  0.0283 -0.1035
29538W        W45672  11.150   7.145   0.209  0.0960  0.1424  0.0356
29539W        W45673  11.345  13.446   3.528  0.0178 -0.1053  0.3482
29540W        W45674   4.164  15.468   9.710 -0.1435 -0.1348 -0.0545
29541W        W45675   8.188   3.200  12.265 -0.0807 -0.0993  0.0797
29542W        W45676   1.972  12.836   4.615  0.2804  0.0948 -0.2421
29543W        W45677  15.266  11.457   4.618 -0.2117  0.0807  0.0281
29544W        W45678  15.880  19.028   1.283  0.0609 -0.2331 -0.0568
29545W        W45679   6.799  13.298  11.837 -0.1693 -0.2224 -0.0488
29546W        W45680   1.125  10.620  11.748 -0.2186  0.0634 -0.0255
29547W        W45681   3.479  11.724   2.093 -0.0752 -0.0879 -0.1892
29548W        W45682  10.771  14.665  13.321  0.0062 -0.0343 -0.2314
29549W        W45683   1.311   6.310  15.028  0.0230 -0.1308  0.0076
29550W        W45684   9.295   6.171   0.173 -0.0968 -0.0821 -0.1132
29551W        W45685   5.518  13.967   0.331  0.0447  0.1812 -0.0090
29552W        W45686  15.040   8.412  12.845  0.1262  0.3537 -0.0280
29553W        W45687   0.079  15.172  13.423  0.0727  0.0811 -0.0901
29554W        W45688   1.567  10.355  13.469  0.1336 -0.0230 -0.3300
29555W        W45689   5.000   7.631  11.051 -0.1403  0.0428  0.1826
29556W        W45690   7.276  18.728   1.613 -0.0786  0.2484 -0.0284
29557W        W45691   9.685  14.968  13.713  0.1519  0.2311 -0.1082
29558W        W45692  12.786  10.198   3.490 -0.2458 -0.3311 -0.2351
29559W        W45693   2.716   8.215  10.869 -0.0264  0.0122 -0.1978
29560W        W45694   2.892  14.381   2.895 -0.2828  0.1935 -0.0418
29561W        W45695   7.859   5.474   4.560 -0.0085 -0.1010 -0.0242
29562W        W45696  15.978   2.197  11.937  0.0174  0.0850  0.2236
29563W        W45697  12.467  17.172  13.783  0.3754 -0.2143  0.4890
29564W        W45698  14.510  10.494   1.452  0.0199  0.1825 -0.0399
29565W        W45699  14.740  11.930   0.128 -0.2200  0.0997 -0.2435
29566W        W45700   2.793  15.501   5.023 -0.1018 -0.0935 -0.3323
29567W        W45701   4.934   8.990   0.544 -0.0385  0.0783  0.2980
29568W        W45702   6.902   9.264   9.955 -0.4632  0.0459  0.0788
29569W        W45703  12.525  14.696  10.806  0.1220 -0.2405  0.1496
29570W        W45704   5.111  16.109   1.250 -0.0822  0.0170 -0.0255
29571W        W45705   3.541   4.323   4.385  0.3345 -0.0830 -0.0928
29572W        W45706   9.156   5.190  14.256 -0.0344 -0.0343  0.1589
29573W        W45707   7.959   8.230  12.414 -0.4031 -0.0006  0.0615
29574W        W45708   8.282  14.497   5.842  0.2428  0.2799 -0.2903
29575W        W45709  11.106  15.305   1.725  0.2461  0.2677  0.0959
29576W        W45710   4.316  13.483   3.990  0.1038 -0.0646 -0.1702
29577W        W45711  10.807  17.073  13.162 -0.3323 -0.3610 -0.5253
29578W        W45712   5.872   7.371   5.320 -0.1292  0.2101 -0.2465
29579W        W45713   8.209  15.211  10.346 -0.0216 -0.1747  0.5397
29580W        W45714  14.463  14.645  12.441 -0.0181  0.0197 -0.1641
29581W        W45715  18.184   6.720   4.140 -0.2094  0.2506 -0.1745
29582W        W45716   4.035  14.464   3.548 -0.1162 -0.1246 -0.3305
29583W        W45717   2.892  14.096  11.607 -0.3816  0.1344 -0.2601
29584W        W45718   9.440  15.027  11.533 -0.1888 -0.3084 -0.0373
29585W        W45719  10.058  15.594   0.172 -0.1676  0.2968 -0.3372
29586W        W45720  14.674   3.365  12.282 -0.0258 -0.1531 -0.4130
29587W        W45721  17.332   0.042  10.945  0.2318 -0.0589 -0.2597
29588W        W45722   2.566   3.308   1.006 -0.1189  0.1855 -0.0656
29589W        W45723   8.681   4.938  10.637  0.1756  0.3577  0.1467
29590W        W45724   4.342  10.309  12.104 -0.1380  0.2467 -0.2890
29591W        W45725   8.836  16.406   2.987 -0.4411  0.1031 -0.4207
29592W        W45726   2.880   7.701  11.697  0.2553  0.0195  0.1371
29593W        W45727   9.655  12.087  14.226  0.1029 -0.0775  0.3313
29594W        W45728   6.953   3.680  11.562 -0.2772  0.0207 -0.0275
29595W        W45729   3.588   5.312   1.060  0.2348  0.1035  0.0107
29596W        W45730   7.700   3.843   5.056 -0.0576  0.2883 -0.1126
29597W        W45731  11.196   8.916  12.811  0.2788 -0.2031  0.1794
29598W        W45732  17.627  14.450  12.709 -0.0633  0.3183 -0.0576
29599W        W45733  10.550   3.464  13.525 -0.1452 -0.0507 -0.1843
29600W        W45734  11.244   2.432   9.471 -0.1097  0.2033  0.0595
29601W        W45735   5.552   7.353  10.293 -0.3150 -0.4002 -0.3036
29602W        W45736   2.868  13.402   3.144  0.1526 -0.3791 -0.1112
29603W        W45737  12.906   7.477   4.916 -0.1676  0.0595 -0.3191
29604W        W45738   6.912   8.455   2.440  0.0297 -0.0653 -0.1184
29605W        W45739   0.722   2.726   3.450 -0.0792 -0.0932  0.0548
29606W        W45740  10.711   5.380  11.184  0.1628  0.2068 -0.2810
29607W        W45741   4.712   8.794   4.645  0.2898 -0.1882 -0.0580
29608W        W45742   7.091  13.266   4.727 -0.0338 -0.1194 -0.3158
29609W        W45743  11.554  14.456  13.002 -0.1430 -0.3368  0.1838
29610W        W45744  13.280   0.994   3.930  0.0366  0.1526 -0.4077
29611W        W45745   9.940  11.919   0.237  0.1141 -0.0472 -0.3511
29612W        W45746   4.504   0.588  13.092  0.3692 -0.3398  0.4839
29613W        W45747  10.366   6.650  10.256 -0.3887 -0.2140  0.0457
29614W        W45748   1.823   9.814   1.952 -0.1691 -0.2068  0.1896
29615W        W45749   2.080   7.467   1.513  0.1073 -0.1042 -0.1005
29616W        W45750  14.329   8.178   4.361 -0.1591  0.2828  0.2360
29617W        W45751  14.407   3.000  10.954 -0.3032 -0.3221 -0.1444
29618W        W45752   5.826   4.259  10.471 -0.0264 -0.3283  0.1133
29619W        W45753   2.892   3.169  13.868  0.0300  0.1294  0.0431
29620W        W45754   6.145   0.653   3.070  0.1808  0.0111 -0.4108
29621W        W45755   5.849   2.907   4.604 -0.2074 -0.1939 -0.2676
29622W        W45756   7.027   9.266   3.584 -0.1801  0.1576 -0.0936
29623W        W45757  18.214  13.730   1.900  0.0193  0.0020  0.0543
29624W        W45758   4.574  12.330  11.999 -0.1252 -0.4285 -0.0947
29625W        W45759  12.834  15.766  13.345  0.0661 -0.2303 -0.1088
29626W        W45760  11.047  17.574  11.917 -0.2993 -0.0725 -0.2247
29627W        W45761  13.894  13.686  14.002  0.0573 -0.1186  0.1693
29628W        W45762   2.071   6.972   2.520 -0.0796 -0.0006 -0.2514
29629W        W45763  13.927  10.669  12.279  0.2657  0.2424 -0.1128
29630W        W45764  16.050   8.973   4.702 -0.1062 -0.1752  0.1379
29631W        W45765  18.891   1.676  13.164  0.0109  0.0322 -0.3663
29632W        W45766  12.836  11.309  13.804  0.0079  0.0959  0.1001
29633W        W45767   8.089  12.461   5.346  0.2496 -0.0241 -0.0782
29634W        W45768  14.241  16.751   0.003  0.0464 -0.3203 -0.2213
29635W        W45769   0.726  13.331  11.898  0.2108 -0.0140 -0.0001
29636W        W45770  11.168  10.888   1.230  0.0840  0.2084  0.1997
29637W        W45771  10.478   7.463   3.224 -0.0052  0.0213 -0.0580
29638W        W45772  17.134   9.979   4.528 -0.0209 -0.2520 -0.0014
29639W        W45773   9.407   2.248  12.656 -0.1201  0.0578 -0.0356
29640W        W45774  12.704   2.930  10.261 -0.0307  0.0770 -0.1148
29641W        W45775  16.706   0.008   0.089  0.1073  0.1823 -0.1961
29642W        W45776  16.525   7.958  12.734  0.0029  0.0407  0.1452
29643W        W45777   7.019  12.840   0.878 -0.0414 -0.0091  0.4664
29644W        W45778  13.892  17.370   1.197 -0.1724  0.2090  0.2462
29645W        W45779  17.267  10.879   4.690  0.2111  0.2621 -0.2619
29646W        W45780  18.497  18.583  10.906 -0.1077 -0.5048  0.0940
29647W        W45781   6.449  14.102   2.334 -0.1251 -0.1203  0.1613
29648W        W45782   5.751  10.910   2.620 -0.1072 -0.2223  0.4619
29649W        W45783   6.294   7.671   4.738 -0.1269 -0.0796 -0.1496
29650W        W45784   8.453  15.963   0.938 -0.0310 -0.0597 -0.0563
29651W        W45785   1.526  15.141  10.376  0.2360  0.2104 -0.2385
29652W        W45786   8.169  17.586  12.596 -0.1846 -0.0083 -0.1059
29653W        W45787  13.682   8.930   1.330  0.0556  0.1930 -0.0225
29654W        W45788   9.754   9.271   0.685 -0.2251  0.3105  0.1511
29655W        W45789   1.502   2.444  12.084  0.2088 -0.1827  0.2448
29656W        W45790   1.566   4.117  12.930  0.0897  0.0899 -0.0353
29657W        W45791  10.677   4.537  12.040  0.1325 -0.1054  0.1168
29658W        W45792  18.214   6.412  14.499 -0.4443  0.1663 -0.1605
29659W        W45793   7.922   3.918   0.702 -0.0224  0.1499 -0.1199
29660W        W45794  18.622  17.282   1.959 -0.0327  0.4164 -0.0303
29661W        W45795  15.410   2.674  10.409 -0.2531  0.5195 -0.0629
29662W        W45796  16.286   1.550   1.386 -0.3778  0.3154  0.2748
29663W        W45797   6.630  11.893  11.712  0.1215 -0.0795  0.0911
29664W        W45798  14.901   0.939  13.281 -0.0089  0.0358  0.1796
29665W        W45799  11.298  12.804  10.509 -0.0407 -0.2341 -0.0316
29666W        W45800   2.116   8.459  13.835  0.1323 -0.1854  0.1692
29667W        W45801   5.726   0.849   3.414 -0.1661 -0.1659 -0.1759
29668W        W45802  13.820   2.133  10.349 -0.1329 -0.0102 -0.1693
29669W        W45803   5.897  10.235  11.596  0.0495 -0.1541  0.2813
29670W        W45804   1.166  12.734  11.386 -0.3571  0.2411  0.0884
29671W        W45805   9.758  12.075   1.435 -0.0912 -0.1007 -0.2994
29672W        W45806   7.465   0.139   3.596  0.1407  0.0721 -0.1577
29673W        W45807  18.266   7.968   4.171  0.0947 -0.2782 -0.0137
29674W        W45808   5.969   8.246  11.371  0.0483  0.2367 -0.2498
29675W        W45809   5.317   0.218  14.560  0.1226 -0.3649 -0.1317
29676W        W45810  15.235   2.399  14.700 -0.1053 -0.0847  0.1485
29677W        W45811  17.002  17.729   0.641 -0.1981  0.1957 -0.0086
29678W        W45812   3.892   1.074  13.964 -0.1167 -0.2336 -0.3360
29679W        W45813  18.943   7.010  11.823 -0.3746  0.0912  0.3076
29680W        W45814   6.934   4.399   1.332  0.0601 -0.3178  0.2940
29681W        W45815  14.815  11.520   1.248  0.0136 -0.1596 -0.1858
29682W        W45816  19.135  15.810   0.224 -0.1221  0.3517 -0.1584
29683W        W45817  16.419   9.765  12.642 -0.0161  0.0276 -0.0299
29684W        W45818   9.230   7.570  12.392  0.2443  0.1139  0.0526
29685W        W45819  11.004   5.345  12.255  0.2171  0.0784 -0.1737
29686W        W45820   1.083  16.259  14.309 -0.2136 -0.1936  0.1896
29687W        W45821   3.762  16.610  13.749 -0.0541 -0.3734 -0.1368
29688W        W45822   8.518   1.862  10.069  0.1917  0.0267 -0.2010
29689W        W45823  15.528  15.098   2.652 -0.0414  0.1046 -0.1603
29690W        W45824  13.627   3.791   9.228  0.0063  0.0527 -0.2393
29691W        W45825  12.963   2.775  13.882  0.0125 -0.0547 -0.1603
29692W        W45826  14.703  18.760  12.168  0.2524 -0.0717  0.1671
29693W        W45827   0.915   9.954  12.539  0.1039  0.4756 -0.0550
29694W        W45828  17.467   5.938  10.186 -0.0446  0.0316 -0.3152
29695W        W45829   1.420  12.818   4.653 -0.0504  0.0847 -0.0010
29696W        W45830  17.749  10.956  10.273  0.2729  0.0144  0.0721
29697W        W45831  11.941  16.616   3.310 -0.1607 -0.0303  0.0367
29698W        W45832   5.592   6.950  10.016  0.0422 -0.0475 -0.2495
29699W        W45833   5.692   4.082  11.804  0.1325 -0.1041  0.1963
29700W        W45834   9.295  17.932   3.113  0.1241 -0.0393  0.2263
29701W        W45835  15.598  19.194   0.338 -0.1141  0.0255 -0.1335
29702W        W45836   7.400  14.895  10.868 -0.0183  0.0875 -0.1743
29703W        W45837   6.705   4.160   1.832  0.1067 -0.2612 -0.1459
29704W        W45838   5.012   6.071   2.918 -0.0588  0.0050  0.1978
29705W        W45839   1.915  17.759  12.056  0.1612 -0.0144 -0.1574
29706W        W45840   1.036  13.044   4.810  0.0728  0.1502  0.1208
29707W        W45841  13.974  18.656  13.433 -0.0086  0.3622 -0.0149
29708W        W45842   0.942  14.508  11.825 -0.2270 -0.0638 -0.0279
29709W        W45843   4.578   2.954  12.879  0.2883 -0.0523 -0.2053
29710W        W45844   0.970   2.702   0.410  0.2554  0.2711  0.0604
29711W        W45845   7.046   0.735   1.251 -0.2434  0.0413  0.2186
29712W        W45846  11.444  15.285   2.657 -0.0249 -0.0568 -0.2349
29713W        W45847   9.035  17.942  14.562  0.1428  0.0143 -0.2537
29714W        W45848  15.540  15.716   3.963 -0.1881  0.2501 -0.1391
29715W        W45849   6.133  18.101   0.087 -0.2278  0.2318 -0.2091
29716W        W45850   5.507   8.475   3.902 -0.0122  0.0706  0.0508
29717W        W45851  15.756  12.400   3.416 -0.1814 -0.0133  0.0852
29718W        W45852   1.697  12.777   4.205  0.0333  0.2565 -0.0303
29719W        W45853  16.639  10.215  10.854 -0.0738  0.1749 -0.1556
29720W        W45854   7.692   2.239  11.606 -0.1222  0.1779 -0.2817
29721W        W45855  10.589  14.614  10.970 -0.3020 -0.1389  0.0751
29722W        W45856   7.659   1.803  13.177 -0.0766  0.0371  0.3152
29723W        W45857   8.360   7.611   0.856 -0.2593  0.1710  0.0041
29724W        W45858  14.526   1.975   1.055  0.0682 -0.2440  0.0472
29725W        W45859   5.807  12.988   4.737  0.2239  0.0954  0.1387
29726W        W45860   9.934   9.178  11.141 -0.1342  0.1519  0.0846
29727W        W45861   8.129  16.535   9.714 -0.0419  0.0762  0.0246
29728W        W45862   9.038  14.346   4.715  0.2143  0.0401  0.1556
29729W        W45863   6.218  13.647   1.838  0.4535 -0.2226 -0.0241
29730W        W45864  17.385  17.914  13.313 -0.0431  0.2193  0.0449
29731W        W45865  17.933  12.617   1.250  0.0649  0.2772 -0.1834
29732W        W45866   0.118  19.072  12.268 -0.1283  0.2289 -0.2893
29733W        W45867  14.548   6.879  10.337  0.2106  0.0229 -0.1276
29734W        W45868   9.147  13.182   9.677 -0.2380 -0.0242  0.1661
29735W        W45869  12.121  12.382  11.759 -0.1235 -0.2752  0.1615
29736W        W45870  13.702  16.725  13.298 -0.3945 -0.2226  0.1778
29737W        W45871   1.221  17.163  11.910  0.1695 -0.4026 -0.0778
29738W        W45872   5.814   4.666   0.160  0.1727 -0.1821 -0.2303
29739W        W45873  18.698  15.297   5.776 -0.1237  0.1982  0.3222
29740W        W45874  10.196  19.182  14.267  0.0223 -0.2974 -0.0861
29741W        W45875  16.990   6.381   1.917 -0.0219  0.1500  0.0203
29742W        W45876   7.906   4.417  12.392  0.2930 -0.0336 -0.1371
29743W        W45877   8.371   1.548  13.612 -0.0750 -0.0961  0.2939
29744W        W45878   7.614  19.081   3.191  0.0178 -0.0594 -0.2799
29745W        W45879  18.631  17.684   3.542  0.0074  0.0631  0.0246
29746W        W45880  11.999  15.274   2.706 -0.1543  0.0788 -0.0488
29747W        W45881  15.067  10.858  12.365  0.1066 -0.1882  0.0449
29748W        W45882  12.528  12.376   2.566  0.1904 -0.0949 -0.0728
29749W        W45883  18.095  18.621   5.071  0.2184 -0.1200  0.0517
29750W        W45884  16.225   1.587  13.024 -0.0372  0.0953 -0.0518
29751W        W45885   3.943  17.211  14.813  0.1271  0.2519 -0.1022
29752W        W45886   7.471   5.976  15.009 -0.1478 -0.1085 -0.2251
29753W        W45887  11.480  14.003  10.243 -0.6530  0.1029 -0.1046
29754W        W45888   2.415   0.585  13.253  0.1290 -0.1117 -0.1531
29755W        W45889  15.259   4.907   0.591  0.3188  0.2856  0.0598
29756W        W45890  13.289  17.366   4.458  0.4585 -0.0478  0.1739
29757W        W45891   9.871   6.587   2.952  0.0278  0.0231 -0.0863
29758W        W45892   7.176   9.520   1.167  0.1375  0.2158 -0.1881
29759W        W45893   1.266   4.619   3.215 -0.1652 -0.0393  0.1569
29760W        W45894  17.215   8.528  10.461  0.3210 -0.1266  0.2746
29761W        W45895  14.499  14.058  11.047  0.2567 -0.0118  0.2106
29762W        W45896  11.623  15.089  11.911 -0.2608 -0.1044  0.1969
29763W        W45897  12.249  11.568  11.993  0.0763  0.1323 -0.3137
29764W        W45898   6.036   9.273  11.424 -0.2893 -0.0396 -0.1299
29765W        W45899  14.367   6.093  13.887 -0.1297  0.1843  0.3419
29766W        W45900  14.764   0.330  13.148 -0.1199 -0.0687 -0.4172
29767W        W45901  14.625   0.643   1.480 -0.2733  0.3434 -0.1337
29768W        W45902  18.734   0.109   4.963  0.0957  0.4156 -0.0614
29769W        W45903   2.030  14.453   5.214  0.0695  0.1967  0.2881
29770W        W45904  16.105  12.719  11.039  0.1063  0.1226  0.3898
29771W        W45905  18.677   3.044   0.166 -0.2084 -0.1780  0.2826
29772W        W45906  13.962  12.983   4.743 -0.2337  0.1345  0.2181
29773W        W45907   4.100   1.484   0.432  0.0205 -0.3835 -0.1045
29774W        W45908   9.367  16.552   2.941 -0.0827 -0.2337  0.2629
29775W        W45909   2.992  18.603   4.606 -0.1338  0.1185  0.0715
29776W        W45910  18.983   0.776  14.052 -0.0778  0.1097  0.2366
29777W        W45911  16.460  17.923   0.031  0.0876  0.3096  0.0371
29778W        W45912   1.578  16.366  14.130 -0.0035  0.0679  0.0018
29779W        W45913  11.008  12.887   0.629  0.0489 -0.0497 -0.1631
29780W        W45914   4.692   0.183   1.872  0.4227 -0.1384  0.2010
29781W        W45915  16.310   1.479   4.083  0.0984  0.1144 -0.0526
29782W        W45916  10.507   3.128   4.729  0.1079  0.1154  0.0867
29783W        W45917   5.455  16.870  12.373 -0.0920  0.0262  0.1109
29784W        W45918  15.064   6.677  14.556  0.1389  0.1538  0.2519
29785W        W45919   1.392   1.812   0.684  0.0321  0.1858 -0.0364
29786W        W45920  13.999  15.882   0.922  0.1933  0.1830 -0.0878
29787W        W45921   1.009   6.310   1.871 -0.1880  0.5491  0.1784
29788W        W45922   9.065   2.466   0.900  0.2583  0.2282  0.3610
29789W        W45923   8.899   7.980  13.188 -0.4558  0.1793 -0.0841
29790W        W45924  14.932   2.945  11.129 -0.1047 -0.0395  0.0000
29791W        W45925  17.188   4.437   3.226 -0.1552  0.0766  0.0752
29792W        W45926  11.574  15.400  12.900 -0.1611  0.1694 -0.2785
29793W        W45927   5.420  11.011   3.041  0.0466 -0.1572  0.1548
29794W        W45928   7.733   7.673   3.269  0.1499  0.1639 -0.1429
29795W        W45929  18.809  11.123  10.250 -0.1633 -0.3340  0.1883
29796W        W45930   7.556   9.532  12.036 -0.2806  0.1089  0.2732
29797W        W45931   8.122   5.037  14.255 -0.1941 -0.4693 -0.0054
29798W        W45932   7.707   4.910  11.178  0.1951 -0.3463  0.0313
29799W        W45933   7.931  17.927  13.341 -0.0051  0.1105  0.0062
29800W        W45934   9.815   5.783   1.842 -0.1086 -0.2759 -0.1268
29801W        W45935  14.915   4.011   3.323  0.1643  0.0599  0.1479
29802W        W45936   4.120  11.725  14.228 -0.1238  0.0583 -0.2334
29803W        W45937  16.457  12.081  11.686 -0.0981  0.2595 -0.1223
29804W        W45938  11.221   1.451  12.537  0.1200 -0.1153  0.0574
29805W        W45939  18.959  18.031   4.833  0.2326 -0.0956 -0.0218
29806W        W45940  12.122   4.019  14.863 -0.3485 -0.0213  0.1531
29807W        W45941   9.957  18.021   1.655 -0.0812 -0.1300 -0.1355
29808W        W45942   8.771  18.581   1.381  0.2645  0.0139  0.1279
29809W        W45943   2.637  15.907   5.877  0.1714 -0.0522  0.0254
29810W        W45944  15.644   9.101   3.424  0.0398  0.4075 -0.1268
29811W        W45945  16.180   8.244  13.093  0.3581 -0.2858  0.1776
29812W        W45946   1.542   8.572   2.221  0.0192 -0.1147 -0.1230
29813W        W45947  11.087  18.534  10.136 -0.1007 -0.3650  0.1129
29814W        W45948   1.214   8.846  12.944 -0.0357  0.0809 -0.4400
29815W        W45949   0.125   6.721  11.824  0.0010 -0.0410  0.1312
29816W        W45950   4.559  13.619   0.877  0.1015  0.1441  0.0164
29817W        W45951  13.932   7.743   0.781 -0.1242  0.3523  0.4080
29818W        W45952  13.577   6.365  11.959  0.2443  0.1308 -0.1332
29819W        W45953  15.685  15.974  12.885  0.0808  0.1478  0.0546
29820W        W45954  16.718   0.596  10.647 -0.1320 -0.0896  0.1881
29821W        W45955   4.152  13.707  12.228  0.2902 -0.0084  0.2468
29822W        W45956  14.506   1.597   1.387 -0.0961 -0.0381  0.1711
29823W        W45957  11.274   2.195   3.243  0.4226  0.0322 -0.2854
29824W        W45958  13.313  10.843  14.575  0.3305 -0.1769  0.0514
29825W        W45959  15.146   4.369   4.947 -0.0452  0.2265  0.0498
29826W        W45960  12.118   7.724  14.217  0.0410 -0.0235  0.5955
29827W        W45961   3.050   7.390  12.061 -0.2452 -0.1371 -0.2157
29828W        W45962   9.949   6.131  13.730  0.0237 -0.0307 -0.1987
29829W        W45963   5.377  13.325   1.780  0.0969 -0.0774  0.0270
29830W        W45964   7.425   2.671  11.696 -0.3148 -0.0648 -0.0840
29831W        W45965  19.131  10.849   0.463 -0.2817 -0.3176 -0.0960
29832W        W45966  14.240  14.140   3.365 -0.0248 -0.1521 -0.1452
29833W        W45967   4.069  16.368  12.736  0.1535  0.1509 -0.2250
29834W        W45968  17.903   6.100   0.968  0.1115 -0.0846  0.0409
29835W        W45969  14.104  18.270   5.566  0.0636  0.2454  0.0867
29836W        W45970   0.338   5.543   1.356  0.1707  0.2022 -0.1100
29837W        W45971   3.569   7.902   3.850  0.0737 -0.0279 -0.0557
29838W        W45972   7.978  11.140   3.387  0.0775 -0.2222 -0.0002
29839W        W45973  15.950  16.556   1.348  0.1668  0.0233  0.2268
29840W        W45974  18.648   8.295   2.001 -0.2149 -0.0921  0.0216
29841W        W45975   6.901  11.888  13.502 -0.0737 -0.2961 -0.0224
29842W        W45976  10.565   9.881  13.410  0.0646 -0.2664 -0.3000
29843W        W45977   5.019   1.623  13.739 -0.3244  0.1814 -0.0079
29844W        W45978  12.335  11.918  14.818 -0.1138  0.0218 -0.0343
29845W        W45979  12.974   6.196  10.391  0.3021 -0.0175  0.1511
29846W        W45980   1.123   2.048   1.017 -0.1592 -0.3905 -0.1726
29847W        W45981  12.226  16.138   1.196 -0.0112 -0.0817 -0.0324
29848W        W45982   3.176   7.832   1.426  0.1164  0.0340  0.0157
29849W        W45983  13.922  13.343   0.277  0.0963 -0.0395 -0.1406
29850W        W45984  15.556   7.168   3.976 -0.5097  0.0444  0.0014
29851W        W45985   2.081   8.877  11.511 -0.0766 -0.3905 -0.0033
29852W        W45986  14.276   6.922  11.350 -0.1071 -0.2734 -0.1080
29853W        W45987  13.064   0.017  12.390 -0.1484 -0.0190 -0.1082
29854W        W45988  12.815   2.406  13.597  0.0377  0.0402 -0.0710
29855W        W45989  18.289   7.608   1.466 -0.0306  0.0803 -0.1188
29856W        W45990  13.115   7.063  11.081  0.2591  0.0712  0.1041
29857W        W45991   8.814   1.781  12.355  0.1039  0.3962 -0.2814
29858W        W45992  10.958   0.796  10.914  0.0067  0.3336  0.1358
29859W        W45993  16.548   1.264   2.669  0.1463  0.0805 -0.4467
29860W        W45994  13.225  10.280  14.627 -0.0491  0.1906  0.1997
29861W        W45995   2.953   7.810  10.453  0.3449 -0.2689 -0.1959
29862W        W45996   9.627   3.081   4.329 -0.2981  0.0771  0.0409
29863W        W45997   7.739  17.819  14.199 -0.0593  0.0514  0.0531
29864W        W45998  14.161   8.948   1.502  0.1447 -0.2295 -0.0111
29865W        W45999   3.647   8.545   0.223  0.2340  0.4293 -0.1536
29866W        W46000   2.419  10.362  14.906  0.3737  0.2356  0.0774
29867W        W46001   0.807   1.844  11.139 -0.1009  0.2324  0.1764
29868W        W46002  11.847  11.046   2.126  0.1397 -0.2751 -0.0887
29869W        W46003  15.121  15.650   1.151 -0.0537  0.2705  0.1774
29870W        W46004  17.698   2.318   0.928 -0.2803  0.0923 -0.0644
29871W        W46005  10.909   7.520   0.004 -0.2933  0.0592  0.0667
29872W        W46006   0.209   1.547   3.801  0.4848 -0.1625 -0.0373
29873W        W46007   2.170  16.499   0.438 -0.1727 -0.1720 -0.2017
29874W        W46008  18.923   8.336   0.962  0.2768 -0.2399 -0.0201
29875W        W46009   3.155   3.902   3.397 -0.2084  0.1608 -0.2346
29876W        W46010  14.289   5.250  10.130  0.1266 -0.2091 -0.1824
29877W        W46011   6.041  11.417   2.460 -0.0688 -0.1934 -0.3528
29878W        W46012   6.280  12.146  14.763  0.2706 -0.0454 -0.1031
29879W        W46013  11.973  11.655   2.074  0.1518 -0.0135  0.0822
29880W        W46014  18.087   9.629  10.254 -0.2509 -0.2174  0.0088
29881W        W46015  10.362  12.527   1.182  0.1150  0.0657 -0.1224
29882W        W46016  11.350  12.367  10.771  0.2411 -0.1772  0.1280
29883W        W46017   0.082  15.654  13.340 -0.0057 -0.1811 -0.0331
29884W        W46018  18.003  16.406   3.421  0.1943  0.1251  0.0177
29885W        W46019   1.363  10.712  11.327 -0.0291 -0.1088 -0.2318
29886W        W46020   7.802   0.065  10.254  0.1797  0.0474 -0.4105
29887W        W46021   8.838  18.121   2.233  0.0714  0.3801  0.2392
29888W        W46022   0.280   7.167  14.123  0.0806 -0.1963 -0.0248
29889W        W46023  13.829  19.075  12.606 -0.3655  0.0746  0.0586
29890W        W46024  12.674  15.114   4.758 -0.1020 -0.1567  0.3034
29891W        W46025   2.099  15.990  12.494 -0.0160  0.1444 -0.0535
29892W        W46026   1.756   5.843  10.836  0.0449 -0.0617  0.6137
29893W        W46027   1.054  14.929   1.083  0.0864  0.1307 -0.0155
29894W        W46028   1.194   2.722  13.563  0.0968 -0.0681  0.2948
29895W        W46029   4.954   1.452   2.460  0.1956 -0.2162  0.1180
29896W        W46030   4.985   8.151  12.694 -0.0240 -0.1695  0.1502
29897W        W46031  11.003  16.492   2.912 -0.0412  0.0727  0.0112
29898W        W46032  11.864   3.922   1.676  0.0356 -0.3498  0.0093
29899W        W46033   6.035  12.566   4.824  0.0933  0.0663  0.1036
29900W        W46034  14.253   8.907   5.043  0.0371 -0.0862  0.2072
29901W        W46035   6.486   3.501  14.939  0.0504 -0.0251 -0.2836
29902W        W46036   8.348  10.385   4.677  0.2911 -0.2387 -0.3149
29903W        W46037   2.327  15.426  12.364 -0.0336 -0.0548 -0.2226
29904W        W46038   3.170   8.689   0.306 -0.1797 -0.0821  0.0741
29905W        W46039   9.512  14.649   2.924  0.3218  0.0084  0.0221
29906W        W46040  12.381   3.456  14.117  0.0761 -0.2700  0.0561
29907W        W46041  16.586   9.604  13.780  0.1879 -0.1008 -0.3024
29908W        W46042  16.686   4.638  13.737  0.0282  0.5089 -0.1632
29909W        W46043   2.839  15.360   1.383  0.1956 -0.3344 -0.0465
29910W        W46044   5.630   3.774   4.057 -0.3607  0.3465  0.1513
29911W        W46045   9.880   6.080   4.149  0.4459  0.0084 -0.2350
29912W        W46046   0.640  10.012   3.416 -0.2558 -0.0391 -0.1585
29913W        W46047  13.949  16.746   0.376 -0.0810 -0.1426  0.2472
29914W        W46048   4.701  14.283  13.263 -0.1275  0.2089 -0.1669
29915W        W46049   5.087   0.012   2.780 -0.0772  0.3581  0.0074
29916W        W46050  12.484  16.467  12.157  0.2951  0.2044 -0.4277
29917W        W46051  14.096  19.130  10.577 -0.0697  0.0178  0.0327
29918W        W46052  12.210   6.677   2.095  0.2732  0.0379 -0.1735
29919W        W46053  10.282  12.371  14.581  0.0097 -0.0740  0.2746
29920W        W46054   1.589  14.538  13.230 -0.1673  0.2530 -0.0479
29921W        W46055  12.074   4.254  14.317 -0.1254  0.1358 -0.3120
29922W        W46056   7.056   6.445   1.359  0.2799  0.0135 -0.0787
29923W        W46057   7.681  12.970  11.868  0.3239 -0.0936  0.3592
29924W        W46058  10.357   2.083  12.731 -0.0139  0.1677  0.0560
29925W        W46059  10.027   2.866   0.210 -0.1419  0.0526  0.0178
29926W        W46060   3.140  10.983  14.638 -0.0830 -0.2071  0.1769
29927W        W46061   7.090   3.758   1.794  0.0323 -0.1705 -0.1022
29928W        W46062  11.136   4.712  13.121 -0.0216  0.0462 -0.0847
29929W        W46063   0.669   9.865   5.092 -0.2333  0.1390 -0.1212
29930W        W46064  14.932   7.118   9.961  0.0457 -0.0469  0.2485
29931W        W46065  13.801  17.973   1.814  0.0013  0.3211 -0.0364
29932W        W46066  17.250  17.340  10.940  0.0908 -0.3576  0.0216
29933W        W46067  11.621  14.828  14.572  0.0650 -0.2322 -0.0799
29934W        W46068   4.309  17.252   3.525  0.2392  0.2107 -0.3025
29935W        W46069   5.899  16.735   1.387 -0.0228  0.0957 -0.2072
29936W        W46070  12.782   6.375   3.511  0.1614 -0.4682  0.2038
29937W        W46071   6.585  16.151  14.776  0.0937  0.0627 -0.0513
29938W        W46072  11.344   7.712  11.029 -0.0409 -0.0828  0.1437
29939W        W46073  11.306  19.082   1.033  0.1952 -0.1488  0.1447
29940W        W46074  11.644   9.254   1.196  0.0385 -0.0146  0.1202
29941W        W46075  16.932   6.266   3.299  0.2474 -0.0482 -0.0815
29942W        W46076  11.513  14.572  14.116  0.1216  0.2151  0.3266
29943W        W46077   3.318  14.711  13.654 -0.0952  0.1035  0.0620
29944W        W46078  11.354  10.695  11.907 -0.1484  0.1227 -0.1859
29945W        W46079   8.836  12.588   1.489  0.0754  0.3366 -0.1350
29946W        W46080  17.023  16.754  13.611 -0.2610 -0.2442 -0.3087
29947W        W46081  16.190   4.586  13.681  0.0181 -0.2379 -0.1907
29948W        W46082  16.788   9.076  11.098 -0.0989  0.1920  0.1500
29949W        W46083  14.343   3.966  14.901 -0.0832 -0.1776 -0.3221
29950W        W46084  18.482  13.646   0.832 -0.0040 -0.0760  0.0250
29951W        W46085   2.695  10.026  14.167 -0.2408 -0.0026 -0.1576
29952W        W46086   4.570   5.143  10.427  0.0832 -0.0424  0.0298
29953W        W46087  11.140  16.978  10.611 -0.2400  0.0984  0.4049
29954W        W46088  18.701   3.082   3.645  0.0582  0.2392  0.0857
29955W        W46089   0.839  19.125   2.846 -0.0508 -0.3881 -0.0194
29956W        W46090  14.734   2.310  14.587  0.1739 -0.0453  0.2291
29957W        W46091  14.550   2.292   0.229  0.2023 -0.0148 -0.0275
29958W        W46092   8.005  17.918   2.641  0.0567  0.1635 -0.1914
29959W        W46093   9.030  14.589  14.949 -0.4555  0.0500  0.1972
29960W        W46094   9.837  19.213   0.469 -0.1598  0.0742 -0.0627
29961W        W46095   6.745   4.140  10.585 -0.0859  0.1537 -0.0850
29962W        W46096   7.124   5.316   9.837 -0.1847  0.0885 -0.1296
29963W        W46097   4.889  12.564  10.883  0.1230  0.1015 -0.1142
29964W        W46098  16.940   2.029   3.405  0.2155 -0.1916 -0.0164
29965W        W46099   9.771  18.856   2.359  0.2314 -0.2599  0.0326
29966W        W46100  13.739   7.001   5.106  0.1225 -0.0748 -0.1287
29967W        W46101   3.436   6.564  14.316  0.0646 -0.0763 -0.1653
29968W        W46102  14.212   9.150  10.896  0.0648  0.0444  0.2697
29969W        W46103   4.977  17.822   3.409  0.0969  0.0932  0.2222
29970W        W46104   3.048   0.646   0.456 -0.2217 -0.5375  0.1406
29971W        W46105   0.917   7.193   3.571 -0.1383 -0.0010  0.1614
29972W        W46106  16.642  17.441  12.884 -0.1439  0.0114 -0.0011
29973W        W46107   4.086   0.867   2.054 -0.0106  0.1161 -0.1010
29974W        W46108  11.980  11.956   0.081  0.2772  0.1231 -0.2087
29975W        W46109   2.564  18.176   3.850  0.0680  0.1542  0.2382
29976W        W46110  12.474  18.767  12.357  0.0447 -0.0369  0.2256
29977W        W46111   7.061   4.763   2.626  0.1103  0.0104  0.1723
29978W        W46112  11.962  13.936   1.524 -0.3602 -0.2335 -0.1807
29979W        W46113  15.630  15.986   1.701 -0.0308  0.1087 -0.3379
29980W        W46114  15.263  18.245  11.874  0.0018 -0.0752  0.1533
29981W        W46115  16.646   4.928   1.816  0.0157  0.2471 -0.3015
29982W        W46116   8.844  18.045   2.853  0.0416 -0.1694 -0.3330
29983W        W46117  18.094  16.485  12.725 -0.0398  0.0555 -0.1147
29984W        W46118   8.151   4.293  10.308  0.0247 -0.0506 -0.1802
29985W        W46119  15.312   7.994   2.563  0.2032  0.2295 -0.3083
29986W        W46120  17.902   3.661   2.698  0.0052  0.0373  0.1546
29987W        W46121  14.846  16.535   2.461 -0.0049 -0.0093 -0.0565
29988W        W46122   2.416  16.107  14.607  0.2144 -0.0355  0.0287
29989W        W46123  19.197   5.263  13.872 -0.0453 -0.0491 -0.0421
29990W        W46124  12.588  14.969  11.915 -0.3021  0.2984 -0.0734
29991W        W46125   7.448   9.195  14.108  0.1592  0.3154 -0.2608
29992W        W46126   3.461   9.075   2.046  0.0142 -0.0781 -0.0416
29993W        W46127   6.171  18.998   5.306 -0.0312  0.0418  0.0178
29994W        W46128  18.242   8.017   2.311  0.0032  0.2659 -0.2936
29995W        W46129  10.356  10.081  11.368 -0.0553 -0.1826  0.0933
29996W        W46130   7.472  11.031   1.982 -0.1131 -0.1182 -0.1420
29997W        W46131  14.952   6.042   1.079 -0.1171  0.0870  0.0912
29998W        W46132  10.876   0.916   2.634 -0.0397 -0.0446  0.1843
29999W        W46133   6.359   9.594   2.799  0.0509 -0.0218  0.1870
30000W        W46134  12.197  17.083  11.607  0.1487 -0.3136  0.1028
30001W        W46135  16.818   9.699  12.186 -0.1316 -0.0792 -0.3115
30002W        W46136  12.963  16.058   3.456 -0.0723  0.1504  0.1769
30003W        W46137  13.888  16.484   1.555  0.1860 -0.1848  0.1196
30004W        W46138   3.701   0.680   1.394 -0.1486  0.0746 -0.5151
30005W        W46139  12.694  11.043   5.071  0.0353 -0.0479 -0.1528
30006W        W46140  14.025   1.381   5.140  0.0334  0.2940 -0.3449
30007W        W46141   2.471   4.878  13.711  0.0549 -0.3278  0.2667
30008W        W46142   3.675  14.416  10.528  0.0812 -0.1227 -0.2778
30009W        W46143   3.674   1.265   4.029  0.1284 -0.2019  0.1270
30010W        W46144  15.841  10.732   1.952  0.1396 -0.1387  0.1399
30011W        W46145  12.521  14.085   0.436 -0.1855 -0.2418  0.1856
30012W        W46146   2.708   7.999   4.979 -0.1175 -0.1402  0.0672
30013W        W46147   9.014  13.870   3.560  0.0805  0.1452  0.3970
30014W        W46148  14.371   0.050  14.442 -0.1243 -0.0012  0.3039
30015W        W46149  11.708  13.576  11.574 -0.2167 -0.1021  0.1498
30016W        W46150  15.746  12.104   2.272  0.1226 -0.0778 -0.1446
30017W        W46151   9.358  19.075   3.704 -0.0904 -0.1478  0.1561
30018W        W46152   5.403   0.549  12.786 -0.0579  0.0784  0.0952
30019W        W46153   2.545   1.090  13.934 -0.1589  0.0155  0.1119
30020W        W46154   2.008  12.746   2.891 -0.2915  0.2283  0.1176
30021W        W46155  19.113   8.792  14.497 -0.0092  0.0673  0.0400
30022W        W46156   0.769   5.548  10.477 -0.3872 -0.0783 -0.1225
30023W        W46157  12.742  18.431   3.717 -0.1245 -0.0185  0.1766
30024W        W46158   1.318  14.532   1.697 -0.0787  0.0077 -0.1562
30025W        W46159   5.748  15.359   4.991 -0.1079 -0.1966  0.2780
30026W        W46160   7.695   6.787  14.311  0.1974  0.0376  0.0302
30027W        W46161  15.760   6.591  12.898 -0.1172 -0.1766  0.0356
30028W        W46162   0.711   7.639  11.799 -0.3129 -0.1825  0.0745
30029W        W46163  13.955   5.814   9.444  0.1453 -0.0216 -0.5188
30030W        W46164   6.280  13.344   1.337  0.1874  0.1546  0.3943
30031W        W46165   6.306  17.334   3.252 -0.1744 -0.0591 -0.2065
30032W        W46166   5.861   9.935  12.663  0.3610 -0.2734  0.0370
30033W        W46167  11.494   7.649  12.439 -0.1282  0.0259  0.1844
30034W        W46168   5.743   4.375   4.149  0.2927 -0.3257 -0.0331
30035W        W46169  13.416   2.012   3.971 -0.2834 -0.2521 -0.1171
30036W        W46170  18.457  18.115   0.214 -0.1361 -0.0032 -0.1546
30037W        W46171  17.200   6.138  11.019 -0.2562  0.0016  0.0704
30038W        W46172  13.822  13.492   4.913 -0.1392  0.2803  0.0309
30039W        W46173   9.725   0.343   9.817 -0.1753 -0.0927 -0.0056
30040W        W46174   5.867   0.012   2.188 -0.0323  0.3424 -0.0114
30041W        W46175  14.210   9.425   2.364 -0.4403  0.0665 -0.0165
30042W        W46176  14.804   0.168   1.420  0.1174 -0.3364 -0.0782
30043W        W46177  18.529   7.042   1.499  0.0595 -0.0910 -0.1396
30044W        W46178  11.669  13.624   3.045 -0.0706 -0.1471  0.0454
30045W        W46179   5.509   4.216  10.935  0.0150 -0.2210  0.1697
30046W        W46180  15.363   4.538   1.860  0.0273 -0.0419  0.0633
30047W        W46181  17.759  11.072   0.729 -0.0627  0.1202 -0.1444
30048W        W46182   2.630   7.387   9.495 -0.3714  0.0871 -0.1117
30049W        W46183  15.496  17.450  12.172  0.0269 -0.0995  0.1756
30050W        W46184   8.016  13.052  10.658 -0.1571  0.1689  0.1497
30051W        W46185  15.463   0.122   3.428  0.0858  0.0883 -0.1274
30052W        W46186   2.407  14.948   3.421 -0.0101  0.2804 -0.2776
30053W        W46187   2.730   8.191   2.558 -0.0397  0.0584  0.1756
30054W        W46188   7.268  16.021  15.018  0.0970  0.0568  0.2277
30055W        W46189   8.579  11.157  11.445  0.0908 -0.2223  0.1498
30056W        W46190   4.007   3.106  13.148 -0.1720 -0.0686 -0.0423
30057W        W46191   0.821   2.806   3.952  0.2833  0.2316  0.3299
30058W        W46192  11.379   8.270   2.540 -0.1972 -0.0749 -0.0238
30059W        W46193   8.557   3.854  14.906  0.1611 -0.2587 -0.2924
30060W        W46194  12.452   0.770  13.124 -0.0209  0.1812  0.0774
30061W        W46195   7.162   7.528   4.007  0.0399 -0.0436 -0.0085
30062W        W46196   5.016   9.861   0.169 -0.2291 -0.3612 -0.3169
30063W        W46197   6.500  18.031   1.784  0.3064 -0.0453 -0.0437
30064W        W46198  13.098  16.165   2.467 -0.3088  0.0012  0.0575
30065W        W46199   8.743  13.315   5.340 -0.1012 -0.0392 -0.2050
30066W        W46200  16.103  14.741  14.681  0.0589 -0.3284 -0.2485
30067W        W46201   2.461  15.634   2.682 -0.0296 -0.0283 -0.0797
30068W        W46202  13.033   5.298   4.881  0.0369 -0.1028 -0.0905
30069W        W46203  17.207  16.081   4.892 -0.2278  0.0052 -0.1198
30070W        W46204   9.944   5.554  14.996  0.2748 -0.0115  0.0175
30071W        W46205  17.178   1.439   3.997 -0.0495 -0.1972  0.0272
30072W        W46206   5.453  18.575  12.873 -0.2175 -0.0360 -0.1176
30073W        W46207   3.067  16.268  14.324  0.0786  0.3501 -0.2320
30074W        W46208  12.493  15.440  11.177 -0.1686 -0.0150 -0.0409
30075W        W46209   8.771  17.012  10.375  0.1048  0.1647  0.0565
30076W        W46210   7.070  14.979  13.775  0.3356 -0.0196 -0.1285
30077W        W46211  13.225  13.900  13.297 -0.1161  0.2014 -0.2308
30078W        W46212   2.465  18.650   5.241 -0.1267 -0.4274  0.1507
30079W        W46213   2.158   0.560   0.633 -0.2023  0.0449 -0.0818
30080W        W46214   6.467  14.686   5.858 -0.1459 -0.2631  0.4178
30081W        W46215   2.223   6.104   0.871  0.2034 -0.0105 -0.1457
30082W        W46216  18.757  13.214   2.585  0.1645  0.0515 -0.2648
30083W        W46217  13.386   8.368  14.615 -0.1094  0.1810 -0.0678
30084W        W46218   3.478   7.250  14.682  0.0828 -0.0085 -0.0569
30085W        W46219  12.915  16.025   9.890  0.2539  0.2297  0.1964
30086W        W46220  14.452   1.729   4.936 -0.1473 -0.0493 -0.0671
30087W        W46221   0.544  18.085  12.298 -0.1392 -0.0500  0.0322
30088W        W46222  14.753  12.679   1.563 -0.0702 -0.3198 -0.1456
30089W        W46223  10.634   9.085  14.091 -0.1176  0.1790 -0.0402
30090W        W46224   9.403  17.369  11.579 -0.0686  0.0386 -0.0255
30091W        W46225   7.649   5.832   2.741  0.0911 -0.0973  0.0715
30092W        W46226  18.300   9.568  11.364 -0.0574 -0.2941  0.1203
30093W        W46227   4.362   2.996   0.313 -0.4247  0.0738 -0.1050
30094W        W46228   5.992   0.843   4.844 -0.0891  0.0207  0.0897
30095W        W46229   3.286  12.370  11.768 -0.1178  0.0366 -0.3068
30096W        W46230  15.707  17.672   1.993 -0.0631  0.0717  0.1513
30097W        W46231   9.805  16.890   1.159 -0.1450 -0.0202 -0.2444
30098W        W46232  12.571   1.642  11.686  0.1121  0.4086  0.1515
30099W        W46233   2.541   7.151   0.779 -0.2985  0.3180  0.3561
30100W        W46234  16.441  14.467  12.189 -0.3058 -0.3036 -0.0562
30101W        W46235  12.599  11.825   5.589  0.0425  0.0053 -0.0965
30102W        W46236   6.228   5.688  12.271  0.1958  0.2750 -0.1261
30103W        W46237   8.264  14.434  14.588  0.1153  0.0985  0.0216
30104W        W46238  16.155   1.486  11.948  0.1393  0.2946  0.2041
30105W        W46239  16.789   8.858   1.905 -0.2811  0.2787  0.0414
30106W        W46240  17.068   1.461   2.278  0.3647  0.1281 -0.1011
30107W        W46241  18.218  11.322   4.027  0.1696  0.0041 -0.1132
30108W        W46242  10.947  19.009  12.667 -0.2400  0.1371 -0.0486
30109W        W46243   2.299   0.233  11.294 -0.1691 -0.4218 -0.0818
30110W        W46244   6.637   1.936   4.631  0.4032  0.0819 -0.1349
30111W        W46245  10.216  17.335  12.863 -0.2557  0.2066 -0.0174
30112W        W46246   9.328  10.603  14.328 -0.1595  0.1502 -0.1325
30113W        W46247  12.286  10.057   2.697  0.1750 -0.1778 -0.0400
30114W        W46248  18.662   5.441   0.303 -0.1331 -0.1668 -0.2771
30115W        W46249  11.548  17.066   5.141  0.2707  0.2911  0.2073
30116W        W46250   2.942   4.019  12.522  0.1180  0.1168  0.2165
30117W        W46251  17.904  15.827  13.274  0.2264 -0.1233  0.0041
30118W        W46252  10.225   1.276  14.759 -0.2858  0.0157  0.0466
30119W        W46253   7.808   3.117  10.855 -0.2086 -0.0662 -0.0536
30120W        W46254   6.163   9.882   2.328 -0.2147  0.2613  0.0837
30121W        W46255  13.736   4.085  13.922  0.0962  0.3910  0.1743
30122W        W46256   1.690  10.848  12.590 -0.0119 -0.4251  0.0242
30123W        W46257   2.863  16.187  12.629  0.4484 -0.3817  0.1751
30124W        W46258   3.417   3.910   4.676  0.2411 -0.1711  0.0330
30125W        W46259   8.295   0.014  14.947 -0.0625 -0.3454  0.0383
30126W        W46260   4.630  14.439   1.710  0.2113 -0.2301  0.0609
30127W        W46261   9.969   6.180   1.512  0.1379 -0.5865 -0.1706
30128W        W46262  16.134  10.431   3.964 -0.0548 -0.1066 -0.2835
30129W        W46263  10.251  17.888  13.676  0.0157  0.0419 -0.4454
30130W        W46264  10.603  10.534   3.071 -0.0731  0.1025  0.0329
30131W        W46265  17.269  15.000  14.616 -0.0209 -0.3209  0.5616
30132W        W46266  13.724  16.329  11.551  0.0934 -0.5912 -0.1408
30133W        W46267  15.004  13.272   4.448  0.2471 -0.1702 -0.2667
30134W        W46268   8.385   7.843  14.959 -0.1268 -0.0369  0.2027
30135W        W46269   1.436  18.048   1.526 -0.1497 -0.4521 -0.0533
30136W        W46270   3.526  16.209  14.113  0.2332 -0.1588  0.1211
30137W        W46271  18.961  12.979   3.277 -0.2937 -0.0861 -0.0434
30138W        W46272   3.463   1.439   5.409 -0.2729 -0.0851  0.0144
30139W        W46273  15.671   0.552   0.997 -0.3129 -0.1412 -0.0810
30140W        W46274  13.868   0.306   0.541  0.0176  0.1629  0.0021
30141W        W46275   0.899   4.179   2.525 -0.0637  0.0049 -0.2546
30142W        W46276  14.544   7.758  14.815 -0.3332 -0.2786 -0.4207
30143W        W46277   7.539  18.736   2.851 -0.1624 -0.3276 -0.0630
30144W        W46278   2.700   8.913   1.938  0.0615  0.1012  0.0811
30145W        W46279  12.290   7.786  10.297 -0.0147  0.0745 -0.0758
30146W        W46280   1.863   5.694   1.963  0.0495 -0.2320 -0.1141
30147W        W46281  14.429  14.383  11.463  0.0703 -0.1541  0.2458
30148W        W46282   0.193  17.113  14.274  0.0170  0.0552 -0.1231
30149W        W46283   0.756   3.444   2.056  0.0616 -0.0083  0.3813
30150W        W46284  16.093  15.390  12.523 -0.1688 -0.2023 -0.1279
30151W        W46285  15.605  13.043   5.089  0.2721  0.2687  0.1404
30152W        W46286   5.905  14.152  11.038  0.1755 -0.2628 -0.2239
30153W        W46287  11.048   7.395  12.740  0.1116  0.0218 -0.2427
30154W        W46288  12.197   8.843   2.121  0.0472 -0.1634 -0.2075
30155W        W46289   8.062   9.581   3.003 -0.2011 -0.0120 -0.1677
30156W        W46290   5.555   9.504   3.779  0.0708 -0.0467 -0.1825
30157W        W46291  14.150  16.594  14.132  0.2571 -0.0231  0.4868
30158W        W46292   7.900  17.753  11.592  0.0297  0.2666  0.1713
30159W        W46293   3.018  14.651  10.179 -0.1026  0.0868  0.2254
30160W        W46294   6.855  12.527   0.379  0.3841  0.2672 -0.0696
30161W        W46295  15.921   4.245  10.182  0.1427 -0.0281  0.3540
30162W        W46296  14.319   6.356  10.426  0.3419 -0.3668 -0.0672
30163W        W46297  18.714  15.904  12.337 -0.0257 -0.4550  0.0909
30164W        W46298   8.045   9.233  11.168  0.3445  0.2855  0.2036
30165W        W46299  15.464  13.225  13.881  0.1855  0.0245  0.3753
30166W        W46300  16.993  13.788  12.456  0.0508  0.0464 -0.1579
30167W        W46301   9.628   6.202  14.137 -0.0223 -0.0169 -0.2267
30168W        W46302   0.935   8.551  10.032 -0.1607  0.0845  0.1494
30169W        W46303   9.125   4.780   0.218  0.0216 -0.0986 -0.1691
30170W        W46304  17.966   6.021  10.487 -0.3355  0.2031  0.3024
30171W        W46305   8.125   9.690   0.001 -0.1181 -0.3222 -0.0938
30172W        W46306   9.577  11.633   2.737 -0.0505  0.2030  0.0318
30173W        W46307   3.555   7.147   5.828 -0.0881  0.0768  0.0852
30174W        W46308  11.265   4.242  12.882 -0.0687  0.4413 -0.1502
30175W        W46309   3.717   1.034  12.754 -0.0406 -0.0143 -0.1478
30176W        W46310  14.919  12.704   3.917  0.4013 -0.1187 -0.1576
30177W        W46311  15.552   3.934  10.022 -0.3978 -0.3324 -0.2032
30178W        W46312  12.282  11.360  13.898 -0.0413 -0.2472 -0.2759
30179W        W46313  16.393  16.902  10.626  0.1007  0.5139  0.1403
30180W        W46314  12.076  15.757   3.661  0.0943  0.0433 -0.0227
30181W        W46315  15.275  13.806  14.970  0.3570 -0.1038 -0.2620
30182W        W46316   4.258  14.140   1.920  0.0146  0.3047 -0.1840
30183W        W46317   9.119  15.126   5.009 -0.0597  0.0632 -0.1027
30184W        W46318   9.155  14.627  11.011 -0.1276 -0.0150  0.0511
30185W        W46319  11.454  18.670   2.873  0.2178  0.0659 -0.0483
30186W        W46320  17.774   4.368   2.353  0.2545 -0.2889 -0.0078
30187W        W46321  10.495  15.590   5.098 -0.3597  0.3144 -0.4615
30188W        W46322   8.552  14.089   0.317  0.1953  0.1814  0.1630
30189W        W46323   7.138   5.365   1.380  0.1927  0.1943 -0.3093
30190W        W46324  11.627  15.187  14.936 -0.3240  0.2607 -0.0527
30191W        W46325   7.808   6.910  10.813  0.5695  0.3318 -0.1240
30192W        W46326  17.233   1.218  13.953 -0.0826 -0.6653 -0.1270
30193W        W46327   9.582  15.762  12.690 -0.0947  0.1831  0.0380
30194W        W46328   6.474   7.687   0.641  0.2641  0.5026 -0.0168
30195W        W46329  18.452  18.522  12.118  0.0050  0.2995 -0.1696
30196W        W46330   2.893   0.437   2.776  0.0644 -0.1100 -0.0207
30197W        W46331  12.490   6.149   2.899  0.0019 -0.2385 -0.1353
30198W        W46332  13.427   0.704   3.436  0.0691 -0.0797  0.0104
30199W        W46333  19.217  10.158   1.142  0.1625  0.0891 -0.0946
30200W        W46334   0.313   8.035   3.027  0.0661  0.0247  0.2484
30201W        W46335  17.790  15.954  14.578  0.2349 -0.0161 -0.0214
30202W        W46336   7.005   9.695   0.641 -0.2262  0.1049  0.0811
30203W        W46337   8.524   3.780  12.937 -0.2394 -0.0377 -0.0434
30204W        W46338  10.679   0.675  12.423 -0.1745  0.1536  0.2911
30205W        W46339   7.499   4.038  10.739 -0.1210  0.1584 -0.0597
30206W        W46340   7.333  14.115   5.052 -0.4915  0.1113  0.0983
30207W        W46341  12.087  12.343   1.734 -0.0509  0.0048  0.1517
30208W        W46342   3.196   2.357  11.769 -0.1227 -0.1570  0.3282
30209W        W46343   5.547  19.219  11.926  0.6029 -0.1437 -0.2858
30210W        W46344   1.556  15.836   1.009 -0.0278 -0.1225  0.2580
30211W        W46345   5.831   4.898  10.466 -0.0627 -0.5086  0.1173
30212W        W46346  10.040  18.400  13.886 -0.1329 -0.2013  0.0359
30213W        W46347   5.842   3.166   3.353  0.0492  0.1179  0.0394
30214W        W46348  18.984   8.273  15.036  0.0247  0.1825 -0.4686
30215W        W46349  16.353  16.447  10.879 -0.0057 -0.2599 -0.0316
30216W        W46350   5.614  15.380   1.524  0.0594  0.1839 -0.0543
30217W        W46351  17.785   3.595   3.245 -0.2476  0.3778 -0.1378
30218W        W46352  13.160  13.361   3.303 -0.0493  0.0360 -0.3485
30219W        W46353  14.274   7.055   9.113  0.2709 -0.2255 -0.0316
30220W        W46354   7.977   0.907   3.239  0.0105  0.0263  0.2194
30221W        W46355   3.753  14.547   1.357  0.2576 -0.0636  0.0151
30222W        W46356   5.754  12.045  13.212  0.1248 -0.2675  0.2680
30223W        W46357   1.057  18.795   3.569 -0.1519 -0.1191 -0.0595
30224W        W46358  11.090  18.910   3.351  0.2694 -0.0633 -0.1350
30225W        W46359  14.886   3.197   2.554 -0.0867 -0.3297 -0.3424
30226W        W46360  13.167   0.358  13.652 -0.2362 -0.1471  0.1062
30227W        W46361  11.428   2.465  13.394 -0.1455 -0.1240 -0.0393
30228W        W46362   3.253   6.513  13.484 -0.0690 -0.0129  0.2253
30229W        W46363  15.945  13.005  10.530  0.0188 -0.2236  0.3397
30230W        W46364   0.560  17.862  12.775 -0.0690 -0.0921  0.1083
30231W        W46365   5.030  10.737   2.979 -0.1437 -0.1768  0.2792
30232W        W46366   4.154  14.980  12.868 -0.2784 -0.1738 -0.0972
30233W        W46367  11.083   8.004   1.863  0.2803 -0.0179  0.1375
30234W        W46368  13.817   2.660  14.328  0.4231  0.2881  0.1611
30235W        W46369  13.284   5.996   9.958 -0.0164  0.1233 -0.0227
30236W        W46370  12.705  15.505   5.618  0.0112 -0.0301  0.0895
30237W        W46371  19.162  18.214  14.181  0.0419 -0.3019  0.2722
30238W        W46372  18.188   0.023  12.617 -0.3229 -0.0205 -0.0089
30239W        W46373   0.958  12.372   0.295 -0.2747 -0.0281 -0.4479
30240W        W46374  10.173  10.960   0.536  0.3351 -0.1153  0.1067
30241W        W46375   7.218  13.529  14.296  0.0885  0.2994  0.2598
30242W        W46376  16.249   2.849  11.891  0.0308  0.1893 -0.2464
30243W        W46377  11.901   4.545  13.779 -0.1296 -0.2823 -0.0237
30244W        W46378   5.507  14.006  13.515 -0.1079 -0.1136  0.1357
30245W        W46379  15.526   4.509   5.192 -0.1817  0.1006  0.2498
30246W        W46380   9.277  13.406   3.726 -0.0765 -0.3540 -0.0001
30247W        W46381  10.224  10.751  13.113 -0.2793 -0.0141 -0.4796
30248W        W46382   6.725   6.836   4.926 -0.2253  0.3665 -0.1160
30249W        W46383  16.535  12.850   3.086  0.0414  0.0959  0.2508
30250W        W46384  16.885   0.235   1.348  0.1265 -0.0260  0.5512
30251W        W46385   2.506  13.539   3.507 -0.4594  0.2751 -0.2666
30252W        W46386   1.207  14.890   3.303  0.2746 -0.1568 -0.1436
30253W        W46387  13.168   2.548  10.673  0.1406 -0.1343 -0.2725
30254W        W46388   5.228   7.731   2.716  0.1293 -0.0704  0.1070
30255W        W46389  10.171  14.548  12.989  0.2846 -0.0504 -0.2050
30256W        W46390   8.596   6.704   2.443 -0.5020 -0.1765 -0.3078
30257W        W46391   0.894  14.659  12.378  0.2194  0.0630 -0.3260
30258W        W46392   1.907   2.993   0.490 -0.0260  0.0404 -0.4215
30259W        W46393   0.344  15.457   3.928  0.0188 -0.1666  0.0521
30260W        W46394   4.922  18.521  13.173  0.0414  0.1656 -0.2280
30261W        W46395  16.816  12.719  14.012 -0.1627 -0.2207  0.0424
30262W        W46396   7.399   0.202  10.532 -0.2245  0.2137  0.1829
30263W        W46397  19.088   5.733   1.107  0.4057  0.0182 -0.2975
30264W        W46398   9.275   4.454  11.332 -0.0304  0.1018 -0.2166
30265W        W46399   0.810   2.373   0.783  0.2346 -0.0117 -0.1509
30266W        W46400   4.836   6.811   1.378 -0.2634  0.2390 -0.2035
30267W        W46401  10.719   3.517   2.827 -0.1045  0.4164 -0.1475
30268W        W46402   3.614  14.834  11.805 -0.0525 -0.2385  0.3213
30269W        W46403   8.948   7.050   2.460 -0.0685  0.0163 -0.1892
30270W        W46404   7.279   7.351   1.558 -0.0958  0.0777 -0.0969
30271W        W46405  18.733  16.847  11.257  0.2036 -0.0431  0.0589
30272W        W46406  14.119   1.202   1.017 -0.0889  0.0460 -0.0007
30273W        W46407   5.680  16.565   0.755  0.1925 -0.0792 -0.0304
30274W        W46408   7.373  12.523   0.586  0.0279 -0.2431  0.0495
30275W        W46409   3.621  16.903   4.115  0.0869 -0.0328  0.2609
30276W        W46410  15.830   2.548  13.881  0.3726  0.0800  0.1406
30277W        W46411   5.126  17.162  15.028 -0.1403 -0.1741 -0.3462
30278W        W46412  16.511  17.627   1.538 -0.1663 -0.0681  0.3126
30279W        W46413  12.787   4.075  11.828 -0.2012  0.3163  0.3142
30280W        W46414   4.902  12.170   4.387 -0.1507  0.0508  0.4188
30281W        W46415   0.424  18.535   4.246 -0.1092 -0.0305 -0.1677
30282W        W46416   7.230  15.638   1.305 -0.0543  0.2004  0.1325
30283W        W46417  13.784   2.145  14.142 -0.0504  0.1018  0.1315
30284W        W46418  13.229   5.777   3.323 -0.0083  0.0276 -0.4468
30285W        W46419   0.138   3.028  14.473  0.1596 -0.0583 -0.2781
30286W        W46420   4.003   0.759   4.902  0.1736  0.0196  0.0673
30287W        W46421  12.284   4.592  11.199 -0.5288 -0.0386 -0.1943
30288W        W46422  11.422   7.749   2.812  0.2236  0.3110  0.0272
30289W        W46423   7.178   4.176   0.894 -0.2086 -0.1019  0.0177
30290W        W46424   1.038  18.232   2.462 -0.2255  0.2961 -0.1920
30291W        W46425  16.842   3.292  13.525 -0.1682 -0.2432 -0.1160
30292W        W46426  10.068   6.866  10.616  0.1175 -0.1321 -0.0133
30293W        W46427   8.385  10.271  13.901 -0.3570  0.0757  0.0583
30294W        W46428  15.621  14.087   0.267 -0.3056 -0.2892  0.2813
30295W        W46429  15.937   2.296   1.735  0.3094  0.2958 -0.0910
30296W        W46430   3.724  12.552   5.366  0.0893  0.1131 -0.0177
30297W        W46431   2.163   4.429   0.668 -0.0935  0.0362  0.0655
30298W        W46432   5.301  19.137  12.827  0.0606  0.1343  0.1052
30299W        W46433  17.873   9.568   3.389 -0.3291  0.1237 -0.2457
30300W        W46434   8.972   9.542   0.000  0.1670  0.0139  0.0731
30301W        W46435   6.134   5.004  13.750  0.0088 -0.4016  0.0398
30302W        W46436   0.817  12.514  12.876  0.0500 -0.1952  0.0140
30303W        W46437  11.008  10.507   2.268  0.5551 -0.0288  0.2647
30304W        W46438  18.506   9.198   0.222 -0.1725  0.3011  0.1242
30305W        W46439   0.481   3.186   1.732 -0.0055 -0.2024 -0.1450
30306W        W46440   0.524   4.362  10.831  0.4245 -0.1909  0.0660
30307W        W46441  16.295  12.710   0.138  0.0084 -0.2138 -0.1974
30308W        W46442  11.098   8.846   4.295  0.0511 -0.0873 -0.0947
30309W        W46443  11.005   3.755   3.173  0.2782 -0.2090 -0.0361
30310W        W46444   5.601   7.081  14.828  0.1675  0.1990  0.0612
30311W        W46445  13.258   4.849  14.823 -0.1255  0.1245  0.1795
30312W        W46446  16.400  17.738  11.981  0.0262  0.2166 -0.1094
30313W        W46447  14.064   3.256   0.882 -0.1834  0.0605  0.1346
30314W        W46448  16.930  12.808   2.600 -0.0426  0.2050 -0.0821
30315W        W46449   7.325  16.162  13.633  0.3799  0.0524  0.2537
30316W        W46450   0.846   7.864  14.079 -0.2227  0.0341  0.4259
30317W        W46451   4.693   1.944   2.644  0.1116 -0.0133 -0.0722
30318W        W46452   2.561   8.030  12.554  0.0558 -0.2261 -0.1125
30319W        W46453   7.285  12.977   0.448  0.1126  0.4412  0.0583
30320W        W46454  11.585   6.611  13.129  0.3904 -0.0135  0.1196
30321W        W46455   4.100   3.520  11.008 -0.0064  0.2662 -0.1949
30322W        W46456  17.448  18.550  14.216 -0.1445  0.0963  0.0232
30323W        W46457   8.002  11.383   3.851 -0.1621 -0.2278  0.0225
30324W        W46458   2.463   8.327   2.158 -0.3096  0.2902 -0.0847
30325W        W46459   1.683   5.602   0.522  0.1631 -0.2934  0.0507
30326W        W46460  12.379   4.378   0.813 -0.0578  0.4780 -0.0177
30327W        W46461  13.864   0.186   1.072  0.2137  0.2734 -0.1046
30328W        W46462  14.464   3.721  12.544  0.2740  0.3047  0.1629
30329W        W46463   9.461  10.409  12.062  0.1048 -0.0297 -0.0473
30330W        W46464   2.052   8.037   3.350 -0.0011  0.2302 -0.2543
30331W        W46465  11.949   8.841   1.011  0.0705 -0.0227 -0.0920
30332W        W46466  17.259  12.301   3.658  0.0851 -0.0339  0.0199
30333W        W46467  18.617   5.924   0.195  0.0294  0.0458  0.1558
30334W        W46468  12.796  13.371   2.626  0.0850  0.1119  0.1673
30335W        W46469  13.934  10.932   2.232  0.0086 -0.0450  0.1703
30336W        W46470   6.642   2.533   3.535  0.0329 -0.1025  0.1700
30337W        W46471  12.160   8.705  10.639  0.0613 -0.0792  0.1325
30338W        W46472   5.774   1.382   0.642 -0.4000 -0.2723 -0.0116
30339W        W46473  11.077   3.941  10.585 -0.1508  0.0385 -0.1466
30340W        W46474   3.480  15.283  11.480  0.2028 -0.4848 -0.1455
30341W        W46475  14.756   2.626  14.929 -0.2214  0.1898  0.2744
30342W        W46476   7.929   1.899   0.350 -0.1102 -0.0796  0.2484
30343W        W46477  11.874   5.072  12.858 -0.1113 -0.2558  0.0516
30344W        W46478   3.284   1.268  11.544  0.3500  0.0871  0.0694
30345W        W46479  15.869   0.371   0.479  0.1612  0.0264 -0.0062
30346W        W46480   5.868  12.007   1.913 -0.1795  0.0600 -0.0946
30347W        W46481   1.144   4.648  12.585  0.1038  0.1778 -0.3001
30348W        W46482   0.480  14.236  11.506 -0.0413  0.0183  0.2969
30349W        W46483  10.796   5.569  12.652 -0.2669 -0.0075 -0.1507
30350W        W46484   2.160  19.222  14.484 -0.1625 -0.0709  0.1368
30351W        W46485   7.165   3.429   3.881  0.1530 -0.0390  0.4394
30352W        W46486   1.181  11.009   3.450  0.1234  0.1728 -0.1272
30353W        W46487   4.020  17.470  12.220  0.0565  0.0036 -0.0055
30354W        W46488   6.502   4.890  14.816 -0.1583  0.0569  0.0002
30355W        W46489  14.109   5.464   9.740 -0.3505  0.1222 -0.1065
30356W        W46490  17.510  10.531  11.567  0.1981  0.2574  0.1767
30357W        W46491   4.231   1.663  12.435 -0.0780 -0.2539 -0.1614
30358W        W46492  11.235   4.626  11.266 -0.1129  0.0931 -0.0901
30359W        W46493  18.963   2.068   2.188 -0.1967  0.1839 -0.0301
30360W        W46494   2.292  14.096   2.348 -0.0149 -0.0373 -0.1531
30361W        W46495  12.641   6.700   0.103 -0.1631 -0.2147  0.0706
30362W        W46496  10.620   0.111   4.477 -0.2943 -0.1775  0.3640
30363W        W46497  13.177   3.430   0.563  0.5331 -0.1247  0.1466
30364W        W46498   7.418   9.122   0.995 -0.0758  0.3259  0.2980
30365W        W46499   2.202   5.101  10.575 -0.0276  0.5608  0.1571
30366W        W46500  10.634  10.615  12.909 -0.1198 -0.0278 -0.1138
30367W        W46501  18.405   9.133  13.858 -0.1210 -0.0553  0.3817
30368W        W46502  13.673   0.082  14.405  0.0254  0.2878  0.0712
30369W        W46503  12.229  13.714   2.851 -0.2517  0.2952  0.1497
30370W        W46504  15.080   8.546  11.779 -0.0950  0.0519  0.0504
30371W        W46505   0.697   0.334   2.362  0.0748 -0.3015 -0.0114
30372W        W46506  10.800   6.566   3.426 -0.2446  0.0560 -0.2107
30373W        W46507   3.561   7.655  11.934 -0.0926  0.2015 -0.1296
30374W        W46508  12.923  12.670   5.316  0.2130  0.1850 -0.1324
30375W        W46509  15.266   8.568  14.597 -0.1022 -0.0129 -0.1461
30376W        W46510   6.194   6.838   4.258  0.0318  0.0804 -0.0230
30377W        W46511   5.876   0.354  12.118  0.1557 -0.3414 -0.1615
30378W        W46512   8.443   5.172   9.728 -0.0320  0.1424 -0.1081
30379W        W46513   7.284  17.291   4.986 -0.2867 -0.2205  0.3704
30380W        W46514   8.600  12.932   1.226 -0.3209 -0.0659  0.1195
30381W        W46515  11.008   0.846  14.794 -0.0403  0.1367  0.2472
30382W        W46516  16.938  10.494   1.469  0.0151 -0.0986 -0.0106
30383W        W46517   4.087   0.259  12.888 -0.0544 -0.1031  0.1273
30384W        W46518   1.888  18.653  12.749  0.0832 -0.2193  0.3901
30385W        W46519   9.833   8.829  13.289 -0.0467  0.0540  0.1107
30386W        W46520  16.628   7.426  14.369 -0.0690  0.2902 -0.2613
30387W        W46521  12.872   8.913   3.025 -0.0970 -0.0979  0.0875
30388W        W46522  18.646  14.762   3.675 -0.1379 -0.3335 -0.0516
30389W        W46523   1.984  16.644  13.947  0.3213 -0.1276  0.2088
30390W        W46524   0.054   6.576  10.918  0.2323 -0.3626  0.0647
30391W        W46525   8.533  11.286  10.860 -0.0480  0.2183  0.0297
30392W        W46526  14.223   6.354   0.503  0.0076  0.0969  0.0904
30393W        W46527  17.907   4.130   0.269 -0.1164 -0.0798 -0.0737
30394W        W46528  16.041   7.621   2.258  0.1948  0.0644 -0.2645
30395W        W46529   8.332   0.195   2.818  0.2438  0.0348  0.2953
30396W        W46530  15.816   7.203   0.955  0.2602 -0.0613  0.0938
30397W        W46531   9.290  16.387  12.154  0.2373  0.2588  0.0527
30398W        W46532   4.358  12.351   5.339 -0.1749 -0.0355  0.1028
30399W        W46533  16.715  17.141   1.390 -0.0717 -0.1963 -0.0690
30400W        W46534   7.956  16.373  14.590  0.0250 -0.2058  0.0803
30401W        W46535  18.861  15.096  13.981 -0.0235 -0.2319 -0.1378
30402W        W46536   2.558  11.624   5.326  0.1484 -0.0679  0.0787
30403W        W46537  12.982  13.138  12.607 -0.0927 -0.1346 -0.1651
30404W        W46538  15.305   9.746   0.380 -0.1676  0.3335  0.0442
30405W        W46539  13.464  11.797   4.307  0.0036  0.0874 -0.1143
30406W        W46540   9.965  14.049  14.252 -0.0469 -0.2087  0.1640
30407W        W46541  13.488  14.573  10.389 -0.0449  0.0813  0.0023
30408W        W46542   1.991   0.796  13.956  0.1059 -0.0627  0.3025
30409W        W46543   1.082  18.613  13.777  0.0089  0.0604 -0.0803
30410W        W46544   0.901   5.857   3.691 -0.2090 -0.0189 -0.0873
30411W        W46545   8.280  15.771  14.906 -0.1208  0.0865 -0.0175
30412W        W46546  12.208   4.709   8.894  0.0366 -0.0968 -0.2573
30413W        W46547   9.567   6.776  12.283 -0.0583  0.2692 -0.0903
30414W        W46548   0.529  13.598  14.667  0.2278  0.1683 -0.0169
30415W        W46549   4.327  11.364  10.463 -0.0502  0.0356  0.1365
30416W        W46550  17.135   0.238  15.008  0.0931  0.1390  0.0734
30417W        W46551   9.688   4.046  13.530  0.4237 -0.1413  0.2524
30418W        W46552   2.532  17.082   2.750 -0.2742 -0.0903 -0.0358
30419W        W46553   6.543  11.412  11.979 -0.1188  0.3733 -0.3748
30420W        W46554   8.189   3.356  10.532 -0.2184  0.0577  0.0428
30421W        W46555  18.302  15.290   1.829  0.2356  0.1403  0.0427
30422W        W46556   6.341   4.627  13.937  0.1961 -0.2302 -0.2263
30423W        W46557  13.962  10.895  13.422 -0.3326  0.2851 -0.0154
30424W        W46558   1.239   2.520   5.196  0.4620 -0.2764  0.0446
30425W        W46559  16.530  16.754   2.574  0.3165 -0.0867  0.2962
30426W        W46560   1.238  11.503  10.768 -0.0948 -0.1643 -0.0748
30427W        W46561   2.899   7.549   0.991  0.0764  0.1175  0.1942
30428W        W46562  11.983   8.540  12.483  0.1730  0.1057 -0.4170
30429W        W46563   5.305   8.920  10.810 -0.3515 -0.1702 -0.0553
30430W        W46564  11.982  17.746  13.083 -0.0209  0.2887 -0.0339
30431W        W46565  10.783  14.847   1.289  0.0196 -0.0675 -0.0202
30432W        W46566   4.252  13.197   5.878  0.1017  0.4524 -0.0556
30433W        W46567  18.360  14.282  11.484  0.0780  0.0345  0.1254
30434W        W46568  10.869   8.539   1.707 -0.0669 -0.2744 -0.1214
30435W        W46569  14.121  11.657   3.387  0.1742  0.0159 -0.0878
30436W        W46570   0.140  14.664   1.017  0.0457 -0.4306 -0.0549
30437W        W46571  13.128   5.348   0.261  0.2172  0.0673 -0.0501
30438W        W46572   6.602   3.286   9.890 -0.6210 -0.1361  0.0105
30439W        W46573  16.405  15.977  11.150 -0.2769 -0.1773  0.3464
30440W        W46574   0.729  13.681   4.315  0.0952 -0.1501 -0.1911
30441W        W46575  11.374   1.517  11.742  0.0020  0.0123  0.0489
30442W        W46576   8.682  12.057   1.566  0.1196 -0.2742 -0.1577
30443W        W46577   7.289  12.416  10.542  0.2471  0.0272  0.3453
30444W        W46578   3.542   7.830   0.953 -0.3375  0.0738  0.3084
30445W        W46579  10.387   4.451  14.023 -0.1282 -0.2200  0.2632
30446W        W46580   3.533   8.539  14.308 -0.1460 -0.0074 -0.2314
30447W        W46581  10.167  19.178   3.580  0.0612 -0.2602 -0.0360
30448W        W46582   5.122  13.435   3.172  0.1402  0.1899 -0.0929
30449W        W46583  16.338   9.941  14.543  0.2707  0.2143 -0.0550
30450W        W46584   6.098   9.049  13.861  0.0810  0.1526  0.2151
30451W        W46585   5.044   9.788   1.388  0.0205 -0.0774  0.3910
30452W        W46586   6.941   7.490  11.619 -0.2768  0.0586 -0.0626
30453W        W46587   4.744   0.955   1.576 -0.2485 -0.0486  0.3399
30454W        W46588   3.837  16.093   0.754 -0.0794 -0.1008  0.3676
30455W        W46589   3.121  13.655   2.688 -0.1242  0.0197  0.2683
30456W        W46590  16.888  18.521  13.525  0.0382  0.3092 -0.5181
30457W        W46591  10.796   1.713   2.011 -0.1341 -0.2697  0.0577
30458W        W46592  13.392   8.297   4.310 -0.0115 -0.1313 -0.0443
30459W        W46593  17.475   5.429  11.481  0.1544  0.3666  0.5092
30460W        W46594   7.660   4.045   1.252  0.3571  0.1043  0.1177
30461W        W46595  14.117  17.400   3.997  0.0906 -0.0452  0.0308
30462W        W46596  14.008  10.817   3.265 -0.1165 -0.2162 -0.2206
30463W        W46597  11.072  12.069  14.574  0.1970  0.0326 -0.1568
30464W        W46598   8.645  14.612   3.519  0.1689  0.0847 -0.0102
30465W        W46599  14.085   5.288   2.014  0.0028  0.0635  0.1151
30466W        W46600  10.781  15.619  13.479  0.1168  0.1399  0.1774
30467W        W46601   1.867  14.748   0.173  0.0317 -0.2089  0.0823
30468W        W46602  16.288   2.675   2.453  0.2452 -0.4737  0.2148
30469W        W46603   7.100  18.303  11.701  0.2458 -0.3849 -0.1365
30470W        W46604  18.569   5.852   4.015  0.3459  0.0663 -0.4230
30471W        W46605   8.423  18.930   2.696 -0.0310  0.0834 -0.1375
30472W        W46606  12.789  12.015   2.133 -0.1224 -0.2250  0.1895
30473W        W46607   2.264   0.805  10.567 -0.2886 -0.1459 -0.1071
30474W        W46608  17.887  19.146   0.792 -0.2716 -0.0748  0.0999
30475W        W46609   4.322   6.459   0.997  0.1260 -0.1614 -0.0156
30476W        W46610   2.860   9.062   1.287  0.0827  0.2119 -0.3365
30477W        W46611   0.565   8.527   2.804 -0.4046 -0.0717  0.0147
30478W        W46612  15.707  11.661   0.855 -0.0966 -0.2946  0.2160
30479W        W46613  15.974   4.788   2.648  0.0163  0.1982 -0.0218
30480W        W46614  19.058   9.845   4.753  0.0861  0.1846  0.0361
30481W        W46615   7.833   2.213   2.501  0.2321  0.2766  0.1567
30482W        W46616  18.018   7.401  14.947 -0.0587 -0.0769  0.1333
30483W        W46617  17.924   3.106  13.921 -0.1119 -0.0806  0.1824
30484W        W46618  14.154  13.958  11.415 -0.3913 -0.2879 -0.0310
30485W        W46619   5.630   3.709  11.235 -0.1477 -0.1672  0.1707
30486W        W46620  12.927  18.387  14.267 -0.0189  0.1821  0.2251
30487W        W46621  15.296  10.146   2.266 -0.1676 -0.0816  0.0961
30488W        W46622   9.954  18.818  10.758  0.3590  0.1336  0.1871
30489W        W46623   3.617   1.996  11.680 -0.2273  0.0966 -0.1052
30490W        W46624  11.777   3.343  11.652 -0.0097  0.1508  0.1111
30491W        W46625  14.560   9.269  12.891 -0.0254 -0.1797 -0.0116
30492W        W46626  12.200  11.833  14.303  0.0842 -0.1758 -0.3423
30493W        W46627  14.885  14.194   2.500 -0.1667  0.0160  0.2720
30494W        W46628   7.466  16.692   2.590 -0.3637 -0.2178 -0.0633
30495W        W46629   4.112  14.260   4.430  0.2658  0.2312  0.0537
30496W        W46630   2.682   2.554   1.671 -0.1771 -0.0128 -0.2157
30497W        W46631   4.669  10.784  10.197 -0.2087 -0.0361  0.1404
30498W        W46632   8.413   3.051   4.219  0.1089 -0.2918 -0.1365
30499W        W46633  15.419  14.173  11.225 -0.1225  0.0741  0.0205
30500W        W46634   6.199  18.604  14.933  0.3412 -0.1394  0.2918
30501W        W46635   7.592  12.805  10.126 -0.1591  0.2314 -0.1267
30502W        W46636   0.218   6.683  14.000  0.2729  0.3148  0.0296
30503W        W46637  15.663   7.540   1.831 -0.0259 -0.0179 -0.1509
30504W        W46638   5.148   7.471  11.529 -0.1603  0.0546 -0.1734
30505W        W46639  16.620  11.307  12.848 -0.1247 -0.3368 -0.2042
30506W        W46640  11.667  16.040  12.332 -0.1787  0.2317 -0.5231
30507W        W46641   5.405   2.901   0.795  0.0168  0.0678 -0.0488
30508W        W46642   4.217  12.769   3.050  0.1897  0.1176 -0.0257
30509W        W46643  16.388   5.402  13.819 -0.0198 -0.0937  0.2682
30510W        W46644   2.268  18.499   0.008 -0.0955  0.3130  0.1933
30511W        W46645   2.762  14.146  10.867  0.4911  0.2001 -0.1128
30512W        W46646  19.173  10.542  13.108 -0.2172 -0.4504 -0.0159
30513W        W46647  11.749   0.551   1.468 -0.0337 -0.0225  0.3855
30514W        W46648   1.405   8.782  14.417 -0.0169  0.3402 -0.2333
30515W        W46649  15.084   3.497  13.872 -0.1773  0.2541  0.1395
30516W        W46650   6.937  18.350   1.496  0.2319 -0.2413 -0.1475
30517W        W46651   5.443  10.498   2.758 -0.2211 -0.1136 -0.1369
30518W        W46652   2.660  13.400  13.240 -0.1452  0.0736  0.0376
30519W        W46653   3.928  16.401  10.030 -0.0438 -0.0435  0.0701
30520W        W46654  17.600   7.249  14.480  0.3730 -0.1851  0.1799
30521W        W46655  13.205   9.195   4.704 -0.0483 -0.3348  0.0916
30522W        W46656   0.393   2.929  11.339  0.0160 -0.1477 -0.3091
30523W        W46657  14.239   0.986  10.310 -0.2181  0.1901 -0.3070
30524W        W46658   0.342  12.738   0.876 -0.2734 -0.0759 -0.0839
30525W        W46659   8.272  18.302  14.299 -0.0658  0.3573 -0.0417
30526W        W46660   6.871  13.132  11.301 -0.2258  0.1373  0.0800
30527W        W46661  14.636   8.832   1.397 -0.1305  0.4210  0.1758
30528W        W46662  19.027  16.022   2.676 -0.0366  0.3582  0.3192
30529W        W46663   3.274  19.004   4.656 -0.4780 -0.1214  0.2329
30530W        W46664  11.482   5.002  13.381 -0.0990  0.0453  0.1270
30531W        W46665   1.038   4.490   0.439 -0.2184 -0.0753  0.1723
30532W        W46666   3.758  13.416   1.914 -0.1068 -0.0002 -0.2159
30533W        W46667  16.527   7.427  13.455 -0.2378 -0.1326 -0.2114
30534W        W46668   9.416  14.351  14.858  0.1152  0.1480 -0.0913
30535W        W46669   2.887   2.751  14.186 -0.0332 -0.1186 -0.3603
30536W        W46670  15.128   9.897   4.219 -0.1051 -0.2229  0.0647
30537W        W46671  15.487   9.122  13.044  0.1673  0.0317  0.1982
30538W        W46672  12.942   4.074  14.333 -0.0033 -0.0985 -0.2743
30539W        W46673  16.062   4.989  13.201 -0.1668 -0.0826 -0.2171
30540W        W46674   9.968   2.280  14.566 -0.0345 -0.3092  0.0528
30541W        W46675  18.164  13.683  10.814 -0.0637  0.2105  0.0845
30542W        W46676   7.003   1.972   0.387 -0.0366  0.5131  0.0296
30543W        W46677  12.595   5.496  14.364 -0.1696 -0.3074  0.2158
30544W        W46678  15.033  14.772   0.697  0.0680  0.2472  0.2340
30545W        W46679   9.004  13.823  14.167  0.0006 -0.0033 -0.1817
30546W        W46680  18.362  16.524   1.277 -0.3113  0.2006  0.2938
30547W        W46681   8.295  12.652   0.808 -0.1602  0.1575 -0.0078
30548W        W46682  16.685   6.254   2.796  0.0217  0.1434 -0.1707
30549W        W46683  19.155  11.093  10.670  0.0063 -0.0269  0.0913
30550W        W46684   1.008  14.268  14.815 -0.0155 -0.1501 -0.2590
30551W        W46685  15.182   0.073   3.006  0.0962  0.0311  0.2152
30552W        W46686  15.606  17.208   1.548 -0.1009 -0.1468 -0.1504
30553W        W46687  14.019   2.191  11.718 -0.0923  0.1307  0.0365
30554W        W46688  18.188   5.900   3.641  0.1665 -0.0760 -0.0897
30555W        W46689   6.852  13.956   2.767 -0.0014  0.2796  0.1762
30556W        W46690   1.523  16.896   0.662  0.1726  0.0212 -0.0397
30557W        W46691   3.751  18.187  12.649 -0.0356 -0.1874  0.4024
30558W        W46692  14.627   8.495  11.618  0.1828  0.2344  0.1061
30559W        W46693   5.228  10.047  13.887 -0.4307 -0.0323 -0.1444
30560W        W46694  17.400   0.049  11.459 -0.0832 -0.3340  0.0109
30561W        W46695   9.180   3.131  12.250 -0.3090  0.0496 -0.0341
30562W        W46696  16.060  19.219   2.605 -0.0776 -0.0874 -0.0989
30563W        W46697   8.752   8.881  10.352 -0.0139  0.6977 -0.1824
30564W        W46698   9.315   6.934  11.227 -0.0157 -0.2606  0.1867
30565W        W46699  10.127   5.022   2.715  0.0495  0.3584 -0.2675
30566W        W46700  10.331   4.875  11.949  0.1689 -0.0034 -0.0304
30567W        W46701  10.738   6.543  13.042  0.1731 -0.0964  0.1593
30568W        W46702   1.207  11.473   2.977 -0.2383 -0.1563 -0.1276
30569W        W46703   8.153  12.171   0.807  0.0812 -0.0508 -0.0218
30570W        W46704  11.958   9.615   2.876 -0.0271 -0.0390 -0.0234
30571W        W46705  17.236   5.573   1.737  0.2707 -0.1784  0.2603
30572W        W46706   4.021   4.489  14.363  0.2067 -0.0264 -0.2305
30573W        W46707   1.044  11.598   2.222 -0.3247  0.0359 -0.1298
30574W        W46708  16.595  13.107  12.945 -0.0779  0.0918 -0.0938
30575W        W46709  17.135   0.918  10.613  0.2251 -0.0847  0.2012
30576W        W46710  18.554   7.487  13.796  0.0536 -0.1057 -0.2195
30577W        W46711  15.859   2.005   0.778 -0.2804 -0.0620 -0.1943
30578W        W46712  12.957  15.296   6.004  0.1944  0.0259 -0.1702
30579W        W46713   4.142  19.203   5.154 -0.1621  0.3004  0.0602
30580W        W46714  10.296   6.755   2.078  0.0918  0.1231  0.2332
30581W        W46715   4.594   5.676  10.434 -0.1486 -0.2141  0.1923
30582W        W46716  16.546  11.928   2.340  0.4411  0.0827  0.1076
30583W        W46717   7.091  11.006   2.888 -0.0688  0.0753  0.1302
30584W        W46718  10.826   9.252   5.344 -0.0524 -0.0871  0.4136
30585W        W46719  15.167  19.031   0.559  0.0457  0.4417  0.1365
30586W        W46720   0.067   8.328  14.520 -0.1689 -0.0541  0.0158
30587W        W46721   9.991   9.356  13.345 -0.2211  0.0994 -0.0670
30588W        W46722   0.093  15.866   3.045 -0.0140  0.1455  0.0384
30589W        W46723  12.759   0.290   2.717 -0.0907  0.0028  0.0322
30590W        W46724   0.725  15.223   0.254  0.2591 -0.1444  0.2635
30591W        W46725  14.718   8.200  13.160 -0.0852  0.1819  0.0771
30592W        W46726   4.061   9.184   0.208  0.1811 -0.3058 -0.1046
30593W        W46727   3.963  11.982   3.469 -0.8535 -0.0923  0.1081
30594W        W46728   8.680   9.594  13.773 -0.1540  0.3755 -0.1804
30595W        W46729  11.687   1.282  11.438 -0.3482  0.4145  0.2364
30596W        W46730   3.471   3.664   0.234  0.0193 -0.1593  0.2139
30597W        W46731   2.978   3.055   6.014  0.0943  0.0486 -0.2763
30598W        W46732   1.074   0.815   2.911 -0.2208 -0.1678 -0.1219
30599W        W46733  16.144   8.297   0.328  0.1392  0.1100  0.0814
30600W        W46734  13.339  14.396   3.566  0.2393 -0.1560  0.0502
30601W        W46735  13.286  16.777   1.732  0.3567  0.1300 -0.1220
30602W        W46736  11.863   6.488  14.968  0.3073 -0.3937 -0.0856
30603W        W46737   4.206  18.129   0.012  0.1149 -0.1777  0.3080
30604W        W46738   1.927   2.541   2.430  0.0913  0.2159 -0.2116
30605W        W46739  15.895   9.549   3.031  0.2039  0.1126  0.2071
30606W        W46740   4.939  15.187   0.893 -0.1037  0.1602 -0.4424
30607W        W46741  18.622   3.068  14.664  0.0421  0.0771 -0.1777
30608W        W46742   2.874  10.651   1.765  0.3742 -0.0994  0.0241
30609W        W46743   8.601  15.697  14.390 -0.0659  0.1288 -0.0135
30610W        W46744  17.146  15.471  10.811  0.1784  0.0186  0.0339
30611W        W46745  12.179   6.575  10.858  0.1559  0.0987 -0.0636
30612W        W46746  18.992  17.222   1.387  0.1164  0.1180 -0.1547
30613W        W46747   2.923  11.872  14.046 -0.4015 -0.0659  0.3148
30614W        W46748  19.146   9.858   1.805  0.2390  0.2400 -0.0208
30615W        W46749   1.223   5.328   4.943 -0.0878  0.1446 -0.1091
30616W        W46750   6.303   3.943  10.491  0.1480 -0.1873 -0.0136
30617W        W46751   2.948  11.754  10.750 -0.1256 -0.0426  0.0873
30618W        W46752   2.317  14.730   0.369 -0.1871 -0.0619 -0.3075
30619W        W46753   3.148   0.267   0.168 -0.1022  0.2999  0.0737
30620W        W46754  15.997   5.251  13.556 -0.2370 -0.4379  0.1287
30621W        W46755   5.037   2.252  14.612  0.0650  0.0718  0.1463
30622W        W46756   7.783   8.745   2.869 -0.1148  0.0981 -0.1107
30623W        W46757   5.670   3.532   0.207  0.0074  0.0770 -0.1973
30624W        W46758   7.790   3.827   4.041  0.0957 -0.0414  0.2945
30625W        W46759   7.249   3.837  12.542 -0.0416 -0.2578  0.1930
30626W        W46760  16.031  19.045  14.841  0.0645  0.2253  0.1110
30627W        W46761  12.744  11.827  12.069 -0.1236 -0.2761 -0.2175
30628W        W46762   2.745  18.271   0.920 -0.1697 -0.1231 -0.4458
30629W        W46763   9.557  18.422  12.067 -0.2706 -0.0157  0.1042
30630W        W46764   8.067  11.108  12.150  0.0682 -0.2372  0.1601
30631W        W46765  15.684   9.409  14.882 -0.2925  0.2810 -0.1740
30632W        W46766  17.745  17.573   4.249 -0.0598 -0.0195 -0.0708
30633W        W46767   3.644   3.068   0.797  0.0651 -0.2514  0.1729
30634W        W46768  18.400   4.885   3.499  0.1903 -0.1379 -0.0658
30635W        W46769   9.627   9.103   3.066  0.1182  0.1237  0.1172
30636W        W46770  19.137   6.115  11.215 -0.1057 -0.1384  0.1613
30637W        W46771  13.996  14.110  14.487 -0.2316 -0.1475  0.2737
30638W        W46772  14.987  12.640   3.323 -0.0448 -0.2976 -0.1337
30639W        W46773   1.203   1.265  13.473  0.0189  0.0041  0.0212
30640W        W46774  10.031   4.526   4.428 -0.1144 -0.2112 -0.1587
30641W        W46775   4.023  14.773   2.451 -0.2984  0.1046 -0.0295
30642W        W46776  10.169  10.423   4.642 -0.0671  0.3068  0.0197
30643W        W46777  13.135   6.806   3.010  0.0036  0.0856  0.1227
30644W        W46778   9.535  12.652   1.929  0.0797  0.2573  0.1513
30645W        W46779  18.246   9.949  11.756 -0.0458 -0.1607 -0.2439
30646W        W46780  12.822  14.372   0.841  0.0450  0.1236 -0.2677
30647W        W46781   6.568   7.153   1.139 -0.1497  0.0443 -0.0435
30648W        W46782  18.833   4.532  13.394 -0.0316  0.0688  0.3994
30649W        W46783  17.027   1.975  13.667 -0.0265  0.0514  0.3401
30650W        W46784  13.502  11.264  12.123  0.0950 -0.3851  0.0212
30651W        W46785   9.172  14.142  11.997 -0.1144 -0.3794  0.1579
30652W        W46786  18.987  12.628  11.154 -0.1854 -0.0900  0.3163
30653W        W46787  18.396   5.327  11.068  0.2295  0.0440 -0.3390
30654W        W46788   5.863   3.771   0.613  0.0685 -0.0246  0.1273
30655W        W46789   5.504   4.180   3.659 -0.2534  0.0472 -0.1200
30656W        W46790  12.799   3.347  10.587  0.0294  0.0298  0.2802
30657W        W46791   1.299   1.783  11.848 -0.0079 -0.2675  0.0835
30658W        W46792  16.884   7.962   1.739 -0.0870 -0.0901  0.0805
30659W        W46793   6.958  10.026   2.263 -0.2763 -0.4067 -0.4427
30660W        W46794  11.629  17.446   1.172 -0.0836 -0.0125  0.0181
30661W        W46795   1.884   3.187   5.741 -0.2586  0.2138  0.0194
30662W        W46796  11.346   9.095   1.860 -0.3463 -0.0644  0.0652
30663W        W46797  15.052   8.525  11.250 -0.0641 -0.1227 -0.1529
30664W        W46798   0.038   7.259  14.522  0.1880 -0.0428 -0.1412
30665W        W46799  16.998  13.104  13.679 -0.1037  0.1028  0.0795
30666W        W46800  17.226   2.300   0.965  0.1009  0.0493 -0.1113
30667W        W46801  11.046   7.564   4.694  0.2223  0.0553 -0.1019
30668W        W46802   6.281   5.384  14.633 -0.0017 -0.3912 -0.0501
30669W        W46803  16.112  13.567  13.583  0.1187 -0.3096 -0.2809
30670W        W46804   5.509   6.102   4.028 -0.0926  0.3736 -0.0766
30671W        W46805  14.039   2.600   3.499 -0.2179 -0.0386 -0.0759
30672W        W46806   8.023  10.165  10.689  0.0476  0.1555  0.0544
30673W        W46807  10.420   5.170   2.177  0.1780 -0.0024  0.1923
30674W        W46808   0.181   2.728   3.889 -0.0870 -0.1290 -0.2648
30675W        W46809   8.835   8.887   4.731 -0.3981 -0.0220 -0.2159
30676W        W46810  19.213   7.588   4.291 -0.0218  0.4910 -0.0748
30677W        W46811  12.891   7.979  11.051 -0.2815  0.0718  0.0009
30678W        W46812   2.351  11.036  13.760  0.1414  0.1540 -0.1377
30679W        W46813  16.698   2.971   2.404  0.3225  0.0962 -0.1715
30680W        W46814   6.664  11.170   3.147 -0.0543  0.1863  0.1429
30681W        W46815  13.084   9.250  11.171  0.3000 -0.1176 -0.5261
30682W        W46816   9.451   8.683   2.153 -0.2295 -0.1196 -0.3223
30683W        W46817   3.743  14.176   3.242  0.4239 -0.0169 -0.1343
30684W        W46818   1.131  12.177  12.112  0.0368 -0.1103 -0.0080
30685W        W46819  12.304  13.265   3.811 -0.1789 -0.0921 -0.0956
30686W        W46820   5.587  13.308  12.681 -0.0828  0.0312  0.0495
30687W        W46821  14.773  16.352   0.557  0.2471 -0.2819 -0.0304
30688W        W46822   6.732  11.958   1.417 -0.6054  0.0795 -0.0864
30689W        W46823  13.082  16.157   4.504 -0.0776 -0.1211 -0.1054
30690W        W46824  15.419   4.609   0.931  0.0472  0.0714 -0.2179
30691W        W46825  17.944   8.807   3.918 -0.4204  0.0823 -0.3888
30692W        W46826   9.813   3.259   2.415  0.0895 -0.0857 -0.3532
30693W        W46827   2.173   4.997  14.909  0.3169 -0.1331  0.2106
30694W        W46828  19.058  10.574   0.863  0.0605  0.2632  0.1438
30695W        W46829  13.141   5.888  14.620 -0.0365 -0.0964 -0.0208
30696W        W46830   5.677   6.525  10.660 -0.0741 -0.3558  0.4860
30697W        W46831  17.324  14.048   4.250 -0.0884  0.3967  0.1597
30698W        W46832  13.482   3.312   4.728 -0.0550  0.0371  0.0327
30699W        W46833   3.770  12.478  12.945  0.0526 -0.1247  0.1777
30700W        W46834   2.840   1.073  14.754 -0.0193 -0.0208 -0.1780
30701W        W46835   3.142  17.866  12.576 -0.2361 -0.0010 -0.0256
30702W        W46836   6.398   2.510  11.669  0.1352 -0.1583  0.1712
30703W        W46837  11.346   9.925  11.529  0.3020  0.2269 -0.1294
30704W        W46838   3.141  18.637  11.000 -0.0637 -0.0698  0.0046
30705W        W46839   5.079   1.700  10.424 -0.1838  0.0265  0.0958
30706W        W46840   4.041   6.800  13.486  0.0497  0.1823 -0.3504
30707W        W46841  13.544  10.294  13.227 -0.0556  0.3556  0.0763
30708W        W46842  17.352  18.193   4.287  0.0137  0.1134  0.1600
30709W        W46843   6.117   5.023  12.681  0.0396 -0.1631  0.0101
30710W        W46844   3.917   8.967  14.641 -0.0462  0.1734 -0.2699
30711W        W46845   4.213   8.767  13.063  0.1180  0.0312  0.3761
30712W        W46846   3.276  13.837   2.205  0.0274 -0.2469 -0.0748
30713W        W46847   5.850   0.787   0.602  0.4312  0.0642 -0.1902
30714W        W46848   9.282   5.266   2.971 -0.2261  0.2180  0.0177
30715W        W46849   2.990   4.294  11.212 -0.0151  0.0983 -0.1137
30716W        W46850   3.315   8.807   2.796 -0.0143 -0.3107  0.2148
30717W        W46851  17.025   4.097   2.123  0.3783 -0.1304  0.0440
30718W        W46852  14.028  12.510   3.979 -0.2801 -0.2199  0.3021
30719W        W46853  10.776  18.332   1.442  0.3445  0.0708 -0.1296
30720W        W46854  17.604  15.815  13.881  0.2292  0.2097 -0.0597
30721W        W46855   1.493  12.201  13.337  0.0882  0.1513 -0.0244
30722W        W46856   4.419  18.875  11.661  0.1749  0.1102  0.1092
30723W        W46857  16.265  11.770   0.224 -0.2070 -0.1481  0.1427
30724W        W46858   3.525  11.611  13.230  0.0050  0.0081 -0.0343
30725W        W46859  19.113  13.558  13.458 -0.1305 -0.1995  0.1323
30726W        W46860  16.222   9.768   4.229  0.1429 -0.3541  0.0586
30727W        W46861   0.939  14.398  14.004  0.0066 -0.0801 -0.3352
30728W        W46862  12.462  15.185   2.744 -0.2180  0.1172 -0.1389
30729W        W46863   8.540   6.639  13.772  0.1141  0.0040  0.0344
30730W        W46864   5.314   4.667  11.156 -0.0601 -0.0560  0.1774
30731W        W46865  15.351  14.699   1.196 -0.0297 -0.0032 -0.0562
30732W        W46866  11.021   7.274  10.094  0.0540 -0.3241  0.1796
30733W        W46867   9.299   5.158   2.426 -0.4367 -0.1152 -0.0437
30734W        W46868  10.528   5.769   0.699  0.1660  0.2206 -0.1730
30735W        W46869   4.969   1.177  12.111  0.2588  0.2474 -0.2947
30736W        W46870   8.274  13.245   4.072  0.0267 -0.2379 -0.0360
30737W        W46871   7.153  11.462   3.126 -0.4778  0.1496  0.2558
30738W        W46872  11.047   7.436   2.662  0.0720  0.2533  0.1115
30739W        W46873   4.285  13.227  10.930  0.1245  0.0332  0.0799
30740W        W46874   2.176  16.876   3.042  0.1164  0.0262  0.0603
30741W        W46875   7.729   0.890  12.912  0.3818  0.0148  0.0832
30742W        W46876  15.456  18.287  13.404 -0.3633  0.1242  0.1583
30743W        W46877  11.365   5.132   1.929 -0.1503 -0.1043  0.2062
30744W        W46878   2.051  13.615   5.126 -0.1405 -0.1532 -0.1013
30745W        W46879  10.990  14.560   3.037 -0.1038 -0.4003  0.1657
30746W        W46880   7.643  17.853  13.733  0.0914  0.1580  0.0360
30747W        W46881  18.158   4.413  10.088  0.1578  0.2137 -0.0535
30748W        W46882   4.608   3.530  14.543  0.1947  0.2818 -0.1552
30749W        W46883   2.047   9.121   4.370  0.0868  0.2835 -0.1101
30750W        W46884   3.772  12.754  14.597  0.2285 -0.2066 -0.1086
30751W        W46885  17.901  13.021   0.446 -0.0797 -0.0679 -0.0025
30752W        W46886   8.445  16.371  12.356 -0.0272  0.1850  0.2512
30753W        W46887  13.480   2.081   3.448  0.0089 -0.0572  0.1443
30754W        W46888   4.707   3.419  13.594  0.2841  0.2893  0.0452
30755W        W46889  12.615   9.186   2.634  0.2252 -0.3310  0.1279
30756W        W46890  15.647   3.720  14.017 -0.0985  0.1826  0.0462
30757W        W46891   6.852  17.652   2.845 -0.0935  0.0947  0.0358
30758W        W46892   8.893   7.127  13.809 -0.0010 -0.0265 -0.2237
30759W        W46893  13.559   9.809   0.324  0.3648 -0.3801 -0.1513
30760W        W46894   8.127   4.595  15.004 -0.3965 -0.2876  0.2617
30761W        W46895   7.667  11.345  13.352  0.0313  0.0031  0.0123
30762W        W46896   7.121   7.067   4.142  0.0082  0.3301 -0.1807
30763W        W46897  17.699  17.598  14.329 -0.0448  0.4840  0.1494
30764W        W46898   2.970  13.097   3.519 -0.1190  0.1679 -0.1699
30765W        W46899  17.220   1.669   4.606  0.3612 -0.0070  0.1180
30766W        W46900  11.339   6.622   9.581  0.1814  0.1093  0.0571
30767W        W46901  15.032   5.236   3.879  0.0928  0.0675  0.0029
30768W        W46902  15.824   6.969   0.491  0.1124  0.1436 -0.0211
30769W        W46903   6.850  13.897  12.903 -0.2682 -0.0491 -0.2382
30770W        W46904   3.531   7.210  14.030 -0.2398  0.2414 -0.1772
30771W        W46905  12.409  14.557   0.616 -0.0272 -0.0197  0.1518
30772W        W46906   0.614  11.015   0.488  0.0333  0.1124  0.0361
30773W        W46907   8.695   7.160   9.053 -0.0400  0.3119 -0.5187
30774W        W46908  12.495  13.242  12.054  0.0297 -0.2670  0.0404
30775W        W46909  17.588  14.382   1.231 -0.4569  0.0444  0.0193
30776W        W46910   1.572  13.099   0.176  0.6103  0.2476 -0.0480
30777W        W46911  13.371   5.730  10.751  0.2595 -0.1874 -0.1350
30778W        W46912   7.946  16.471   2.670 -0.1676 -0.3902  0.2107
30779W        W46913   1.675  15.574  11.108  0.0875  0.2189  0.0489
30780W        W46914   7.229  11.267  14.281 -0.1565 -0.1146  0.1886
30781W        W46915  11.773  12.675  13.269 -0.0535 -0.0349 -0.1974
30782W        W46916  17.659   1.258  13.060 -0.2725  0.2149 -0.4307
30783W        W46917  12.188   6.496   4.846 -0.2406 -0.2395  0.2742
30784W        W46918  18.123  18.898  10.741 -0.0475 -0.0457 -0.1725
30785W        W46919  14.372  11.452  10.431 -0.1089  0.0259 -0.2437
30786W        W46920  12.361   1.351   3.931  0.0647  0.0443 -0.4697
30787W        W46921   7.421  13.858   4.026 -0.1272  0.0570  0.1930
30788W        W46922  14.371  15.500  11.787 -0.0304 -0.2030  0.2787
30789W        W46923   0.245   4.552   4.080  0.1309  0.1854  0.1083
30790W        W46924  17.104   8.001  10.310 -0.0707 -0.2190  0.1479
30791W        W46925   1.987  12.827   1.056  0.1227  0.1390  0.0380
30792W        W46926  15.652   0.912   0.516 -0.0183 -0.0250  0.3113
30793W        W46927  18.763  17.769  12.235 -0.1542  0.1974  0.0161
30794W        W46928  19.206   9.393   4.578  0.0792 -0.0419 -0.0934
30795W        W46929  14.360  10.492   2.796  0.0571  0.0943 -0.1490
30796W        W46930  13.735   6.902   1.999 -0.0678 -0.3562 -0.2038
30797W        W46931  13.332  17.607  14.575 -0.3344 -0.1878  0.1711
30798W        W46932  18.267  14.408   2.308 -0.2713 -0.0020  0.1794
30799W        W46933   5.426   0.335   0.057  0.4611  0.5014  0.0913
30800W        W46934  14.326  18.089  13.239  0.1251  0.2337  0.0098
30801W        W46935   3.962  11.021   1.801 -0.1910 -0.3943  0.3256
30802W        W46936   3.651  18.684   0.682 -0.0339 -0.0872  0.1582
30803W        W46937   1.923  18.347   0.308 -0.2054 -0.4204 -0.0085
30804W        W46938   3.344  10.320   0.962 -0.0565  0.1723  0.0845
30805W        W46939   5.352   4.381  13.815 -0.0428  0.1490 -0.1342
30806W        W46940  14.126  18.313   0.217 -0.1202  0.0047 -0.0509
30807W        W46941  15.523  13.172  14.374  0.1206 -0.1672 -0.1273
30808W        W46942  10.313  18.728   3.900  0.2188 -0.0648 -0.1746
30809W        W46943  11.853   5.437   0.595  0.3415 -0.0087  0.2883
30810W        W46944  13.789   3.280   2.772 -0.1620 -0.1123 -0.0505
30811W        W46945   6.773  11.623   3.356 -0.0856  0.1126  0.0593
30812W        W46946   4.909  12.764  11.960 -0.0163 -0.0772  0.3108
30813W        W46947  16.084   6.456   0.193  0.1496  0.2212 -0.0844
30814W        W46948   7.039  11.933  10.432 -0.2573 -0.0938  0.1984
30815W        W46949  18.234   4.682   4.582  0.1560  0.0896  0.0939
30816W        W46950   0.059  19.009   2.673  0.0507  0.0428 -0.4275
30817W        W46951   9.742   2.036  14.108  0.1206 -0.0050 -0.2617
30818W        W46952  13.515   8.794  12.435 -0.0855  0.1018 -0.0839
30819W        W46953  10.307  10.853  12.575  0.0937  0.0106  0.1922
30820W        W46954  16.313   8.709  13.160  0.2413 -0.0657 -0.0695
30821W        W46955   3.007  18.956  14.188  0.1684  0.0006 -0.1789
30822W        W46956  13.569   9.009   2.068  0.2442 -0.1691 -0.1846
30823W        W46957  17.508  11.010  13.081  0.2459 -0.1862  0.2008
30824W        W46958   0.388  10.870   3.259  0.0010 -0.0200 -0.0566
30825W        W46959  10.643  10.774   4.906  0.0953 -0.5004  0.2502
30826W        W46960  10.333   9.519  10.680  0.0957 -0.2993  0.0256
30827W        W46961  12.369   0.979  11.019 -0.3115  0.2398 -0.1001
30828W        W46962   1.547  16.911   4.300 -0.0942  0.0591  0.2142
30829W        W46963   5.280  16.886  11.635  0.1923 -0.2038  0.2335
30830W        W46964   1.885   3.931   0.059  0.0111  0.1790 -0.2499
30831W        W46965  12.800   0.619   3.211  0.3595 -0.1069  0.0955
30832W        W46966   5.448  18.559   4.392 -0.2411 -0.1595  0.1687
30833W        W46967  17.051   2.526  11.516  0.4202  0.2179  0.0274
30834W        W46968   0.553   9.261  10.207 -0.1736 -0.1579 -0.1254
30835W        W46969   5.415   2.925  10.710  0.1801  0.2849 -0.0972
30836W        W46970  13.934   8.147   0.426 -0.0561  0.0272  0.2188
30837W        W46971   4.457  17.621   2.745  0.0183 -0.1708 -0.3775
30838W        W46972  12.202   7.845  10.809 -0.1825  0.3418  0.1483
30839W        W46973   6.532   8.855  14.104 -0.0242  0.0812  0.0300
30840W        W46974  12.775  15.110   4.173 -0.0817 -0.0213  0.2065
30841W        W46975  18.434   9.800   5.505  0.0808  0.2975 -0.2162
30842W        W46976  13.827  11.595   0.404  0.3047  0.0633  0.0328
30843W        W46977  16.236   3.369   1.169  0.0106 -0.0625  0.1229
30844W        W46978  13.607  15.409   5.476  0.0361 -0.0053 -0.1938
30845W        W46979   8.229  13.549  12.330  0.4023 -0.1563  0.0867
30846W        W46980   8.713   7.192   0.482 -0.1234  0.0260 -0.0446
30847W        W46981   0.761  14.009   3.007 -0.1770  0.2878 -0.1678
30848W        W46982   7.204  10.911  10.574 -0.1219 -0.3334  0.1168
30849W        W46983   0.595   1.880   0.766 -0.2386 -0.0570  0.2446
30850W        W46984  18.525  11.561  10.517 -0.0235 -0.0863 -0.0055
30851W        W46985   8.624   0.114   1.823  0.1864 -0.1606 -0.0891
30852W        W46986   6.564   1.015  12.290 -0.3084 -0.1019  0.0003
30853W        W46987  18.747   0.120   0.912 -0.1776  0.2305  0.0903
30854W        W46988  10.989  17.725   2.441  0.0093  0.2061  0.1833
30855W        W46989   5.652   9.276  13.843 -0.1512  0.0190 -0.0133
30856W        W46990  11.720  10.539  10.930  0.0579  0.2617 -0.1038
30857W        W46991  10.178  12.533   2.180  0.0466  0.0547 -0.2377
30858W        W46992  19.228  14.625   3.683 -0.0104  0.1757  0.0174
30859W        W46993   7.435  18.373   1.232  0.4643  0.2582 -0.0874
30860W        W46994   6.852  17.937  11.391  0.0623  0.1771  0.1893
30861W        W46995   2.508  14.524  13.474 -0.4931 -0.0580 -0.0322
30862W        W46996  11.337  14.363   0.662  0.1160 -0.0684  0.1003
30863W        W46997  10.211  19.156   3.052 -0.3959  0.0747 -0.1413
30864W        W46998  11.030  16.647   0.662  0.1567  0.1173  0.0951
30865W        W46999  12.181   4.312   3.315 -0.1361  0.1970 -0.2371
30866W        W47000   5.670  12.711   0.937 -0.2103  0.1252  0.4306
30867W        W47001   4.218  15.862   3.059 -0.1878 -0.1775  0.3378
30868W        W47002  13.273  19.038  14.387  0.0892 -0.0841 -0.0588
30869W        W47003   8.206   7.658  11.032  0.2436 -0.3003 -0.2375
30870W        W47004   0.804  10.966  13.113  0.1620  0.3193 -0.0391
30871W        W47005  13.307   0.066  12.888  0.0125 -0.1523  0.1385
30872W        W47006   6.108   3.921  14.482 -0.0385  0.2937  0.3157
30873W        W47007   2.584   2.722  14.658 -0.1463 -0.2685 -0.0527
30874W        W47008  12.349  13.471  10.843  0.2935 -0.1333  0.0102
30875W        W47009   8.245  15.451   0.623  0.0759 -0.1934 -0.0555
30876W        W47010   7.503  12.046  14.729 -0.1940  0.1089  0.0494
30877W        W47011   0.506   3.995  12.605  0.1992  0.2332 -0.0633
30878W        W47012   8.654  16.086   4.794  0.4199 -0.2240 -0.0950
30879W        W47013  18.907  18.460   5.272 -0.0969  0.1545 -0.0508
30880W        W47014  11.880   0.732   2.303  0.0721 -0.1180 -0.0535
30881W        W47015   4.492  19.062   2.202 -0.1158  0.4045 -0.0083
30882W        W47016  12.213  18.364   9.336 -0.2799 -0.0065  0.0942
30883W        W47017  12.991  18.121   0.969 -0.0382  0.1425 -0.3889
30884W        W47018   5.340  12.128  10.585 -0.1008  0.1962  0.0662
30885W        W47019   9.203   3.242  11.760  0.0033  0.1604  0.0006
30886W        W47020   1.511  15.234   3.036  0.1657  0.0810  0.1854
30887W        W47021   2.231  12.265  13.044 -0.0055  0.2552 -0.0701
30888W        W47022   3.912   6.354  14.286  0.2133 -0.0450  0.0902
30889W        W47023   7.784  15.255  13.052 -0.3453 -0.0736 -0.0602
30890W        W47024  13.525  11.136   4.468 -0.1179  0.2162  0.2413
30891W        W47025   3.648  13.708  11.892  0.0277  0.1731 -0.1432
30892W        W47026   7.755   9.324   2.630 -0.1728  0.1131  0.1271
30893W        W47027   8.867   4.183  11.281  0.1223 -0.4595  0.2028
30894W        W47028  14.730  14.641   2.384 -0.3263 -0.4897  0.2103
30895W        W47029   8.871   7.447  10.041  0.3090 -0.1763 -0.1167
30896W        W47030   4.421   8.835   0.436 -0.1188 -0.1970  0.0486
30897W        W47031   3.717  15.495  14.049 -0.2223  0.0697  0.0120
30898W        W47032   1.378   5.620  13.057  0.3105  0.1097  0.1030
30899W        W47033  11.362   4.930  10.899  0.0510 -0.0366  0.1570
30900W        W47034  14.114   7.833  14.549 -0.3310  0.2272 -0.2603
30901W        W47035  14.911   8.442   4.417 -0.2857  0.0284  0.2920
30902W        W47036  10.353  13.474  11.905 -0.0532 -0.2641 -0.2345
30903W        W47037  14.861  16.164  12.954  0.1242  0.3622  0.1336
30904W        W47038  18.903   6.485  13.847  0.0997 -0.0002  0.1631
30905W        W47039   2.753   9.456   1.625 -0.3351  0.2776 -0.2575
30906W        W47040   4.762   1.867  13.174  0.2610  0.0380 -0.1290
30907W        W47041  11.855  18.163  10.235 -0.2050  0.1504  0.3127
30908W        W47042   5.520  10.554   1.066  0.1737  0.0688  0.1027
30909W        W47043   5.204  10.336   0.375  0.3430  0.5181 -0.3694
30910W        W47044   2.886   5.887  14.833 -0.0726 -0.0180  0.1696
30911W        W47045   3.195  14.169   1.783 -0.1093 -0.3280 -0.0886
30912W        W47046  11.112   2.070   0.893  0.2342 -0.1019  0.1375
30913W        W47047   7.015  13.891   3.274 -0.1406  0.0464  0.3229
30914W        W47048   3.551  16.767   0.251  0.2260 -0.1106 -0.1511
30915W        W47049   0.085   2.818   4.457 -0.3775  0.0404  0.0790
30916W        W47050  14.024   3.132   3.657  0.2060  0.1633 -0.0881
30917W        W47051   5.005  10.078  14.755  0.1008  0.0262  0.3117
30918W        W47052   8.141  17.599   0.439 -0.0730  0.2193 -0.1732
30919W        W47053   2.784   2.053  13.574 -0.0482  0.4552 -0.1660
30920W        W47054   0.028  17.716   0.457 -0.1039  0.2454 -0.2406
30921W        W47055  14.350  12.657   4.882 -0.0344  0.0228 -0.1540
30922W        W47056   6.584  14.425   3.797  0.2226  0.2191  0.0997
30923W        W47057  12.030  11.577   0.337  0.1892  0.1023 -0.1331
30924W        W47058   7.599   8.802   0.036  0.1721 -0.0047  0.1930
30925W        W47059  15.386  18.861   0.048 -0.2247 -0.2953  0.3540
30926W        W47060  14.619   5.917   1.532 -0.2459  0.0076  0.3273
30927W        W47061  18.391   1.083   3.824  0.1868  0.2259 -0.1148
30928W        W47062  16.111   1.412  11.253 -0.1236  0.0645  0.1407
30929W        W47063  17.376  17.397   3.886  0.0439  0.0739 -0.0485
30930W        W47064   1.521  18.049  14.569 -0.1184 -0.0767 -0.3562
30931W        W47065   8.410   1.568  12.617  0.0180 -0.0333  0.5709
30932W        W47066   8.068  11.676  14.054 -0.3520  0.1032  0.3299
30933W        W47067  12.076  13.999  14.677  0.0985  0.0744  0.0258
30934W        W47068   7.079   9.237   0.659  0.0238 -0.2480  0.1773
30935W        W47069  12.378   8.726   1.243 -0.1932 -0.1454  0.1097
30936W        W47070  17.442  14.301   1.836  0.2246  0.1139 -0.3224
30937W        W47071   4.007  13.962   2.899  0.0300 -0.2791  0.1519
30938W        W47072  17.917  13.287  10.186 -0.0541 -0.0957  0.1653
30939W        W47073   7.616   7.950   0.669  0.2003  0.1317 -0.3857
30940W        W47074   2.871   9.557  13.204  0.1052 -0.0844  0.1378
30941W        W47075  10.337  10.214   2.140 -0.2759 -0.1397 -0.1348
30942W        W47076  11.902  10.832  14.717 -0.1370  0.2465  0.2399
30943W        W47077   1.974  16.465   4.710 -0.1749 -0.0534 -0.2609
30944W        W47078   8.340  14.135  12.614 -0.0102 -0.1951  0.0220
30945W        W47079  10.901  15.427  10.557  0.2187  0.0004 -0.3348
30946W        W47080   7.191  16.886   3.168 -0.2366 -0.2923 -0.1397
30947W        W47081  14.727   4.559   1.835 -0.3184  0.1739 -0.2609
30948W        W47082  12.054   1.423  11.891 -0.1113  0.0389 -0.2225
30949W        W47083   7.601  17.227   2.631  0.2769 -0.2884  0.1951
30950W        W47084   7.867   0.246   3.038  0.2963 -0.0288 -0.1521
30951W        W47085   9.896   4.176   2.032 -0.3916  0.1023 -0.0428
30952W        W47086  16.723   3.349  13.086 -0.0670  0.0328  0.0936
30953W        W47087  10.307   8.019   4.645 -0.0695 -0.1044 -0.0778
30954W        W47088  13.991  10.421   2.495 -0.1111 -0.2222  0.0203
30955W        W47089  14.010  16.915  14.598  0.0914 -0.4709  0.2001
30956W        W47090  10.343   4.762  14.912  0.0005 -0.1158  0.2794
30957W        W47091  10.349  11.480   1.267 -0.2086 -0.2558 -0.0851
30958W        W47092   6.537  13.979   3.972  0.0318  0.0244 -0.0976
30959W        W47093   6.281   2.334  10.792 -0.2964 -0.0559 -0.1857
30960W        W47094   9.394  12.236  13.695 -0.1789 -0.0439 -0.2379
30961W        W47095  15.768  10.038   0.351 -0.0973  0.1976 -0.1627
30962W        W47096   8.927  11.318   5.312  0.2612 -0.1424 -0.1794
30963W        W47097   7.822   7.271  14.323 -0.0293  0.3365 -0.0777
30964W        W47098   4.996   8.713  13.605  0.0771  0.3092 -0.0735
30965W        W47099   3.877   0.595   5.467  0.2450  0.3094  0.0112
30966W        W47100  19.156  15.072   3.526  0.0149 -0.0903 -0.0403
30967W        W47101   5.128  15.281   2.897  0.0020  0.2983 -0.2022
30968W        W47102   2.531   7.316   1.742  0.1146 -0.1689  0.0222
30969W        W47103  17.621  15.346   2.050 -0.2671  0.0763  0.1817
30970W        W47104   5.728   7.858  10.535 -0.0947  0.3036 -0.2020
30971W        W47105   3.570  12.461   4.238  0.2330  0.1767  0.0721
30972W        W47106  11.737  13.827   0.663 -0.1618 -0.2789 -0.0197
30973W        W47107  13.344  16.474   4.073  0.0798 -0.1462 -0.1392
30974W        W47108   7.039  15.265   4.753 -0.1552  0.0349  0.2258
30975W        W47109  11.572  18.591   1.620  0.1140 -0.0532 -0.2582
30976W        W47110   3.693   9.484   0.501  0.0174 -0.0458 -0.0205
30977W        W47111  17.835  18.540   1.968  0.0610 -0.2340 -0.3414
30978W        W47112   6.139   4.157   1.743 -0.0637  0.0999  0.1720
30979W        W47113  13.807  14.847   0.010  0.1174  0.2943 -0.2079
30980W        W47114  15.098  11.192  14.440  0.0377  0.0487 -0.3325
30981W        W47115   2.162  14.953  12.475 -0.0976 -0.2162 -0.5582
30982W        W47116  14.079  11.674  13.067 -0.1167  0.1489 -0.2145
30983W        W47117  16.501   8.786   5.152  0.2279  0.4698  0.2458
30984W        W47118   5.220  17.093  13.934  0.0338  0.1711  0.3701
30985W        W47119   9.570   9.999   5.076 -0.1791  0.0539 -0.1327
30986W        W47120  14.332  16.524   4.507  0.0620  0.0259  0.4523
30987W        W47121   7.599   1.244   9.445 -0.2240  0.2475 -0.2412
30988W        W47122  16.534  15.458   5.254 -0.0913 -0.0613 -0.0254
30989W        W47123   4.145   2.401   2.704 -0.0995 -0.0644 -0.2385
30990W        W47124   5.691   6.066   1.732 -0.0080 -0.3502 -0.0470
30991W        W47125  10.179  15.672   3.540 -0.2458 -0.3130  0.1609
30992W        W47126   3.389   5.156  13.783  0.2153 -0.3320  0.0396
30993W        W47127   8.141  17.351  11.410  0.1752 -0.0495 -0.1804
30994W        W47128   1.295   6.818  14.929 -0.0390  0.3407 -0.0182
30995W        W47129  17.408   4.291  14.186  0.0359 -0.2530 -0.0910
30996W        W47130   4.391  16.584  14.418 -0.0849  0.0147 -0.3660
30997W        W47131   6.528   4.844  13.282  0.1723  0.1765 -0.1068
30998W        W47132   7.205   7.988   2.344  0.0770  0.1481  0.0145
30999W        W47133  13.675   6.790   0.523 -0.0506  0.1383  0.0351
31000W        W47134   2.138  10.708  10.551  0.4034 -0.0211  0.0228
31001W        W47135   6.224  18.428  11.187  0.1991  0.0805  0.0139
31002W        W47136   7.384   7.481   0.642 -0.0097  0.1349  0.0443
31003W        W47137   9.332  17.531   4.594  0.3302 -0.0065  0.0308
31004W        W47138   9.149   4.712  10.722  0.2001  0.1419  0.0095
31005W        W47139  16.040   8.195  12.571  0.0727 -0.0770  0.1072
31006W        W47140   0.704   5.212   2.390  0.2068 -0.0662 -0.1977
31007W        W47141   1.458  15.310   3.572  0.2737 -0.2093  0.1155
31008W        W47142  18.123  14.016   9.472 -0.0479 -0.2643  0.2344
31009W        W47143   2.629  10.871   9.735  0.3515 -0.0160  0.2567
31010W        W47144   1.156   4.637   4.286  0.0822 -0.2239 -0.1868
31011W        W47145  13.942   7.101  13.741  0.0136 -0.2020 -0.0576
31012W        W47146  14.535   5.216   3.773 -0.0666  0.1617 -0.2102
31013W        W47147   6.627  12.602  14.968 -0.0811  0.1529 -0.0052
31014W        W47148   2.312  11.790   2.694  0.0109  0.2329 -0.0247
31015W        W47149   6.531   0.709  14.053  0.2160 -0.1030 -0.0179
31016W        W47150   8.221   5.040   4.873  0.3280 -0.0085 -0.1075
31017W        W47151  10.219   6.361   0.238 -0.1316 -0.1266  0.0203
31018W        W47152  15.876  12.431  12.992 -0.0156  0.1139  0.4114
31019W        W47153  15.083  10.037  13.071  0.1007 -0.3503  0.0691
31020W        W47154   5.730   8.154   0.014  0.1112 -0.2394 -0.2524
31021W        W47155   4.950   0.110   3.652  0.0019  0.0581 -0.3123
31022W        W47156  11.953  13.241   2.237 -0.1136  0.0682 -0.1082
31023W        W47157  12.779   4.512   5.352  0.2111  0.1071  0.0330
31024W        W47158   2.190  18.993   3.560 -0.0824 -0.1583 -0.2591
31025W        W47159   3.498  16.602   1.014  0.0932 -0.3098 -0.0565
31026W        W47160  17.915  13.516   2.252 -0.0794  0.0705 -0.0542
31027W        W47161  15.634  10.375   0.005  0.1346 -0.3735  0.2528
31028W        W47162   1.545   1.950  13.926  0.2077  0.1501 -0.0283
31029W        W47163   5.450   9.451   2.816 -0.0992  0.4397  0.2151
31030W        W47164   6.155   5.448   1.426 -0.1346  0.1925 -0.1244
31031W        W47165   8.819  16.938   2.938  0.2932 -0.0237 -0.2549
31032W        W47166   1.255   2.168   4.435  0.1402  0.4568 -0.1395
31033W        W47167   4.355   2.129   0.899 -0.1255 -0.1594 -0.1385
31034W        W47168   9.594   1.747   1.915 -0.0985 -0.1253 -0.0504
31035W        W47169   4.673  11.975  13.619 -0.0210 -0.0180 -0.3443
31036W        W47170  13.582   6.135   9.617  0.2616  0.0846  0.1783
31037W        W47171  18.508  16.095  11.903 -0.2635  0.1534  0.0764
31038W        W47172   2.299   9.528  12.776  0.1382 -0.2161 -0.0742
31039W        W47173   3.135   2.251   3.139 -0.0737 -0.4716 -0.0779
31040W        W47174   6.568  12.887   3.044  0.3120 -0.2605 -0.1729
31041W        W47175   8.085   6.410   4.592  0.1211  0.0144 -0.0031
31042W        W47176   1.350   6.209   9.235  0.0074 -0.0943  0.1116
31043W        W47177  11.716  12.681   1.778  0.0646  0.2282  0.2615
31044W        W47178  18.230   8.640  13.787 -0.0110  0.1541  0.0570
31045W        W47179  13.586   7.002   1.280  0.0154 -0.0414  0.3373
31046W        W47180   0.809   3.979   2.048 -0.0701  0.2435 -0.0252
31047W        W47181   6.720  18.686   9.917 -0.2640  0.4404 -0.1500
31048W        W47182   6.524  13.628   4.687 -0.1153  0.0006 -0.4411
31049W        W47183   1.014  12.937  12.644 -0.1705 -0.1061 -0.2005
31050W        W47184   4.437  15.917   5.472  0.1142 -0.2553  0.0364
31051W        W47185   6.727   8.041  10.394  0.0468  0.4372 -0.2991
31052W        W47186  10.121  17.833  10.562  0.1305 -0.0879  0.0871
31053W        W47187   3.856  10.844  11.305  0.1818  0.1439 -0.1321
31054W        W47188   5.840   5.598   3.022 -0.0711 -0.1922 -0.3293
31055W        W47189   1.708  14.786   1.505  0.0733 -0.0615 -0.1323
31056W        W47190  11.028  14.946   5.390  0.3018 -0.2270  0.0037
31057W        W47191  17.236   3.428  11.445 -0.1524  0.2610  0.1947
31058W        W47192   5.748   7.888  12.245 -0.3446  0.0694 -0.2203
31059W        W47193  17.859  17.319   3.754  0.1906 -0.3465 -0.0737
31060W        W47194  16.006  17.990  12.605  0.1110 -0.3150  0.2931
31061W        W47195   8.758  13.208   1.624 -0.2638 -0.0405 -0.1443
31062W        W47196   2.221  18.535   1.260 -0.3866  0.1336  0.0681
31063W        W47197   5.977  17.318  14.677  0.1062  0.0839 -0.1520
31064W        W47198   9.046  12.758  11.591  0.0583  0.0511 -0.1129
31065W        W47199   1.847  16.911  14.637 -0.1010 -0.0652 -0.2217
31066W        W47200   3.950  14.397  11.838 -0.1506 -0.0872 -0.1871
31067W        W47201  17.411   2.953   2.382 -0.3295 -0.0021 -0.1614
31068W        W47202  17.160   3.226  12.239 -0.3606 -0.1169 -0.3541
31069W        W47203  10.762  12.879  12.247  0.0045  0.0696  0.2311
31070W        W47204  14.637   0.341  10.586 -0.1359  0.2782  0.0604
31071W        W47205   6.445   5.536   3.883 -0.2547  0.4446 -0.0379
31072W        W47206  13.553   7.834   5.432  0.2705 -0.0603 -0.0523
31073W        W47207   6.374   0.731  14.603  0.1978 -0.3075  0.0623
31074W        W47208  16.668   0.549   3.853 -0.0868 -0.1941 -0.2977
31075W        W47209   7.090  17.704  13.694  0.2336  0.1140 -0.0461
31076W        W47210   6.832   2.156  14.970  0.3032  0.0702  0.0144
31077W        W47211  11.588  16.164   2.288 -0.2485 -0.2146  0.1535
31078W        W47212  11.557  14.140  14.404  0.0090  0.1563 -0.0916
31079W        W47213  11.852   1.911  11.927  0.0060 -0.2439  0.0639
31080W        W47214   8.280  14.839   1.569  0.4198 -0.0159 -0.0253
31081W        W47215  18.588  19.013  14.851  0.0376 -0.3168  0.3951
31082W        W47216   0.589   2.873   5.647 -0.1560 -0.1128  0.2115
31083W        W47217  14.907  11.433  12.781  0.3857  0.3220  0.2106
31084W        W47218  14.649   3.428  10.822  0.0523 -0.1094 -0.3577
31085W        W47219   1.426  16.961   1.980 -0.2833  0.1818 -0.1342
31086W        W47220   7.592   4.822  12.500  0.1978  0.0590 -0.0157
31087W        W47221   6.767   7.229   3.264 -0.1197 -0.0043 -0.3380
31088W        W47222  17.027   8.851  11.905 -0.0010  0.1067 -0.1324
31089W        W47223   5.399  13.137   0.883 -0.3014  0.4289  0.1710
31090W        W47224  11.381  14.275   1.326 -0.0547 -0.4428 -0.0267
31091W        W47225   7.776   7.438  11.218  0.2254  0.2814 -0.0143
31092W        W47226   6.858  15.271  14.230 -0.2372  0.2522  0.0781
31093W        W47227   9.599  14.751  12.390  0.0257  0.0538 -0.2293
31094W        W47228  18.988  14.149  14.332 -0.0908  0.0766 -0.3469
31095W        W47229  15.161  12.300  14.492 -0.1153 -0.0814 -0.0947
31096W        W47230  17.093   0.742  12.133 -0.0978  0.1465 -0.3770
31097W        W47231   5.026   9.635   3.006 -0.0302 -0.0488  0.1229
31098W        W47232  17.796   9.833  10.676  0.0751  0.0223  0.1169
31099W        W47233  16.329   3.101   4.896  0.3977 -0.2226  0.0574
31100W        W47234   2.878   4.318  14.898  0.2224 -0.0645  0.0439
31101W        W47235   9.016   8.201  10.956  0.2240 -0.2017  0.0025
31102W        W47236   3.661   1.863  12.971  0.0071 -0.1625  0.1588
31103W        W47237  18.524   8.347  13.014 -0.0851  0.3695 -0.1781
31104W        W47238   6.100  13.440  14.819  0.0401  0.0522 -0.1929
31105W        W47239  16.212  16.517  14.668 -0.2393 -0.0964  0.1156
31106W        W47240  17.762  13.328   1.718  0.3678  0.0370  0.0631
31107W        W47241  12.459  14.176  14.150  0.2245 -0.0351 -0.1857
31108W        W47242  15.075  17.489   3.853 -0.0230  0.3090  0.1085
31109W        W47243  17.711  18.462  10.498  0.1842 -0.3419 -0.1546
31110W        W47244  18.185   5.315  12.036 -0.2071 -0.1013 -0.3655
31111W        W47245   7.775  16.569  13.481 -0.1770 -0.0329 -0.1344
31112W        W47246  15.777   2.046  14.693  0.4701 -0.0346 -0.2957
31113W        W47247  12.249   8.640  12.032  0.0107  0.1401 -0.1682
31114W        W47248   2.837  15.859  14.192  0.0118  0.1783 -0.1691
31115W        W47249   3.592   7.843   9.363 -0.2295  0.2067 -0.0163
31116W        W47250   4.054  16.527   0.925  0.1775  0.2316 -0.4264
31117W        W47251   4.260  15.449  13.046 -0.1083 -0.2803 -0.0399
31118W        W47252   3.135  15.642   5.847 -0.3087 -0.1981 -0.2248
31119W        W47253  13.605  15.565   1.159 -0.0718 -0.1704  0.0979
31120W        W47254   3.158  10.116  14.472  0.1085  0.2919  0.0115
31121W        W47255   2.691  11.600   2.997 -0.0585 -0.2137  0.2287
31122W        W47256   7.975  11.650  13.585  0.1030  0.1976  0.0514
31123W        W47257   0.509   2.351   3.210  0.1747  0.2203  0.2754
31124W        W47258   6.865   4.726   0.964 -0.2039  0.0548 -0.0575
31125W        W47259   5.654   6.980   3.108  0.0492 -0.0202 -0.1755
31126W        W47260   1.328  10.829  13.750  0.1666  0.0144 -0.0139
31127W        W47261   1.890  15.941   2.829  0.0676  0.0779  0.2368
31128W        W47262  16.543   0.491   1.038  0.0269 -0.0456  0.1191
31129W        W47263  15.219   1.852   0.243  0.4032  0.1697 -0.1939
31130W        W47264  14.710  17.532   5.258  0.0333 -0.1513  0.1932
31131W        W47265  10.380   9.930   3.773 -0.2399 -0.2009  0.2031
31132W        W47266  16.819   1.939   3.887  0.0161 -0.1983  0.1798
31133W        W47267   8.462   6.478   0.696 -0.0253 -0.5966 -0.1152
31134W        W47268  10.365  11.719   2.704 -0.0218  0.2622  0.2439
31135W        W47269   6.109   2.563  13.429 -0.5363  0.0002  0.2881
31136W        W47270   2.900   2.935   4.640  0.3140  0.2143 -0.3084
31137W        W47271   2.960   4.884  12.101 -0.3064  0.4122  0.0970
31138W        W47272   6.800   5.214   0.900  0.1216 -0.1418 -0.4729
31139W        W47273   8.511  11.094  12.453  0.0427  0.0015 -0.1353
31140W        W47274   3.241  14.707  11.408 -0.1764 -0.0648 -0.0618
31141W        W47275   6.803   0.963  14.381  0.1716 -0.2686 -0.0205
31142W        W47276  15.237  17.577   1.704 -0.0143  0.0320  0.1973
31143W        W47277  17.452   1.181   2.979 -0.4304  0.0761  0.1802
31144W        W47278   3.743  12.115   5.023  0.1678  0.0356  0.2189
31145W        W47279  13.653   0.190  11.408 -0.0484  0.1444 -0.2951
31146W        W47280   8.612  18.041   4.641  0.1546 -0.1370 -0.0086
31147W        W47281  16.494   2.741   4.553  0.2068 -0.2120 -0.1214
31148W        W47282  10.176   9.210   0.401  0.1311  0.0840 -0.0474
31149W        W47283  11.955  10.162   4.154 -0.0173  0.1685 -0.3314
31150W        W47284   5.144  16.558   0.998 -0.1675  0.1639 -0.0895
31151W        W47285   9.095  11.943  14.355  0.1332 -0.4127  0.3711
31152W        W47286  14.089  11.841   4.454 -0.0063  0.0975  0.1903
31153W        W47287  16.630   7.908   3.983  0.0608  0.1933 -0.1671
31154W        W47288  13.198  16.234  14.002  0.6747  0.2581 -0.4445
31155W        W47289  15.032  10.369   4.005 -0.1605 -0.4121 -0.1603
31156W        W47290   3.471  10.475   2.367  0.1546 -0.1501 -0.1792
31157W        W47291  12.147  12.770   2.661 -0.1932 -0.4718 -0.2735
31158W        W47292  17.391  10.505   1.351  0.0014  0.1286  0.0338
31159W        W47293  11.766  16.146  11.521 -0.1081  0.0152  0.0004
31160W        W47294   8.919   9.769  12.532  0.1444  0.4973  0.0614
31161W        W47295   7.653  16.542   0.725  0.1822  0.0365 -0.2784
31162W        W47296   1.594   4.460  10.710  0.3622 -0.0668 -0.1236
31163W        W47297   5.868   3.694  12.834  0.2931 -0.1078 -0.0036
31164W        W47298  13.004  12.553   4.750  0.0877 -0.0142 -0.1440
31165W        W47299  17.705   3.700   1.545 -0.0112  0.1563  0.0486
31166W        W47300   7.187   0.516   9.159 -0.0744 -0.2015 -0.2678
31167W        W47301   7.689  17.411  13.549  0.1869 -0.0184 -0.0442
31168W        W47302  17.813   0.328  11.506 -0.0577  0.0148 -0.3129
31169W        W47303  10.561   2.798  11.170  0.0362  0.5041  0.1598
31170W        W47304   0.358   6.372  11.320  0.2353  0.2091 -0.0244
31171W        W47305  11.011   4.319   1.544  0.0145  0.0166  0.2715
31172W        W47306   1.493  18.554  14.656 -0.2877  0.0071  0.0221
31173W        W47307  15.984  11.315  13.954 -0.0340  0.1384 -0.1788
31174W        W47308   2.943   6.045   5.257  0.3142  0.1433  0.1548
31175W        W47309   8.726   6.445  10.567 -0.0619  0.0972 -0.0638
31176W        W47310   8.212   9.776   1.420 -0.1387 -0.2554 -0.2785
31177W        W47311   9.841   1.951  12.686  0.1997  0.1723 -0.1873
31178W        W47312   0.710  18.923  14.056 -0.2024  0.0466  0.0471
31179W        W47313  14.312  13.104  10.984 -0.0225  0.3642 -0.1807
31180W        W47314  18.035  19.218  11.722 -0.0318  0.0740  0.1849
31181W        W47315  17.557   1.234  10.366 -0.0568 -0.0776  0.0324
31182W        W47316   4.749  18.832  12.112 -0.0405  0.2143 -0.0346
31183W        W47317   7.452   6.048  12.529  0.4786  0.0213  0.1211
31184W        W47318  13.961   5.060  12.235  0.1641  0.0714  0.1889
31185W        W47319   6.411   9.610   1.940  0.2902  0.1168 -0.1645
31186W        W47320   5.904   5.473   0.505  0.3461  0.4405 -0.1396
31187W        W47321   3.362  11.209  13.423 -0.0142 -0.0318 -0.0290
31188W        W47322  11.164  13.094   1.072  0.0981 -0.2052 -0.0770
31189W        W47323   8.318   5.873  15.002 -0.0782  0.2158  0.1706
31190W        W47324  13.232   3.595  10.580  0.0451 -0.1683  0.0940
31191W        W47325   9.245   8.276   0.827 -0.2239  0.0322  0.3266
31192W        W47326   2.155  12.272  10.809 -0.1479 -0.3662  0.3422
31193W        W47327   8.341   6.895   9.962  0.0905  0.0032 -0.0244
31194W        W47328  15.909  12.912   3.357 -0.0046  0.1396 -0.0828
31195W        W47329  16.262   9.174  13.979  0.1681 -0.0236 -0.2018
31196W        W47330  13.654   0.610   0.992 -0.0578  0.2378 -0.1862
31197W        W47331   1.550   7.064  12.568 -0.0389  0.0948 -0.0328
31198W        W47332   1.403   2.810  10.857  0.1328 -0.0911  0.3004
31199W        W47333  15.570   8.338  12.768  0.1293 -0.1435  0.1520
31200W        W47334  10.557  16.573   5.976  0.1308 -0.3266 -0.0617
31201W        W47335   3.714   7.043  13.231  0.0259 -0.0156  0.0249
31202W        W47336   2.228   2.236  11.883 -0.3405  0.2046 -0.1652
31203W        W47337  18.316  12.378  14.847  0.3347  0.0815  0.0467
31204W        W47338  14.003  14.056   2.597  0.2631  0.3245  0.2136
31205W        W47339  12.337   9.047  11.740  0.3671  0.1155 -0.3455
31206W        W47340  14.568  11.890   4.296  0.1699 -0.0039  0.2100
31207W        W47341   7.919  18.235  10.889  0.0285 -0.0778  0.3548
31208W        W47342  14.028   1.414  13.510  0.1382  0.2010  0.0392
31209W        W47343  10.522  18.495   0.533 -0.0978 -0.2419 -0.1991
31210W        W47344   1.736   6.275  13.849  0.0497 -0.0856 -0.0391
31211W        W47345  14.706   4.876   5.740 -0.0759 -0.0607  0.0279
31212W        W47346   0.755  14.747   3.014 -0.3562 -0.2702 -0.5349
31213W        W47347   0.406  18.758   1.995  0.0432 -0.0577 -0.0270
31214W        W47348  14.682  16.982   2.215 -0.0466  0.1361 -0.0601
31215W        W47349  15.159  13.285   2.257 -0.0210 -0.2442 -0.1449
31216W        W47350   1.808  18.653  13.574  0.3643  0.0770 -0.0470
31217W        W47351  11.435   2.758   1.740 -0.1458 -0.0473 -0.0790
31218W        W47352   0.704   6.068  14.488 -0.2816  0.2560  0.0053
31219W        W47353  12.062   8.860   4.450  0.1209 -0.0146 -0.3650
31220W        W47354  10.128  14.532  14.257 -0.0366 -0.0198  0.4916
31221W        W47355   2.632  13.707   5.186 -0.3894 -0.1799 -0.1263
31222W        W47356  13.241  13.712   1.282 -0.0956 -0.1875  0.1845
31223W        W47357   7.114  15.196   2.153 -0.1816  0.3456  0.3738
31224W        W47358   6.336   0.855   2.565 -0.2149 -0.0049 -0.0898
31225W        W47359   4.475   5.026  12.650 -0.0107  0.1129 -0.1069
31226W        W47360  12.911   9.110  11.804  0.0434  0.2229  0.4450
31227W        W47361   7.604  11.452   3.516 -0.4832  0.0422  0.0056
31228W        W47362   1.140  14.700  10.098  0.1035  0.0140 -0.1107
31229W        W47363  19.003  13.798   2.649  0.1111 -0.0298  0.1420
31230W        W47364   9.929   6.773  10.115 -0.0628 -0.0563 -0.0710
31231W        W47365  17.651  12.166  12.349 -0.2684  0.2734 -0.1222
31232W        W47366  11.245  10.914  12.724 -0.0379 -0.4314 -0.1923
31233W        W47367  16.338   4.542  14.881 -0.0216 -0.1347  0.1931
31234W        W47368  19.069  11.385   2.861 -0.0295  0.0209 -0.0403
31235W        W47369   4.747   6.876   0.345 -0.0417 -0.3503 -0.0087
31236W        W47370  10.602   0.094   2.792 -0.1494 -0.1474  0.2740
31237W        W47371   3.300  13.307  14.769  0.4615 -0.1216  0.0724
31238W        W47372   3.018  10.252   1.453 -0.1520 -0.1026  0.1114
31239W        W47373  18.841  16.769  13.884 -0.1848  0.0599  0.1454
31240W        W47374   0.958  18.609   4.071  0.0374  0.1341  0.1215
31241W        W47375  14.633  18.407   1.049 -0.0229 -0.1976  0.4752
31242W        W47376  15.541   3.797   4.555  0.3070  0.0302  0.2179
31243W        W47377  14.831  13.264  13.204 -0.1227  0.0183  0.3211
31244W        W47378  17.738   9.131   4.630 -0.0189 -0.3164  0.4525
31245W        W47379   9.927   4.521  13.582  0.0615 -0.0855 -0.0013
31246W        W47380  13.388  11.544   4.724 -0.1089  0.1080  0.1298
31247W        W47381   3.764  15.842  12.064 -0.1621  0.0053 -0.2541
31248W        W47382   1.327   8.656  12.470 -0.2358 -0.1614 -0.2687
31249W        W47383   4.827  14.818   1.399 -0.0756 -0.1571  0.2862
31250W        W47384  11.970   6.737  12.312 -0.1735 -0.0914 -0.1710
31251W        W47385  15.972   0.575   2.583 -0.1957 -0.4033  0.0312
31252W        W47386  15.995  15.913   3.866  0.0542 -0.1034  0.0494
31253W        W47387  10.565   4.341   4.139  0.0706  0.0244 -0.0993
31254W        W47388   1.702   6.925   0.914  0.0409  0.0458  0.4057
31255W        W47389  15.210  16.617  11.582 -0.0442  0.1536  0.2703
31256W        W47390   7.187   9.823  12.384 -0.2858  0.0691 -0.0559
31257W        W47391  15.120  15.700  10.461 -0.1017 -0.0877  0.1659
31258W        W47392  11.730  14.101   1.095 -0.1944 -0.2660  0.1495
31259W        W47393   9.016   2.523   3.313 -0.1729 -0.0801  0.1124
31260W        W47394   6.313  17.949  11.132  0.0489  0.0334  0.1841
31261W        W47395   4.898  15.315   3.368  0.1021 -0.1009  0.0862
31262W        W47396  11.333  19.123   0.176  0.2155 -0.1006 -0.0564
31263W        W47397  19.085  17.646  11.399 -0.0602 -0.0503  0.1447
31264W        W47398  18.717   8.522  11.294 -0.1569 -0.1993  0.0369
31265W        W47399   7.533  13.468  13.347 -0.0875 -0.0570 -0.2864
31266W        W47400  14.319  19.195   0.803 -0.0815 -0.0528 -0.1031
31267W        W47401  14.246   6.821   1.897 -0.0660 -0.0861 -0.3076
31268W        W47402  16.186   4.979   3.135 -0.1596  0.0556  0.1491
31269W        W47403   3.880   1.941  14.219 -0.1814 -0.4011  0.3287
31270W        W47404  18.811  10.472  11.795 -0.2288  0.4032  0.4692
31271W        W47405  15.389   4.784   4.776  0.1634  0.1420  0.1409
31272W        W47406  12.887   6.697  12.351  0.1566 -0.2873  0.1488
31273W        W47407   7.930   8.237  10.164 -0.0381  0.0059 -0.2355
31274W        W47408  11.170   9.970   4.822  0.1880  0.0433 -0.2437
31275W        W47409   0.910  18.875  14.931  0.0043  0.0797  0.2761
31276W        W47410   1.755   2.527   1.932  0.0069  0.1861 -0.0158
31277W        W47411   7.134   1.939   4.545  0.4037  0.0525  0.0396
31278W        W47412   6.654  12.137   0.660 -0.2874  0.0709  0.0872
31279W        W47413   4.053   5.487   3.650  0.0117 -0.2170  0.0908
31280W        W47414  16.631   3.788  14.954  0.1149 -0.1170  0.0822
31281W        W47415  13.081   8.517   0.566  0.3550  0.2326  0.1167
31282W        W47416   2.201  10.507   4.322  0.0421  0.3991  0.0653
31283W        W47417  10.455  17.376   2.084 -0.0442 -0.2016  0.1745
31284W        W47418   1.970  14.571  12.762  0.2594 -0.0985  0.2096
31285W        W47419   1.113  10.553   2.801 -0.2769 -0.1724  0.0564
31286W        W47420   9.342  16.822   0.271 -0.0467 -0.3789 -0.2087
31287W        W47421  15.787   1.865  10.631 -0.3344 -0.0715 -0.0737
31288W        W47422   3.494  16.272  11.872  0.1742  0.4039  0.3863
31289W        W47423   2.763  13.241   1.333  0.1000  0.0372  0.3673
31290W        W47424  15.140  12.212  12.324  0.2012 -0.0215 -0.1937
31291W        W47425   2.583  18.370   2.988 -0.0442  0.0182  0.2417
31292W        W47426   9.213   7.517   0.327  0.0859  0.2311 -0.0975
31293W        W47427   3.163   0.171   3.773  0.0563 -0.0468  0.0135
31294W        W47428   8.079  15.093   4.657 -0.1366 -0.2301  0.1076
31295W        W47429  19.143   1.147   5.163 -0.2016 -0.3332  0.5856
31296W        W47430   6.193   9.298   3.220  0.1642  0.1413 -0.2321
31297W        W47431  11.533  14.935  12.886 -0.1086  0.0743  0.1967
31298W        W47432  15.223  10.585   3.605  0.2288  0.0019 -0.2483
31299W        W47433   2.790  18.547  13.888 -0.3457  0.0550 -0.2016
31300W        W47434  10.396  11.782   0.423  0.1658 -0.0072  0.0839
31301W        W47435  10.365  14.763   3.407 -0.1806  0.4043  0.0139
31302W        W47436   6.253  11.512   3.329 -0.1126  0.0547 -0.1160
31303W        W47437  18.924   9.274   3.526  0.0772  0.2176 -0.2208
31304W        W47438   6.072   6.077  13.136 -0.2099 -0.0645  0.0423
31305W        W47439   9.846  13.700   4.104 -0.1418 -0.0529 -0.1259
31306W        W47440   1.499   4.797  11.632 -0.1174  0.1432 -0.0098
31307W        W47441  17.017  13.349  12.697 -0.1605 -0.4603  0.2718
31308W        W47442   8.678   5.938  14.543 -0.0366 -0.2527 -0.3227
31309W        W47443  11.014   6.426   5.208  0.1072  0.1337 -0.2006
31310W        W47444   8.935  19.226   5.176  0.0506 -0.0098  0.1716
31311W        W47445  15.357  12.823   0.695  0.0003 -0.0094  0.2826
31312W        W47446   1.655   4.855   3.489  0.0162 -0.1162 -0.1718
31313W        W47447  12.468   0.283   1.815  0.1937  0.0325  0.0490
31314W        W47448   7.701   8.100  11.950  0.0291 -0.1880  0.1509
31315W        W47449   9.107  15.377  10.626  0.3109  0.2032  0.1192
31316W        W47450   9.860  16.408  11.112  0.0046 -0.1173 -0.0215
31317W        W47451   3.344   1.561  12.629  0.1330 -0.0465 -0.2750
31318W        W47452  14.101  19.199   2.634 -0.2002  0.1051  0.1992
31319W        W47453  10.379  12.216   2.469 -0.3951 -0.1663  0.0107
31320W        W47454   3.889  11.472   9.470 -0.0809  0.3936 -0.2439
31321W        W47455  15.260  18.598   1.493 -0.1284 -0.1194  0.2876
31322W        W47456  17.427   1.996   1.360  0.0736 -0.2016  0.2949
31323W        W47457  16.134  13.704  11.106  0.0709  0.0998 -0.2800
31324W        W47458  10.617   2.217   0.342  0.1105 -0.3450  0.0143
31325W        W47459  13.898   5.015  13.857 -0.0704 -0.2878 -0.0083
31326W        W47460  12.270   8.628  11.320  0.2415  0.0119 -0.2129
31327W        W47461   8.802  18.798   3.016 -0.1387 -0.3531  0.1464
31328W        W47462   8.244   3.018   3.731 -0.2982  0.0504 -0.0181
31329W        W47463   1.100  11.517   3.496  0.2536 -0.1501  0.1290
31330W        W47464   9.719  17.597   1.454  0.0616 -0.2363 -0.1661
31331W        W47465  16.606  17.711   4.440  0.0479  0.4288 -0.5405
31332W        W47466   3.081   5.147   4.941 -0.2360  0.0315 -0.0876
31333W        W47467   1.390  14.524  14.915 -0.0001 -0.3091 -0.1046
31334W        W47468  18.111  13.940   3.956  0.0749  0.0369  0.0632
31335W        W47469   3.385  17.806   0.415 -0.1798  0.2969  0.1453
31336W        W47470   1.022  17.915   2.875 -0.1474 -0.2601 -0.1000
31337W        W47471   3.796   3.609  12.706  0.1132 -0.0069 -0.0780
31338W        W47472   8.074   9.431  14.502 -0.0702  0.1193  0.1493
31339W        W47473   9.391   5.075   1.987  0.0546  0.1563 -0.0158
31340W        W47474   2.180   9.648   4.563  0.3344  0.0566 -0.1117
31341W        W47475  17.855   5.627  11.787 -0.0525 -0.3614 -0.4921
31342W        W47476   9.685   6.392  12.002 -0.4110 -0.0851 -0.0377
31343W        W47477   8.116  11.649   3.412  0.3057 -0.2010 -0.1542
31344W        W47478  17.885   8.065  14.350  0.1099 -0.0077  0.2228
31345W        W47479   7.568  13.062   5.059  0.1411 -0.0098 -0.1669
31346W        W47480   5.351  12.739   2.268  0.2194 -0.0176 -0.0599
31347W        W47481  10.704   9.191   4.189 -0.1022 -0.0645 -0.1388
31348W        W47482   6.968  19.090  12.817  0.5194 -0.0407 -0.1598
31349W        W47483   1.218  12.625  12.303 -0.1617 -0.1266  0.0939
31350W        W47484   1.129  17.664   1.772  0.2348  0.0010 -0.2798
31351W        W47485   8.372  14.709   2.593  0.2261 -0.0614 -0.0125
31352W        W47486  15.142   7.225   1.632 -0.2858 -0.0896 -0.0652
31353W        W47487  18.885  18.398   4.091  0.1423  0.0338 -0.0299
31354W        W47488  12.381   7.256  14.255  0.1135 -0.2226  0.1088
31355W        W47489  15.241   2.763   0.711 -0.0691  0.2938 -0.2179
31356W        W47490   7.529   4.570  12.916  0.3553 -0.0010  0.0332
31357W        W47491  12.984  14.320   4.482  0.2867  0.1570 -0.0184
31358W        W47492   0.990   6.706   3.457  0.1442 -0.0782  0.0099
31359W        W47493   9.432   1.755   2.386 -0.0103 -0.6425  0.1171
31360W        W47494   3.260   7.918   2.700  0.1042 -0.1973  0.1883
31361W        W47495  12.201   0.757   3.221  0.2380 -0.1493 -0.1208
31362W        W47496  13.449  15.491   4.456  0.1469  0.2012 -0.0698
31363W        W47497  12.383   0.206  13.252  0.2282  0.0165  0.3782
31364W        W47498   4.192   8.583  11.158  0.1088  0.1706  0.1141
31365W        W47499  15.764   1.262  11.815  0.1443  0.1618  0.2292
31366W        W47500   8.212   9.033   2.797 -0.0004 -0.2790  0.6810
31367W        W47501   0.240   2.254  12.424  0.2051 -0.0245  0.0092
31368W        W47502  11.525  12.215  15.000 -0.0690 -0.1626 -0.0536
31369W        W47503  14.650   0.013  12.108 -0.1063 -0.4601  0.1969
31370W        W47504   6.496   0.382   2.905 -0.0633  0.1939 -0.0147
31371W        W47505   3.697  18.414   1.416  0.0272 -0.2056  0.0740
31372W        W47506   1.142  14.371   3.245  0.2506 -0.2641  0.2500
31373W        W47507   3.316  12.833  11.876  0.0631  0.0992 -0.2589
31374W        W47508  19.191  12.788  13.171  0.0453 -0.2213 -0.0209
31375W        W47509  10.582   4.622   2.744  0.3434 -0.4439 -0.1612
31376W        W47510  18.477   0.394   1.358  0.0006  0.2541 -0.0655
31377W        W47511   4.906  15.177  14.273  0.1104 -0.0499  0.0102
31378W        W47512   5.391   2.597  14.478 -0.0124 -0.0284 -0.3349
31379W        W47513   1.425   3.071  14.594  0.4602  0.1448 -0.1614
31380W        W47514  13.293  18.538   1.253 -0.3912  0.2246 -0.3811
31381W        W47515  17.463   8.757   3.773  0.2376  0.1971  0.0753
31382W        W47516   3.074   2.803   1.490 -0.1520  0.0699  0.2757
31383W        W47517  17.463   1.098  14.439 -0.1821  0.4679  0.2005
31384W        W47518   1.388   0.767   4.057  0.0471  0.1207 -0.3112
31385W        W47519  12.258   8.096  14.585  0.3596  0.3938  0.1417
31386W        W47520   5.547   8.984   3.838 -0.0651 -0.1939 -0.3476
31387W        W47521  15.856   5.982   1.370  0.0680 -0.1992 -0.0874
31388W        W47522  17.371  11.718  11.075 -0.0533  0.1791 -0.2267
31389W        W47523   3.565  17.320   3.231  0.3788 -0.1948  0.1035
31390W        W47524   4.300   2.494   0.254 -0.1603  0.1650 -0.1091
31391W        W47525   5.985   9.056   4.586 -0.0745  0.2878  0.2166
31392W        W47526  13.009  17.273  13.717  0.0653 -0.0255 -0.3342
31393W        W47527   0.928   0.560   1.967 -0.1700 -0.0667  0.3129
31394W        W47528  10.649   0.419  11.131 -0.0884 -0.0445 -0.2647
31395W        W47529  18.453   6.092  11.960  0.0095 -0.1443  0.1626
31396W        W47530   9.231   0.831   2.193  0.0191 -0.0592 -0.3757
31397W        W47531   4.211   1.752   3.519  0.0957  0.0750  0.2192
31398W        W47532   0.271   0.678   4.883  0.0793  0.1532 -0.1621
31399W        W47533  15.444   6.368  13.665  0.1411  0.3521  0.0299
31400W        W47534   6.342  14.576   3.322  0.3837  0.1659 -0.0226
31401W        W47535   6.748   9.172   1.862  0.2095 -0.2529 -0.0264
31402W        W47536  17.969  14.350   0.205 -0.4837 -0.3976 -0.1012
31403W        W47537  14.236  12.129   4.925  0.0034 -0.1057  0.1990
31404W        W47538  15.768  17.080  10.045 -0.2829  0.3548  0.3657
31405W        W47539   1.294   6.507   3.842 -0.1081  0.0517  0.1983
31406W        W47540   7.168   8.081   5.020  0.1527  0.0012  0.2163
31407W        W47541   7.567   0.121   1.160  0.0023  0.0854 -0.1435
31408W        W47542  17.211  12.342  11.615 -0.0459 -0.1850  0.0941
31409W        W47543  18.559  13.059   5.686 -0.1386  0.1232  0.3020
31410W        W47544   6.972   5.599  10.244 -0.4393  0.0143 -0.0203
31411W        W47545   3.480  11.157   0.281 -0.4159 -0.1928 -0.1235
31412W        W47546   3.397   0.789  14.097 -0.0021 -0.2717 -0.0695
31413W        W47547  13.802  11.390  14.691 -0.0073 -0.1257  0.1365
31414W        W47548  15.508  17.473   0.958 -0.0757  0.2368 -0.2394
31415W        W47549   6.428   5.273   0.454  0.2368  0.2377 -0.0566
31416W        W47550   0.905   7.693   3.638  0.0200  0.0518  0.0887
31417W        W47551   3.617   0.799   1.919 -0.2385  0.1054 -0.2263
31418W        W47552   0.743  13.475  10.976 -0.1679  0.0892  0.0507
31419W        W47553  18.965  15.964  13.599  0.2749 -0.0082 -0.0254
31420W        W47554  11.527   3.922   2.157 -0.0122  0.0967  0.2670
31421W        W47555  12.035  11.602  13.313  0.1889 -0.1795 -0.1651
31422W        W47556  10.589  16.152   0.799 -0.1089 -0.0422  0.1843
31423W        W47557  13.258   3.962   2.041  0.2492 -0.0598 -0.2968
31424W        W47558  14.982   9.032  13.774  0.0982 -0.1706  0.2195
31425W        W47559   4.733  12.935  13.670  0.0987 -0.4106  0.1451
31426W        W47560   0.158   1.366   4.751 -0.2521 -0.2082 -0.0954
31427W        W47561  17.145  12.272   2.806  0.0240 -0.3219 -0.0895
31428W        W47562   8.993   2.045   0.721  0.0420  0.2736 -0.0200
31429W        W47563  16.120   7.808  11.421  0.3164 -0.4515  0.2253
31430W        W47564  17.795   4.062  10.247  0.1679 -0.1001  0.2159
31431W        W47565  10.936   5.817   2.597  0.2591 -0.0436 -0.5408
31432W        W47566  10.421   0.191   2.230  0.0932  0.0277 -0.0432
31433W        W47567   4.705  15.703  10.875  0.4136 -0.4765 -0.2363
31434W        W47568   9.737  11.719   5.400  0.0339 -0.2937 -0.1431
31435W        W47569  18.118  13.249  13.083  0.0573 -0.1889  0.0101
31436W        W47570   1.084   7.891  12.731  0.2586 -0.0753 -0.1492
31437W        W47571  18.036  14.049  14.103 -0.2048  0.1647  0.1410
31438W        W47572  11.293  11.324  14.032  0.1512 -0.1517 -0.2964
31439W        W47573  13.203  14.892   3.617  0.0566 -0.0096  0.2444
31440W        W47574   4.298   0.422   9.994 -0.0279  0.0054  0.4631
31441W        W47575  10.827   4.825   0.629  0.2586 -0.3003 -0.0583
31442W        W47576  12.001   6.994   3.096  0.0203  0.1079  0.1638
31443W        W47577   8.322   9.737  10.431  0.0589  0.1988 -0.1135
31444W        W47578  17.408   9.397   2.253  0.3993 -0.4313 -0.1957
31445W        W47579  15.764   9.950  13.592 -0.0232  0.3730  0.0207
31446W        W47580   3.425   5.764   0.989  0.1200  0.1965 -0.2249
31447W        W47581  18.103   1.951  13.636  0.2959  0.1166  0.1072
31448W        W47582  17.455  10.816   4.236 -0.1055  0.0526  0.2678
31449W        W47583   8.669  10.743   2.706  0.1179 -0.1411 -0.0898
31450W        W47584   9.252  11.115   1.629  0.0699 -0.1053 -0.1770
31451W        W47585   0.017   7.565  11.258 -0.0958 -0.0420 -0.2357
31452W        W47586   0.627   9.806   2.901  0.1481 -0.0366  0.0873
31453W        W47587   0.603   4.710   5.102 -0.1051  0.1210  0.0168
31454W        W47588  12.427   2.445   9.550  0.1840  0.0925  0.1561
31455W        W47589   4.869   6.186   4.446 -0.2104 -0.0426 -0.0111
31456W        W47590   7.732   9.926   9.456  0.0568 -0.4009 -0.2464
31457W        W47591   5.599   8.845   1.104 -0.0489 -0.1112  0.0851
31458W        W47592   5.465  16.165  12.638  0.0264 -0.2996 -0.1451
31459W        W47593   7.247  15.554  14.450  0.1640  0.0966  0.0544
31460W        W47594   7.363  11.966   4.133 -0.0051  0.5567 -0.0790
31461W        W47595   9.388   3.047   2.675  0.1927  0.4376  0.2236
31462W        W47596   6.019   7.598   2.306 -0.0438  0.2015 -0.1751
31463W        W47597  12.500  16.961   3.786 -0.0246  0.2736  0.0306
31464W        W47598  10.044  11.920  14.568  0.1674  0.1124 -0.3863
31465W        W47599   3.724   4.497   5.119  0.0549  0.1819 -0.0090
31466W        W47600  14.850   0.351   3.997 -0.0637 -0.0402 -0.1618
31467W        W47601  15.874   6.144   4.001  0.0057 -0.2393  0.1909
31468W        W47602   7.347  11.233   0.062  0.0495  0.2131 -0.0491
31469W        W47603  12.960   2.293   4.161  0.0407 -0.0997  0.1576
31470W        W47604   7.939   6.232   3.224 -0.1580 -0.0487 -0.0477
31471W        W47605   6.366  12.380  11.880 -0.1603 -0.1117  0.1789
31472W        W47606   4.389  16.537  13.101 -0.3292 -0.0292 -0.0725
31473W        W47607  13.338   6.570  12.385  0.1556  0.2565 -0.1185
31474W        W47608  14.930   3.370   0.573 -0.4597 -0.2792 -0.2184
31475W        W47609   1.597  10.998   4.376  0.0929 -0.0208  0.2527
31476W        W47610   1.644   5.012   4.987  0.4184 -0.2590 -0.0248
31477W        W47611  15.158   5.708  10.038  0.0340 -0.0774  0.1182
31478W        W47612  16.008  17.457  11.753  0.3725 -0.1266 -0.1048
31479W        W47613   5.092   9.886  13.165 -0.3027 -0.0793 -0.2309
31480W        W47614   1.455  16.345   0.710  0.0090 -0.3283  0.0296
31481W        W47615  13.350   3.476   4.312  0.1596  0.0961  0.1782
31482W        W47616   1.453   1.174   4.382 -0.2102 -0.0877 -0.1926
31483W        W47617  16.252  11.243   0.130  0.2971  0.1199 -0.1135
31484W        W47618   0.055  10.248  12.069 -0.2087 -0.0087  0.0755
31485W        W47619   8.156  17.495  13.429  0.2617 -0.0409 -0.0405
31486W        W47620  10.021  18.805  12.065 -0.4199  0.1148  0.1698
31487W        W47621   0.893   6.507  14.868 -0.2377 -0.1278  0.0276
31488W        W47622   9.580   8.669  14.986  0.3758  0.0331  0.2104
31489W        W47623   7.451   2.705  12.757 -0.2775  0.1345 -0.1858
31490W        W47624   5.636   2.074  14.655 -0.3131 -0.0469  0.0364
31491W        W47625  10.176   3.529  14.463 -0.0983  0.0926 -0.0550
31492W        W47626  13.125  10.856   4.190 -0.1877  0.1600 -0.0933
31493W        W47627   8.818   4.690  11.057  0.3508  0.0281 -0.2010
31494W        W47628   1.502   4.526  14.327  0.1266 -0.0375 -0.1667
31495W        W47629  13.822  15.573   2.697 -0.0082  0.0365 -0.0675
31496W        W47630  11.675   0.199  12.296  0.4555  0.2034 -0.0440
31497W        W47631  10.604   3.658  12.543 -0.2359  0.1077 -0.0870
31498W        W47632   6.795   9.119   9.194  0.1256  0.0985  0.1093
31499W        W47633  12.290  16.645   4.826  0.0051 -0.1143  0.2891
31500W        W47634   1.609   0.017  11.985 -0.0946 -0.0035  0.0236
31501W        W47635   2.185  16.806  10.974 -0.1365  0.2318  0.0345
31502W        W47636  16.926   5.443   0.665 -0.1536 -0.0365 -0.0744
31503W        W47637   1.114   7.710  12.213 -0.2167  0.0312 -0.0254
31504W        W47638   7.394  12.522   4.709  0.2863 -0.1377  0.2528
31505W        W47639   0.503  13.543   3.084 -0.0310  0.2562 -0.2229
31506W        W47640   4.165  15.265  14.868  0.0699  0.0681  0.4713
31507W        W47641   2.802  14.384   5.359 -0.0265 -0.0279  0.0631
31508W        W47642   6.128  15.247   1.518  0.1930 -0.1185 -0.2448
31509W        W47643   2.340  18.963  14.934  0.1423 -0.1138  0.1110
31510W        W47644  16.348   5.904  13.670 -0.0946  0.1805 -0.1277
31511W        W47645   7.576  15.024   2.378  0.1534  0.2427  0.2470
31512W        W47646   5.153  16.561  11.970 -0.0479  0.2140 -0.2234
31513W        W47647   5.939  15.689  10.824  0.0146 -0.1680 -0.4632
31514W        W47648  17.391   8.820  15.034 -0.0916  0.0858 -0.0182
31515W        W47649   0.084  16.246   1.079  0.1781  0.0529  0.2559
31516W        W47650  17.602   6.838   4.093 -0.0594 -0.0737 -0.0693
31517W        W47651   0.068   2.016   9.811  0.2125 -0.1685  0.0705
31518W        W47652  15.295   6.268  12.490 -0.0743  0.1171  0.4702
31519W        W47653  16.419   6.616  14.878  0.1311 -0.0308 -0.0345
31520W        W47654   3.521  12.923   2.128 -0.0321 -0.0536  0.2866
31521W        W47655   3.178  14.309   2.511 -0.2488  0.1009  0.2307
31522W        W47656   2.464  17.925   4.649  0.1063 -0.1618  0.0477
31523W        W47657   8.113   5.502  11.051  0.0806 -0.0905 -0.1802
31524W        W47658  17.894  13.411   0.107  0.3005  0.1351  0.0981
31525W        W47659  11.572   7.953   0.672  0.0195 -0.2703 -0.2869
31526W        W47660   2.882  18.828   3.276 -0.0458  0.0525  0.2887
31527W        W47661   9.260  10.541   1.828 -0.0235  0.1233 -0.0765
31528W        W47662   2.149  13.701   5.677  0.2096  0.0069 -0.0646
31529W        W47663   3.412   3.986  12.844  0.0071 -0.0293 -0.1514
31530W        W47664   1.818   3.952   1.601  0.0163 -0.2434  0.1252
31531W        W47665   2.849   6.610  14.299  0.2991  0.4093  0.1047
31532W        W47666   3.844   7.227  11.948  0.2005 -0.0185  0.0456
31533W        W47667  13.049   2.206   4.674 -0.1413 -0.0363 -0.0156
31534W        W47668   0.492  15.689  14.541  0.0323  0.0642  0.2912
31535W        W47669  11.199  18.230   4.517  0.3280 -0.2284  0.1228
31536W        W47670   3.499  10.407  11.333 -0.0169  0.0378 -0.0253
31537W        W47671   1.454  14.014   1.422 -0.0800 -0.0329  0.0747
31538W        W47672   1.017   9.209   4.487 -0.2807  0.0679  0.1265
31539W        W47673   7.417  15.709   0.802 -0.0847 -0.1263  0.1873
31540W        W47674  13.387   0.662  10.690 -0.1344 -0.1008  0.3455
31541W        W47675  17.764   4.173   1.383 -0.3167 -0.1689 -0.0746
31542W        W47676   6.204   1.264  14.643 -0.0873  0.0130  0.0528
31543W        W47677   4.913   1.350  11.623  0.0918  0.1975  0.2808
31544W        W47678  12.344   6.691   3.588  0.2543  0.0702  0.2442
31545W        W47679  15.694   1.254  13.744 -0.1938  0.0331 -0.0055
31546W        W47680   4.474  11.227  11.621 -0.1578  0.1054  0.2949
31547W        W47681  13.723  13.883   5.257  0.3613  0.2051  0.0878
31548W        W47682  16.720  12.490  12.367  0.1281  0.2775 -0.0656
31549W        W47683  15.895  17.716  14.638  0.0397 -0.0461  0.1329
31550W        W47684  13.390   1.802  14.216  0.1573  0.0728 -0.0264
31551W        W47685  17.941  10.399   0.144 -0.2013 -0.1227  0.0649
31552W        W47686  10.981   3.831  12.910  0.2185  0.1514  0.1241
31553W        W47687   1.565  18.172   0.047  0.2384 -0.0880 -0.0755
31554W        W47688  17.509   3.654  14.585  0.3199 -0.1601  0.4068
31555W        W47689  17.090  15.232  11.295 -0.0220  0.1695  0.2652
31556W        W47690   7.227   1.674   2.777  0.0413 -0.3418 -0.0897
31557W        W47691  17.673  14.604  14.873  0.2035  0.0346  0.3957
31558W        W47692  14.700   4.944  12.680 -0.2099 -0.2580  0.0592
31559W        W47693   9.460  14.252  12.412 -0.2639 -0.0880  0.0258
31560W        W47694  15.787  12.127   1.057  0.2708 -0.1414 -0.0293
31561W        W47695   9.402   7.159  14.859  0.1122 -0.1174 -0.1240
31562W        W47696   3.068  10.829   2.201  0.0367 -0.0147 -0.0090
31563W        W47697  18.672  16.078   1.113  0.2206 -0.4207 -0.2550
31564W        W47698   1.991   3.718  13.019 -0.0003  0.2100  0.2814
31565W        W47699   7.432   7.408  14.800  0.1184  0.0567 -0.1297
31566W        W47700   8.774   8.888   1.478  0.1179  0.1092 -0.2939
31567W        W47701   2.702   2.378   3.259 -0.0327 -0.4504 -0.2420
31568W        W47702   1.717   1.942  10.887 -0.0406  0.1805  0.2185
31569W        W47703   8.834   1.036  10.469  0.1949  0.0748  0.2028
31570W        W47704  17.367   9.381   3.304  0.2834  0.4333 -0.0357
31571W        W47705  18.559  11.279  13.885 -0.1784  0.1680 -0.1339
31572W        W47706  11.784   2.999  12.907  0.1327 -0.1606  0.1323
31573W        W47707  14.779  18.762  10.598  0.2890 -0.0444  0.0962
31574W        W47708   9.460  11.572   0.335  0.1820 -0.2522 -0.3090
31575W        W47709  19.162  10.425  11.384  0.1756 -0.0197 -0.0284
31576W        W47710   6.946  10.411   2.685 -0.1185 -0.0465  0.2749
31577W        W47711  15.545  14.134  14.303  0.2015 -0.0439  0.1225
31578W        W47712   6.461   1.430  12.567  0.1159 -0.1783 -0.0171
31579W        W47713   4.533   1.657  11.689 -0.2882 -0.1518  0.1597
31580W        W47714   0.450   9.597   3.681 -0.0012 -0.0883 -0.1052
31581W        W47715   8.533  12.285  10.803  0.0928  0.1416  0.2399
31582W        W47716   8.980  17.787  12.190  0.0610 -0.0617 -0.0464
31583W        W47717   1.740  14.048   0.510  0.0104 -0.0625 -0.2730
31584W        W47718   6.481  13.532   2.202 -0.0410  0.0186  0.1465
31585W        W47719  11.513   0.454  14.545  0.0994 -0.0351 -0.1483
31586W        W47720  18.107  12.390   3.146 -0.1584 -0.3344 -0.1302
31587W        W47721  14.269  10.456  11.887  0.1079 -0.3546  0.0295
31588W        W47722  11.019  18.633  12.184  0.0819  0.1591 -0.2235
31589W        W47723   5.488  15.638   1.094  0.0057  0.1388  0.0154
31590W        W47724  18.667   6.431  14.308  0.0761  0.1270  0.1480
31591W        W47725  13.512  17.534   5.720  0.0047  0.1128 -0.3083
31592W        W47726  15.290  18.405  14.876 -0.0094 -0.1686  0.0743
31593W        W47727  16.462  15.062   0.864 -0.0212 -0.0182  0.0353
31594W        W47728   4.730   2.757   4.339 -0.0183  0.0954 -0.1572
31595W        W47729   9.599   0.792   2.659 -0.1232 -0.2076  0.3398
31596W        W47730   6.350   1.963   3.623 -0.0422 -0.1202 -0.0299
31597W        W47731  10.873  14.109   2.340  0.1424 -0.0676  0.1871
31598W        W47732   5.066   6.173  12.648  0.2966  0.2680 -0.0657
31599W        W47733   7.329  11.966  10.978 -0.0769 -0.2263  0.1263
31600W        W47734   3.119  16.418   2.409 -0.0675 -0.0059  0.5195
31601W        W47735   1.085   1.603  12.240  0.1679  0.0896 -0.0804
31602W        W47736   0.835   5.629  11.016 -0.1371  0.0801  0.3197
31603W        W47737  14.132  12.710  13.704 -0.2151 -0.2965 -0.0616
31604W        W47738   6.203  17.673   3.651  0.1669 -0.1161  0.1796
31605W        W47739  17.597   4.647   1.422 -0.2724 -0.0496  0.0273
31606W        W47740   1.919  14.884   1.003 -0.1236  0.0767 -0.1223
31607W        W47741  15.598  10.146  12.864 -0.1234 -0.0668  0.3241
31608W        W47742  12.859   4.767   4.195  0.0600 -0.0544 -0.1509
31609W        W47743  19.005  11.484  10.907 -0.0412 -0.1181 -0.1494
31610W        W47744   4.847   3.646   0.019  0.0094  0.0329  0.4344
31611W        W47745  16.781  17.932  11.226  0.1191 -0.0303  0.0939
31612W        W47746  11.662  18.341   3.231 -0.1147 -0.1256  0.0456
31613W        W47747   0.533   1.597  11.437 -0.1402  0.3040 -0.0652
31614W        W47748  19.154  17.583   4.874  0.2534  0.2713 -0.0797
31615W        W47749   1.184   1.831  12.771  0.0069 -0.2424 -0.0872
31616W        W47750  10.230   0.066   5.026  0.3677 -0.0405  0.0463
31617W        W47751  15.358   6.724  10.712 -0.1715  0.0010 -0.0184
31618W        W47752  19.138  13.884   0.120 -0.1079 -0.2476  0.0189
31619W        W47753   3.103   5.998   2.589  0.0537  0.0186 -0.1009
31620W        W47754   9.960  17.410   1.070  0.1491 -0.0618 -0.0352
31621W        W47755  19.115   4.684   3.773  0.4030 -0.2220 -0.0308
31622W        W47756   6.394   9.972   0.104  0.0945 -0.0275  0.4489
31623W        W47757   7.313   0.084  11.422  0.3860  0.0911  0.0100
31624W        W47758  16.745  16.558   3.233  0.1830  0.2746 -0.1078
31625W        W47759   7.170  18.887  12.386 -0.5531 -0.0329  0.1589
31626W        W47760   5.704   1.503  12.446  0.1531  0.1533 -0.1186
31627W        W47761  12.379   5.479  10.149 -0.1921  0.1124 -0.2429
31628W        W47762   0.414   7.414  12.853  0.0852 -0.0680  0.1409
31629W        W47763   5.630  16.923  11.288 -0.1288  0.1958  0.2966
31630W        W47764  16.770   4.807   9.684  0.0704  0.1944 -0.0968
31631W        W47765  10.776   7.972   0.095  0.2061 -0.0231 -0.3739
31632W        W47766   3.310   5.712  12.588 -0.0019  0.0812  0.0550
31633W        W47767   8.876   2.767  13.411 -0.2697  0.0754 -0.4199
31634W        W47768  14.876  10.170   0.262  0.3645  0.1097 -0.0213
31635W        W47769  10.547  13.441   3.450 -0.0823  0.0000  0.0788
31636W        W47770   0.454  16.721   3.989  0.0465  0.3924  0.0976
31637W        W47771  14.958  17.142  13.900 -0.3057 -0.2979 -0.2277
31638W        W47772   1.693  10.877  10.275 -0.4156 -0.0338 -0.0592
31639W        W47773   7.792   4.010  12.101  0.0642 -0.2795 -0.3451
31640W        W47774   8.039  17.273  11.928  0.3977 -0.4547 -0.0596
31641W        W47775  15.674   5.145   3.952  0.1741 -0.0961  0.1344
31642W        W47776  14.073   4.237  11.251  0.1855  0.0646 -0.2639
31643W        W47777   1.351   2.001  12.327 -0.1900 -0.1053 -0.3200
31644W        W47778  15.700   9.237  11.469 -0.2224 -0.4457  0.0775
31645W        W47779  11.041  18.703  14.983 -0.3172  0.1756  0.1029
31646W        W47780   3.420  11.953  10.679 -0.1544  0.1315 -0.2696
31647W        W47781   3.760   6.712  12.799  0.0581  0.0515 -0.2325
31648W        W47782  17.418  10.002   1.347  0.0771 -0.1016  0.1770
31649W        W47783  14.177  17.327   0.038  0.1390  0.0464 -0.1254
31650W        W47784   6.413  10.417   4.238 -0.1592  0.3598  0.1839
31651W        W47785  12.585   5.713   4.784 -0.4116 -0.1335  0.2174
31652W        W47786   0.810  14.827  11.353  0.2226  0.0098 -0.4444
31653W        W47787   4.792   5.131   3.381 -0.3627 -0.0859  0.4191
31654W        W47788  15.385  10.414  13.276 -0.2106  0.2567  0.2623
31655W        W47789  11.017  17.794   0.273 -0.1084  0.3520  0.0604
31656W        W47790  18.299  16.246   4.892  0.0183  0.1365 -0.4635
31657W        W47791  18.561  10.306  11.429  0.0399 -0.3254 -0.1119
31658W        W47792   9.808   2.310  10.953  0.1289 -0.1885 -0.4565
31659W        W47793   9.957  12.969  13.801 -0.1604 -0.2400  0.0253
31660W        W47794  16.738  14.230  12.462  0.0832 -0.3321 -0.0078
31661W        W47795  14.897  16.994  14.418  0.1624 -0.0763 -0.0049
31662W        W47796   2.877   6.626   3.123 -0.2307 -0.0621  0.0109
31663W        W47797  10.796   4.003  13.644 -0.2987 -0.0208 -0.3219
31664W        W47798   4.939  17.334   2.150  0.0348  0.1074  0.2154
31665W        W47799   4.081   7.859   1.824  0.1952  0.2090  0.1840
31666W        W47800   4.465   4.872   4.573  0.1439 -0.2063 -0.3559
31667W        W47801   2.292   3.676   4.388  0.0580  0.3290 -0.6504
31668W        W47802   4.916  13.874  14.110  0.1539 -0.0730 -0.2001
31669W        W47803   8.976  17.004   4.757  0.0449 -0.2093  0.0066
31670W        W47804   6.204  12.956   1.653 -0.2201 -0.0061  0.1490
31671W        W47805   6.956  12.807   4.575 -0.1604 -0.5216 -0.2902
31672W        W47806  18.824  17.108  12.934  0.0322  0.0369 -0.1350
31673W        W47807   9.557  17.854   0.435  0.3374  0.1081 -0.0065
31674W        W47808   2.203   3.916   0.651  0.1491 -0.2031 -0.2609
31675W        W47809   4.586  18.017   2.148 -0.3541  0.1331  0.1529
31676W        W47810   6.764   7.289  14.125  0.0205 -0.0561  0.4774
31677W        W47811   0.567   0.455   4.132  0.4255 -0.5793  0.0654
31678W        W47812  15.930   4.274   1.143  0.1145 -0.1493  0.3369
31679W        W47813   5.118   6.365   9.770  0.0287  0.3247 -0.1876
31680W        W47814   3.880   2.090   1.095  0.3370  0.1057 -0.1938
31681W        W47815  13.191   8.057   0.435 -0.1684 -0.0120 -0.5057
31682W        W47816  17.522   4.697   0.894  0.1464  0.1959  0.0655
31683W        W47817   3.271   2.625   4.106  0.0595 -0.1326 -0.2780
31684W        W47818   6.823   4.194  11.170  0.1781  0.0361  0.0024
31685W        W47819  17.395  14.629   5.660 -0.0198 -0.0838 -0.0478
31686W        W47820   1.106   1.808  13.691  0.2804  0.1019  0.4537
31687W        W47821  16.388  12.674  11.426  0.0414  0.3041  0.1109
31688W        W47822  13.751  16.921   1.976 -0.0598 -0.1890  0.0034
31689W        W47823   7.617   8.753  10.714  0.1047  0.0351  0.0505
31690W        W47824  15.067  11.587   4.129  0.0960  0.0027  0.3076
31691W        W47825   1.186   9.229  14.273  0.3006 -0.0327  0.1511
31692W        W47826  11.958   8.807   3.972  0.1095 -0.2049 -0.6375
31693W        W47827   1.905  13.706  10.910 -0.0348  0.0067 -0.1020
31694W        W47828  15.337   4.328  11.185  0.5001  0.2029  0.0798
31695W        W47829   9.598   2.634  12.312  0.0253 -0.3531 -0.0463
31696W        W47830   4.943   8.632  10.589 -0.0750 -0.1525  0.0767
31697W        W47831   4.805   5.062   2.721 -0.1179 -0.1944  0.0508
31698W        W47832  18.043  17.073  12.757 -0.1577  0.0991  0.2619
31699W        W47833  18.286   5.722   1.096 -0.2305 -0.1140 -0.4168
31700W        W47834   2.369  10.323   2.428  0.0569  0.1303  0.2672
31701W        W47835   6.653   8.900  13.069 -0.1918  0.0595 -0.0818
31702W        W47836   3.613   1.050  14.827  0.1068 -0.0465 -0.1060
31703W        W47837  10.222  13.897  13.663 -0.0609  0.1362 -0.0291
31704W        W47838   3.596  15.486   5.635 -0.1897  0.2595 -0.1139
31705W        W47839   6.121  12.580   2.019 -0.0299  0.0049 -0.0969
31706W        W47840  17.844   7.347  10.345 -0.1099  0.2844  0.0947
31707W        W47841   0.546  15.526  10.799  0.0285 -0.1117 -0.1117
31708W        W47842  11.077   2.547   0.494  0.2825  0.0266  0.2504
31709W        W47843  15.797  13.305  10.996  0.1732 -0.1398  0.0647
31710W        W47844  18.426   6.933  13.256 -0.2978 -0.0333 -0.0831
31711W        W47845   2.184   1.272   1.159 -0.0415 -0.5222  0.0818
31712W        W47846  14.998  13.176   1.677 -0.1239 -0.0512  0.2461
31713W        W47847  18.772   9.204   4.335  0.1687 -0.0975 -0.3005
31714W        W47848   0.197   7.141   3.532 -0.2727  0.0156 -0.0019
31715W        W47849   5.800   3.162   0.606  0.0858  0.3224  0.0836
31716W        W47850  16.655  10.273   3.919  0.1064  0.1213 -0.1439
31717W        W47851   9.284   4.108   0.882 -0.2440  0.1846 -0.2302
31718W        W47852  12.010   0.610  14.763 -0.2035  0.0555  0.0724
31719W        W47853   7.381  19.029   2.397  0.3414 -0.0016  0.0130
31720W        W47854  18.866   0.026  12.157 -0.1877  0.3536  0.1313
31721W        W47855  16.251   7.092  11.203 -0.0542  0.1947  0.0390
31722W        W47856   0.484  12.309  13.677 -0.1122 -0.1215  0.2607
31723W        W47857   0.493   4.273   1.747 -0.0860 -0.1632  0.2901
31724W        W47858   9.545  19.182   5.767 -0.1777  0.4276  0.0878
31725W        W47859  10.601   3.671  10.689 -0.2446  0.1053 -0.1252
31726W        W47860   3.283  16.601   4.579  0.1832  0.0497 -0.1421
31727W        W47861  13.097  13.426  15.015 -0.1284 -0.2624  0.2850
31728W        W47862  12.818  16.342  11.235 -0.0855  0.0877  0.4677
31729W        W47863   5.663   4.497   1.854 -0.0917  0.0370  0.2237
31730W        W47864  13.732   1.356   0.627  0.2671  0.0095  0.0806
31731W        W47865   2.572   9.235  10.786 -0.4106  0.1777 -0.1205
31732W        W47866  11.322   2.568   9.959 -0.2656  0.0311  0.0018
31733W        W47867   1.642   1.371  10.689 -0.2296 -0.1021  0.2981
31734W        W47868  11.761  14.236   1.962 -0.1618  0.0665  0.2148
31735W        W47869  15.872   9.547   0.297 -0.1119 -0.1634  0.2271
31736W        W47870   1.624   4.345   2.286  0.4034 -0.3357 -0.1636
31737W        W47871  11.698   7.368  13.389 -0.0329  0.1815  0.0860
31738W        W47872   0.533   8.204  13.054  0.0168  0.1081  0.2563
31739W        W47873   5.312   7.313   0.339  0.3799  0.4106  0.2117
31740W        W47874  10.265  19.077  10.360 -0.0815  0.1570 -0.0243
31741W        W47875   8.187  18.738  13.634 -0.0998  0.1323  0.0348
31742W        W47876   7.142   9.955  10.311  0.2466 -0.0110  0.2533
31743W        W47877  15.280  12.896   4.732 -0.0461 -0.0053 -0.0949
31744W        W47878   9.327  10.925   2.122 -0.2111 -0.0238 -0.1007
31745W        W47879   5.212   8.149   2.418 -0.1045 -0.2009 -0.1083
31746W        W47880  17.947   3.775  12.828  0.3831 -0.0371  0.2307
31747W        W47881   3.448   7.989  13.036 -0.0278  0.2304  0.3352
31748W        W47882  12.152  13.885  11.523  0.0678 -0.1378  0.0330
31749W        W47883   3.767   1.306  11.286  0.0861  0.2922  0.0368
31750W        W47884  10.850   6.573   0.769  0.1998  0.0861 -0.2025
31751W        W47885   8.736  17.478  14.741  0.1064 -0.0589 -0.0110
31752W        W47886  13.271   2.109   0.032  0.2316  0.1776 -0.2298
31753W        W47887   2.322   1.805  13.643 -0.2809  0.0109  0.0946
31754W        W47888   9.452  12.096   0.113 -0.1841 -0.1289  0.1748
31755W        W47889   4.018   2.275   5.559 -0.2093  0.2395 -0.1817
31756W        W47890   7.385   7.221  12.944 -0.1339  0.0580 -0.0627
31757W        W47891   2.360   0.201  14.117 -0.4534 -0.1457  0.4182
31758W        W47892   4.424   1.709  14.166 -0.1271 -0.1497 -0.2079
31759W        W47893  17.939   1.349  14.481  0.0529  0.0763  0.2755
31760W        W47894   7.602  15.875   1.770  0.1072  0.2514  0.1008
31761W        W47895   2.017   2.998  13.901 -0.2933 -0.1202  0.0451
31762W        W47896   1.747   2.993  10.521 -0.1330 -0.1518  0.1262
31763W        W47897  12.415   2.528   0.810 -0.5453 -0.0099  0.1205
31764W        W47898   6.493   0.878   2.090 -0.0896  0.0861  0.2525
31765W        W47899   9.419  13.504   4.247 -0.0707 -0.1729  0.1584
31766W        W47900   1.182  11.581   0.963 -0.1924  0.2407 -0.0918
31767W        W47901   6.709   2.281   1.735  0.2045  0.0039 -0.0444
31768W        W47902  11.477  15.520   4.782 -0.3397  0.1113  0.0370
31769W        W47903  18.954  12.711  14.011 -0.0594  0.0556 -0.2129
31770W        W47904   9.449  14.496  13.502  0.0244 -0.0556 -0.0572
31771W        W47905   5.614  14.554   3.623  0.0945  0.0848  0.3262
31772W        W47906  16.001   0.274  10.988 -0.1243  0.0217  0.0665
31773W        W47907   3.932   7.416  14.437  0.3484  0.1374  0.3309
31774W        W47908   9.880  15.397  13.501 -0.1297  0.1186  0.0829
31775W        W47909   9.673  16.044  10.796 -0.0524  0.2092  0.0782
31776W        W47910  10.675  10.788  13.364 -0.0166 -0.2131 -0.0464
31777W        W47911  16.810  18.037  11.734  0.0271 -0.3490 -0.1363
31778W        W47912   4.629   5.400   1.871 -0.0313 -0.1911  0.2248
31779W        W47913  13.776  13.045   0.866 -0.3652 -0.0680 -0.2153
31780W        W47914   7.196  16.386  12.622 -0.0955  0.1557  0.3028
31781W        W47915   3.266  12.793  14.773 -0.2233  0.3329 -0.2838
31782W        W47916   1.332  17.403  12.356  0.1396 -0.1164 -0.0014
31783W        W47917   3.260  10.240  11.770  0.2973  0.1520  0.0870
31784W        W47918  15.819  16.878  11.892  0.2856 -0.0413 -0.1141
31785W        W47919   0.079  12.653   2.390  0.0746 -0.3847 -0.2203
31786W        W47920   4.531  14.875   5.087 -0.1423 -0.2019  0.0043
31787W        W47921  11.124  15.167  12.662  0.2073  0.1931  0.1509
31788W        W47922   7.313  10.049  10.925  0.0420 -0.3093  0.0482
31789W        W47923   6.858   6.520  12.949  0.0013  0.1907  0.0714
31790W        W47924   8.029  14.053   0.450  0.2947  0.0339  0.1042
31791W        W47925  14.236   8.826  13.240  0.2782 -0.0497 -0.0433
31792W        W47926   3.490   6.906   0.285 -0.1776 -0.1426 -0.2387
31793W        W47927   5.099  18.299  12.651 -0.2627 -0.1455  0.0763
31794W        W47928   1.440  17.348   4.038 -0.2506  0.3376 -0.0469
31795W        W47929  15.016  18.321   3.637  0.1828  0.0333 -0.0050
31796W        W47930   4.801  19.228   3.182 -0.1347 -0.0706  0.2664
31797W        W47931  11.093  13.574  14.570  0.3369 -0.0155 -0.1317
31798W        W47932  11.380   4.474  14.970  0.0127 -0.1041 -0.0971
31799W        W47933   1.130  12.022  13.751  0.0863  0.1822 -0.0469
31800W        W47934   6.233  15.009  11.364  0.0879  0.2113  0.3863
31801W        W47935  17.329   6.875  10.481  0.2537  0.1611  0.1990
31802W        W47936  10.024   7.482   4.466 -0.4239 -0.2940  0.0971
31803W        W47937  17.439  18.582  13.668 -0.0480 -0.0022 -0.2039
31804W        W47938  17.551  15.510   4.945 -0.1140 -0.0624 -0.0817
31805W        W47939   0.638  17.893   1.027 -0.1737  0.1532  0.0943
31806W        W47940   6.827   1.149  10.693 -0.1345  0.2209 -0.0939
31807W        W47941   0.438  18.661  10.692  0.0060  0.1692 -0.0937
31808W        W47942   8.397  12.737  10.179  0.2195 -0.0933  0.0746
31809W        W47943  14.781   2.035  12.475 -0.2037 -0.5308  0.0023
31810W        W47944  10.132  17.588  11.059 -0.0970  0.0791 -0.1917
31811W        W47945   5.440  12.542   4.001  0.1757 -0.3980 -0.0858
31812W        W47946  13.468   0.532   2.630  0.1853 -0.1673 -0.0038
31813W        W47947   0.358   6.938  13.571 -0.0269  0.2303 -0.0293
31814W        W47948   2.906   5.100   2.646  0.1323  0.4449 -0.2206
31815W        W47949   7.271   4.770   5.036 -0.1956 -0.0965 -0.1395
31816W        W47950   5.873  12.305  10.702  0.1326  0.1247  0.0549
31817W        W47951  10.924   7.665   1.498 -0.0963 -0.1995 -0.0712
31818W        W47952  11.350  15.667  12.283  0.3610  0.0912  0.0151
31819W        W47953   4.375  12.155  13.962  0.2002 -0.0166 -0.0566
31820W        W47954  15.900   6.187  13.829 -0.1041 -0.0538  0.4165
31821W        W47955  15.482  13.094  10.269  0.1491  0.1995 -0.0230
31822W        W47956   4.540  15.085   1.804 -0.0927 -0.0107  0.2808
31823W        W47957  18.540  11.967   2.013 -0.0717 -0.2972  0.1682
31824W        W47958  10.704  13.217   0.916  0.1794 -0.1531 -0.0608
31825W        W47959   2.491  10.495   1.409 -0.1633  0.0935  0.1082
31826W        W47960  16.332  17.656   5.169  0.0755  0.1081 -0.2141
31827W        W47961  12.107  15.871   4.157  0.0997 -0.0132 -0.2622
31828W        W47962   3.854   6.519   1.756  0.1929 -0.0425  0.0192
31829W        W47963  14.458   3.845   3.260 -0.1344  0.5561  0.2215
31830W        W47964  15.775   1.776  11.125 -0.4672  0.0350 -0.1597
31831W        W47965   1.023   9.626   2.076 -0.0921 -0.1353  0.1266
31832W        W47966  12.999   9.759   4.262  0.0840  0.0529  0.0729
31833W        W47967  16.767   0.646  13.064 -0.1974  0.2469 -0.1210
31834W        W47968  18.592   8.510  10.803  0.1468 -0.1188  0.0454
31835W        W47969  13.094  10.692   5.317  0.0394 -0.0513 -0.0718
31836W        W47970   3.985  17.371   1.001  0.3244 -0.2069  0.1439
31837W        W47971   2.357  16.386   3.318 -0.0241  0.1233 -0.0004
31838W        W47972  12.837  17.315   3.954  0.1006 -0.2657 -0.2577
31839W        W47973  12.843   2.121   1.652  0.0751 -0.1988  0.0200
31840W        W47974   3.915  18.540  11.697 -0.0788  0.1425 -0.3507
31841W        W47975  18.482   7.016  11.626  0.1162  0.2259  0.0928
31842W        W47976  12.210  13.534   3.334  0.0267 -0.1305  0.3559
31843W        W47977   3.136   5.587   2.275 -0.1448  0.2061 -0.3607
31844W        W47978   5.960   9.984  12.094 -0.3732  0.1206  0.1772
31845W        W47979  13.438   5.363   4.243 -0.0211 -0.0964  0.0723
31846W        W47980   8.857  19.089   1.318 -0.2528 -0.0977  0.0889
31847W        W47981  12.226   7.728  11.684 -0.2454 -0.1015 -0.0828
31848W        W47982   5.743  16.778  13.369 -0.1016 -0.0016 -0.1812
31849W        W47983  16.985   0.203  11.258  0.1181 -0.1864  0.1197
31850W        W47984  18.089  19.002  14.692 -0.1409 -0.0566  0.1391
31851W        W47985   7.694  12.224  14.299  0.0352 -0.0514 -0.3638
31852W        W47986  11.249  16.300   0.377 -0.0526  0.2852  0.3120
31853W        W47987   1.935   9.301  11.716  0.2036 -0.1197 -0.1587
31854W        W47988  18.199   0.016   3.681  0.1011  0.1601  0.0071
31855W        W47989   0.855  10.119   2.070  0.2960 -0.2017  0.0574
31856W        W47990   6.689   5.201  11.781  0.1886  0.0920  0.0765
31857W        W47991   5.434  10.811  12.797  0.2777  0.2829 -0.2423
31858W        W47992   9.689  11.261   1.928  0.0508  0.0637  0.1552
31859W        W47993  14.648   8.570   4.966 -0.0529 -0.0134  0.0176
31860W        W47994   9.711   3.939   3.824 -0.0944 -0.2197  0.0123
31861W        W47995   9.091  11.205   1.163 -0.0920  0.1939 -0.1127
31862W        W47996   0.874   3.611   2.943  0.1407 -0.1307  0.1020
31863W        W47997   9.115   9.958  10.743 -0.3477  0.0304  0.1434
31864W        W47998   3.776  15.974   2.796 -0.0919 -0.1143 -0.2102
31865W        W47999  15.535  11.519  14.612  0.1459  0.1366 -0.2831
31866W        W48000  16.788  11.893   4.320  0.0430  0.0569 -0.2625
31867W        W48001   1.615  10.217   0.824 -0.1905  0.1098 -0.0069
31868W        W48002   4.563  18.048   1.150 -0.4001  0.0487  0.1405
31869W        W48003  17.997  17.565  12.886  0.0002  0.3536 -0.0457
31870W        W48004  16.818   4.823  10.157 -0.5165  0.2469 -0.0595
31871W        W48005   5.414   1.979   1.349  0.1263 -0.0721 -0.0764
31872W        W48006   7.008  11.168  14.751 -0.0540  0.1732  0.2099
31873W        W48007  14.207  16.319  12.442 -0.2402 -0.0512 -0.0237
31874W        W48008   8.900  15.099  11.871  0.0938  0.1137 -0.3189
31875W        W48009  15.046   8.066   0.366 -0.1931  0.1418  0.1483
31876W        W48010   3.763   9.434  12.250  0.0207 -0.0074 -0.1042
31877W        W48011  17.101   2.146   4.916  0.1684 -0.3613 -0.3121
31878W        W48012  17.739   1.774  13.143  0.0548  0.1801 -0.3115
31879W        W48013   4.338  16.068   0.855  0.2089  0.0556 -0.2174
31880W        W48014  14.995  10.571   1.293 -0.2342  0.1561 -0.3708
31881W        W48015  14.637   1.258  12.923 -0.0461  0.1549  0.3130
31882W        W48016   8.285  11.980   5.407  0.1135  0.0949 -0.1121
31883W        W48017  14.151  18.893   1.757  0.2068  0.0746 -0.1608
31884W        W48018   5.871   8.216  13.373 -0.2418 -0.3366  0.5685
31885W        W48019  18.555   9.483   5.111  0.1481  0.1368 -0.0580
31886W        W48020   4.126  10.742   0.049 -0.1607 -0.1372 -0.0368
31887W        W48021   4.113  14.180  14.025  0.0608  0.2258 -0.0487
31888W        W48022   3.901  15.384  12.608  0.0927 -0.3554  0.2054
31889W        W48023   9.787  10.113   3.114 -0.2120  0.1694 -0.0591
31890W        W48024   3.977   7.931   1.232  0.0101 -0.1299 -0.0767
31891W        W48025   7.921   7.703   1.150  0.1038 -0.2388 -0.0855
31892W        W48026  14.346   9.896  14.992  0.0693 -0.0300 -0.0555
31893W        W48027   4.242   8.593   0.883  0.2470 -0.4724  0.1751
31894W        W48028   1.458   3.753  14.969 -0.2643 -0.2012 -0.4137
31895W        W48029   4.867   7.491   2.133 -0.1791  0.2334 -0.1655
31896W        W48030  12.838  16.009   1.154 -0.0494  0.3133  0.0675
31897W        W48031   7.898  10.573  14.590 -0.0452 -0.4785 -0.0115
31898W        W48032  17.328  16.434   5.243  0.1835 -0.3135  0.0405
31899W        W48033   2.883  11.059   1.351 -0.1618  0.1357 -0.0309
31900W        W48034   1.689  10.504   0.404  0.0660  0.3351 -0.2594
31901W        W48035   7.205   0.996   4.395  0.0169 -0.0932 -0.0081
31902W        W48036  13.945  13.115  13.456 -0.4328 -0.1537 -0.1070
31903W        W48037  10.029  18.698  13.498 -0.2598  0.2139  0.3305
31904W        W48038   0.959  14.607  14.481 -0.1037 -0.2590  0.0454
31905W        W48039   6.923  18.763   2.521  0.0381 -0.1478  0.0688
31906W        W48040   7.279   2.511  14.101 -0.0630 -0.1485 -0.1169
31907W        W48041   8.608   0.167  12.500  0.3017 -0.4118 -0.0779
31908W        W48042  16.326   2.849   3.434 -0.0952 -0.3516  0.2518
31909W        W48043  15.536   5.513   2.210 -0.1365  0.2736 -0.1265
31910W        W48044   5.478   9.054   4.684 -0.2703 -0.1868 -0.2092
31911W        W48045   4.757   0.633   9.813 -0.0223  0.2274  0.1669
31912W        W48046   8.093   9.430   0.506  0.1526 -0.1042 -0.0455
31913W        W48047   0.083   5.179  14.845 -0.2741  0.3178  0.1446
31914W        W48048   9.255  16.808   1.738 -0.1730 -0.0289  0.0232
31915W        W48049   7.017   1.009   2.167 -0.2126 -0.0113 -0.0636
31916W        W48050  18.919   0.534   3.207 -0.1153  0.0013 -0.0812
31917W        W48051   5.116   5.131  13.659 -0.0755 -0.0311  0.3437
31918W        W48052   4.238   1.274  11.443  0.0590 -0.0342  0.4231
31919W        W48053   1.351   2.596  10.301  0.2117  0.1762  0.2329
31920W        W48054   3.554  11.708   3.637 -0.0502 -0.1338  0.0782
31921W        W48055  14.982   8.080   4.889 -0.0017 -0.0967  0.2204
31922W        W48056   2.405  16.556   0.911 -0.2668 -0.1831 -0.2590
31923W        W48057  13.579   4.756   1.524  0.3621 -0.0459  0.1338
31924W        W48058   0.181   6.673   2.017  0.1889 -0.4531  0.0645
31925W        W48059  17.924  18.483  14.448 -0.1853 -0.3292  0.0203
31926W        W48060  10.064  17.425   3.438 -0.1428 -0.2369 -0.0673
31927W        W48061  12.955   5.731  11.476 -0.0263 -0.4235 -0.2435
31928W        W48062  10.566   9.177  10.212  0.1813  0.0797 -0.0838
31929W        W48063   4.250  16.230   2.738  0.0349 -0.0291 -0.2319
31930W        W48064  12.007   1.145  13.909  0.0828 -0.0324  0.0984
31931W        W48065   9.558  11.098  14.359  0.1714  0.0581 -0.4259
31932W        W48066   7.259  14.224   2.963  0.0781  0.2109 -0.0423
31933W        W48067  17.461   1.747   3.120 -0.0060  0.0597 -0.0044
31934W        W48068  13.559  17.119  12.962 -0.2242  0.1392  0.0152
31935W        W48069  12.946   2.195  12.717  0.0806 -0.0147 -0.0426
31936W        W48070   1.268  10.381   2.296  0.0109  0.0659  0.0952
31937W        W48071   9.634   2.708   4.649 -0.2040  0.0269  0.1833
31938W        W48072  17.961   0.488   3.454  0.1663 -0.4296 -0.1859
31939W        W48073  10.651  19.075  14.489 -0.1540  0.3902  0.0458
31940W        W48074  14.952  10.617   0.644 -0.1702  0.2092 -0.1927
31941W        W48075  13.562  12.441  14.266 -0.3354  0.0626  0.0791
31942W        W48076   5.790  15.751   3.533  0.1980  0.2155  0.1199
31943W        W48077   8.850  17.382  10.790 -0.0695 -0.3612  0.1488
31944W        W48078  12.730   0.052   0.099  0.0532 -0.0144  0.0822
31945W        W48079   6.184  18.304  10.240  0.1222  0.3183  0.1439
31946W        W48080   3.877  10.882  12.215  0.1134 -0.3409 -0.0055
31947W        W48081   0.070  18.119   2.434  0.0226 -0.1001  0.2723
31948W        W48082   8.153  17.428   2.454 -0.0351  0.0763  0.1578
31949W        W48083   1.926   5.209  11.454 -0.0330  0.1514 -0.1284
31950W        W48084   9.069  18.392   4.638 -0.0131 -0.2333 -0.1782
31951W        W48085   3.712  18.496  13.948  0.1507  0.6254  0.0201
31952W        W48086  15.932  13.146   1.415 -0.3054 -0.0193 -0.3141
31953W        W48087  11.245   8.442  12.746 -0.0136 -0.0751 -0.0994
31954W        W48088  17.215  10.102   4.061 -0.2100 -0.2472 -0.0378
31955W        W48089  12.655   4.533  14.305 -0.2314 -0.2634  0.1225
31956W        W48090   8.432  16.158   3.190  0.0138 -0.2114 -0.1170
31957W        W48091   5.575   5.483   3.476 -0.0849  0.0905  0.1337
31958W        W48092  16.878   2.210  14.692 -0.1134 -0.4034  0.1411
31959W        W48093  16.491   9.519   1.084 -0.0553  0.1497 -0.1455
31960W        W48094  13.192   0.874   1.312 -0.1918  0.0404  0.0421
31961W        W48095   5.965  16.275  11.757 -0.0945 -0.0984 -0.0327
31962W        W48096   7.193  16.204   2.660 -0.0293  0.1067 -0.0117
31963W        W48097   0.009  12.315   1.362 -0.0436 -0.0675  0.0669
31964W        W48098   4.357   1.692   4.005  0.0057 -0.2263 -0.0869
31965W        W48099  10.801   2.635   2.493  0.1910 -0.0683  0.0676
31966W        W48100   2.203   4.446  12.474  0.1867  0.1419 -0.0301
31967W        W48101  16.251   9.611  12.222  0.1595 -0.0781  0.1910
31968W        W48102  13.367   8.620   0.974  0.0183  0.1707 -0.2707
31969W        W48103   8.988   0.592  14.900  0.1210  0.0570 -0.2876
31970W        W48104  14.470  19.150  12.534 -0.1190  0.1251  0.3648
31971W        W48105  17.622   6.506  12.907 -0.0697 -0.0495  0.1577
31972W        W48106   1.389   8.140   2.051  0.0367 -0.0352  0.1907
31973W        W48107  10.884  18.693   2.128 -0.0197  0.0673 -0.0826
31974W        W48108   4.254  14.729   4.668 -0.0871 -0.4858  0.0608
31975W        W48109  12.910  17.493   3.501  0.2535 -0.3016  0.2346
31976W        W48110  10.354   2.525  14.304  0.2304 -0.1825  0.1366
31977W        W48111   8.399   2.721  12.149 -0.2620  0.1341 -0.1195
31978W        W48112  16.242  14.388  10.757 -0.1351 -0.1375 -0.1755
31979W        W48113  16.472   5.645   3.583  0.0763 -0.0497  0.0261
31980W        W48114  11.422   0.353  13.136  0.1959  0.3738 -0.1705
31981W        W48115  13.748   8.729  11.620  0.0574  0.0123 -0.0214
31982W        W48116   1.599  10.894  11.806 -0.2702  0.2374 -0.0423
31983W        W48117  16.970   4.012  14.234 -0.2211  0.1195 -0.2135
31984W        W48118   4.140  11.497  11.288  0.1198  0.0340 -0.0127
31985W        W48119  17.281   2.023  11.538  0.0988  0.0224 -0.0222
31986W        W48120   0.427  10.432   3.477 -0.1872  0.3602  0.1400
31987W        W48121  15.516   8.975  10.733 -0.0875  0.3028 -0.1631
31988W        W48122  14.515   9.498  11.158  0.2828  0.1297  0.2201
31989W        W48123  13.245  17.183   2.079  0.2495 -0.0055 -0.0534
31990W        W48124  13.171   2.523   1.761 -0.3077  0.1730 -0.1099
31991W        W48125  15.890   3.917  12.150  0.1923  0.0820  0.0314
31992W        W48126  11.506  17.050   9.244 -0.1025 -0.2101  0.0234
31993W        W48127   1.006  12.390   3.107  0.0572 -0.0678 -0.1903
31994W        W48128   9.584   3.588  13.705 -0.3141  0.2246 -0.1125
31995W        W48129   0.844   9.016   3.861 -0.2124  0.0507 -0.2676
31996W        W48130  15.855   9.556   4.586  0.1317  0.3506 -0.0386
31997W        W48131  10.720  12.395  14.769  0.0733  0.0677 -0.1417
31998W        W48132   5.182   8.446   1.355  0.0432 -0.1170  0.1564
31999W        W48133  18.359   5.144  12.963  0.0570  0.0331  0.0889
32000W        W48134  10.972   9.191  14.598 -0.2194 -0.0884 -0.0698
32001W        W48135   0.993  16.310   3.272  0.2595  0.2821 -0.1145
32002W        W48136  13.660  16.490   2.963  0.2664 -0.1347 -0.1406
32003W        W48137   1.880  16.076   1.730  0.0885  0.2316  0.0379
32004W        W48138   4.506   8.550  11.599 -0.2347  0.0659 -0.3507
32005W        W48139   7.695   2.478   1.553  0.0716 -0.0493  0.2061
32006W        W48140   6.171   7.160   3.083  0.2186 -0.0283  0.2357
32007W        W48141  17.371  18.978  13.021  0.0313  0.0285  0.2010
32008W        W48142   1.528  19.186   4.821 -0.1684  0.1479 -0.2239
32009W        W48143  19.021  11.713   0.607  0.3368 -0.1448 -0.2092
32010W        W48144   3.852   2.244   2.194 -0.1688 -0.1037  0.2365
32011W        W48145   5.042   7.230   2.503 -0.2121  0.0162 -0.1229
32012W        W48146   9.566   5.332   3.538 -0.1358  0.2883  0.1459
32013W        W48147   0.403  10.388  14.434  0.4370 -0.2825 -0.1708
32014W        W48148   1.974  13.104  12.627 -0.1579  0.4053  0.2643
32015W        W48149   5.861  15.815  11.632  0.2530  0.2876 -0.0728
32016W        W48150   7.722   4.457   4.211  0.0007 -0.2003  0.2849
32017W        W48151   2.847  11.216  11.315  0.0198 -0.0994 -0.1096
32018W        W48152  17.035  18.908   2.600 -0.1881  0.1355  0.0481
32019W        W48153   8.163  18.810   3.908 -0.1343  0.5013  0.1938
32020W        W48154  18.405   7.903  12.871  0.0654  0.2444 -0.0037
32021W        W48155  15.973   6.750   4.283 -0.2428 -0.2225 -0.2040
32022W        W48156   7.730  12.103   0.441  0.1908  0.1590 -0.2143
32023W        W48157  17.334   6.773   2.203  0.0067 -0.1085  0.1380
32024W        W48158  12.848  11.166   3.165  0.0123 -0.0897  0.1928
32025W        W48159  16.106  11.623  13.522  0.1827 -0.2958 -0.2145
32026W        W48160   2.697  17.062   5.177 -0.0835  0.1396 -0.0018
32027W        W48161   3.780   2.572   3.911  0.2728  0.0637  0.0067
32028W        W48162   6.503  12.808  11.676  0.1556 -0.0997  0.0897
32029W        W48163  17.184   9.528   0.758 -0.3466 -0.1080  0.0004
32030W        W48164  12.567  16.822   5.208 -0.0633 -0.0807  0.1025
32031W        W48165  17.791  14.661   2.067  0.0270  0.2343  0.1862
32032W        W48166  10.291   8.111  11.740 -0.2213  0.2437 -0.1334
32033W        W48167   3.633  14.899  14.758 -0.0321 -0.0815  0.4261
32034W        W48168  17.543   8.138  13.550  0.0990  0.1976 -0.1360
32035W        W48169  16.573  17.669   1.058 -0.0090  0.1477 -0.0705
32036W        W48170   0.591   8.434   1.173 -0.0365 -0.0000 -0.2817
32037W        W48171  17.675  15.244  14.326  0.0380 -0.0230  0.0584
32038W        W48172  11.804   1.407  14.356 -0.0047 -0.1498 -0.1149
32039W        W48173   7.476  12.165  12.217 -0.2052 -0.0957 -0.1671
32040W        W48174   5.208   9.319   3.453 -0.0825 -0.0923  0.0529
32041W        W48175  11.926   3.805  14.210 -0.3945  0.0102 -0.0880
32042W        W48176  17.108  11.653  13.490 -0.3157 -0.2420 -0.0242
32043W        W48177  10.525   7.701   2.731 -0.0490 -0.1262  0.0591
32044W        W48178   9.232   6.672   3.112  0.1233  0.2076  0.2206
32045W        W48179  18.422   5.421   3.466  0.2781  0.0451 -0.1220
32046W        W48180   0.127  12.326  13.151  0.2298 -0.0821  0.1832
32047W        W48181   5.408   0.465   0.570 -0.0451  0.0889  0.1570
32048W        W48182   6.149   6.824   1.092 -0.3616 -0.0296 -0.0743
32049W        W48183   7.340   6.577   1.798  0.0962  0.0629 -0.3093
32050W        W48184  13.977  17.793  11.838  0.1786  0.2134  0.1475
32051W        W48185  11.971   5.126  14.704  0.0140  0.1831 -0.2121
32052W        W48186  15.393   0.025  14.780  0.1600  0.1391  0.1175
32053W        W48187  16.192  12.355   2.491  0.2031 -0.2590 -0.2635
32054W        W48188  16.864   7.175   1.472  0.0980  0.2018  0.3289
32055W        W48189  15.400   0.946  12.153  0.0158 -0.3056 -0.3363
32056W        W48190  14.070   2.437  12.190  0.0274  0.3144 -0.0678
32057W        W48191  12.607  13.560   4.229  0.0596 -0.0529 -0.0177
32058W        W48192  17.555   4.227  14.698  0.0449  0.3049 -0.1087
32059W        W48193   6.356  11.629   3.849  0.2150  0.1881 -0.0312
32060W        W48194  16.548   1.175   0.697  0.2868 -0.1810  0.3132
32061W        W48195  17.764  14.915  13.926 -0.0602  0.2219  0.7495
32062W        W48196  17.907   4.545  10.511 -0.1949  0.2510 -0.1898
32063W        W48197   4.413  17.173   0.129  0.0033 -0.2272  0.1500
32064W        W48198  14.036   5.353   3.121  0.0657 -0.0802  0.0522
32065W        W48199  11.664  10.734   2.985  0.4039  0.1305 -0.0625
32066W        W48200   7.279  14.908  12.170 -0.1201  0.0208  0.4971
32067W        W48201  11.925   0.855  11.218 -0.3550  0.0565 -0.0518
32068W        W48202  10.634  17.837  11.055 -0.0182 -0.1096 -0.1198
32069W        W48203   4.301   7.115  14.317 -0.0535 -0.2934 -0.2841
32070W        W48204  14.674  14.211  12.322  0.2874 -0.0575 -0.1599
32071W        W48205  16.182  12.883   4.862  0.0856  0.0416  0.0430
32072W        W48206   9.022  15.869  12.938 -0.2097  0.0584  0.0227
32073W        W48207  14.426  11.077   1.884 -0.2990  0.2913 -0.2206
32074W        W48208   2.952  11.262   0.249  0.0479 -0.1936 -0.1484
32075W        W48209  18.513   3.255   1.563 -0.1128 -0.1725 -0.0716
32076W        W48210   4.589   5.883  11.341 -0.0996  0.2987  0.1515
32077W        W48211   5.990   7.279   0.977 -0.0091 -0.3826 -0.1017
32078W        W48212  13.727  18.643   5.342 -0.0804 -0.2445 -0.0657
32079W        W48213  13.472  17.060  13.722  0.1223 -0.1898 -0.0861
32080W        W48214   2.039  10.258  13.471 -0.0205  0.1355 -0.2090
32081W        W48215   1.892   9.840   3.674 -0.0644  0.1078  0.0599
32082W        W48216   1.988   8.432   2.474  0.0724 -0.0160  0.0372
32083W        W48217  10.054  18.423   1.006 -0.0683 -0.0153  0.0730
32084W        W48218   3.108  17.391   2.029  0.1729  0.1786 -0.3345
32085W        W48219   0.351   9.101   3.983  0.0288 -0.5235  0.2856
32086W        W48220  11.365  10.206   3.943 -0.2353  0.0893 -0.1572
32087W        W48221   7.401   4.125  11.303 -0.2911  0.1255 -0.0116
32088W        W48222  17.472   0.126  11.979 -0.0415 -0.2478  0.1994
32089W        W48223  17.291   6.076   3.042  0.0081  0.1591  0.2081
32090W        W48224   2.474   2.647   5.266 -0.1246  0.0180 -0.1199
32091W        W48225  16.089  17.657   0.176  0.0343 -0.2346  0.3225
32092W        W48226  17.921   7.288   2.691  0.0109 -0.3958 -0.3740
32093W        W48227  16.755  10.067   1.317  0.1757 -0.1860  0.4518
32094W        W48228   0.291   8.786   3.173  0.0433 -0.0585  0.0114
32095W        W48229  17.933  10.580   3.065  0.1137  0.2447  0.2683
32096W        W48230  12.605   6.878   1.911  0.0406 -0.1168 -0.1004
32097W        W48231  16.736  13.770  14.884  0.0524 -0.2236  0.3265
32098W        W48232  14.029  13.082   1.630  0.2436  0.1322  0.0820
32099W        W48233   4.274  17.442  13.877 -0.2079  0.1633  0.0389
32100W        W48234  12.542   6.613   3.117 -0.1680 -0.2484  0.0386
32101W        W48235   4.030   5.511  13.327  0.2783 -0.0175  0.3261
32102W        W48236   4.845   6.454   5.409  0.0746  0.0591 -0.1778
32103W        W48237   9.758  11.189  14.799  0.2629 -0.2809  0.0052
32104W        W48238  16.998  17.134  12.893 -0.2031  0.1137  0.2754
32105W        W48239   9.848  14.994  14.275 -0.0232  0.0612  0.1232
32106W        W48240   2.138  12.016  14.696 -0.0537 -0.1964 -0.2182
32107W        W48241   4.910  16.066  13.928  0.0575 -0.1873 -0.0370
32108W        W48242  11.898  17.334  11.893 -0.0606  0.0809  0.2134
32109W        W48243   8.075   6.481   9.972  0.0861 -0.0038  0.0593
32110W        W48244  12.705  12.950   1.676 -0.1221  0.1849 -0.0263
32111W        W48245   6.255  17.829   4.180  0.0226 -0.1143 -0.4583
32112W        W48246  17.366   7.858   1.734  0.1998  0.0768 -0.3564
32113W        W48247  10.990   6.143  11.452 -0.1546 -0.1332  0.1263
32114W        W48248  17.443   5.043  14.955 -0.0886 -0.2206 -0.1128
32115W        W48249   5.650   3.924   1.872  0.0391 -0.0307 -0.2106
32116W        W48250   5.339   1.818   2.598  0.2425  0.1353  0.2189
32117W        W48251   2.409  16.080   1.001  0.1526  0.0794 -0.2429
32118W        W48252  16.738  11.228  12.320 -0.3387  0.2052  0.0580
32119W        W48253   9.891   4.175   2.620  0.0269 -0.1103 -0.1697
32120W        W48254   1.754  16.091   9.922 -0.1210 -0.1150  0.0701
32121W        W48255  18.470   4.889  13.428 -0.1216  0.0812 -0.0162
32122W        W48256  14.366  11.892   0.502  0.1368  0.0323  0.0782
32123W        W48257   7.713   3.550  10.584  0.0000 -0.0125 -0.5241
32124W        W48258  12.304   7.950   3.656  0.0047  0.3611 -0.0429
32125W        W48259   1.666   5.691   3.328  0.2680  0.3894  0.2258
32126W        W48260   7.651  17.596   2.252 -0.1550 -0.0016  0.1819
32127W        W48261   1.318   8.640   3.176 -0.1665 -0.0778  0.3757
32128W        W48262  10.516   7.371   0.714  0.0740 -0.0821  0.0836
32129W        W48263  10.947   9.065  12.426  0.0240 -0.2020 -0.1193
32130W        W48264   6.206  18.553  13.965  0.1114  0.3357 -0.0187
32131W        W48265  12.100   7.743  13.339 -0.2122 -0.0849 -0.0389
32132W        W48266   1.096  12.046  13.146 -0.0934 -0.4115  0.0556
32133W        W48267   1.662  18.655   2.724 -0.2523 -0.1228 -0.1207
32134W        W48268  16.932  13.207   1.794 -0.4670  0.1743  0.0621
32135W        W48269  14.941  11.974   5.024 -0.1937 -0.4250  0.2291
32136W        W48270   2.376   3.368  13.002 -0.1224  0.0013  0.0652
32137W        W48271  16.343  12.259   0.434 -0.2820  0.0312  0.0107
32138W        W48272  15.479  15.396  14.946  0.1428  0.0125 -0.1207
32139W        W48273   6.048  15.477  13.844  0.1072 -0.1655  0.2360
32140W        W48274  13.749   1.749   3.678 -0.0179  0.5060 -0.1890
32141W        W48275  15.361   0.798  10.420 -0.2374 -0.2377 -0.1536
32142W        W48276  14.049   1.704  11.501  0.0087  0.0681  0.4061
32143W        W48277   4.497  19.128   0.895  0.1991 -0.1750  0.0178
32144W        W48278   9.777   6.814   1.732 -0.1167  0.2875  0.4278
32145W        W48279   2.828   7.934  13.005  0.1884  0.0682 -0.2634
32146W        W48280   8.730  17.582  12.729  0.2195 -0.1991 -0.1844
32147W        W48281  15.392  15.971  14.331  0.1018  0.2044  0.1454
32148W        W48282   0.499  18.201   5.363 -0.1440  0.1344  0.2905
32149W        W48283   3.862   5.598   0.738  0.1127 -0.0534 -0.0113
32150W        W48284  10.170  17.348   1.481 -0.2148 -0.0348  0.1687
32151W        W48285   8.444  12.074   2.562  0.0073  0.3619 -0.1507
32152W        W48286  15.952   3.443  12.210 -0.3212 -0.0792 -0.1534
32153W        W48287   6.043  17.241   2.318  0.1355  0.1369 -0.0237
32154W        W48288   4.205  13.259   1.708  0.1743  0.1136  0.2868
32155W        W48289  15.953   7.729   5.109  0.1709  0.0079 -0.0533
32156W        W48290   2.711  15.032  13.158 -0.1280  0.1978 -0.0822
32157W        W48291   8.806  18.821  13.193 -0.3029  0.2706 -0.0868
32158W        W48292   1.898  17.946  14.179  0.4518  0.0034  0.1435
32159W        W48293  18.086  14.600  13.522 -0.0155  0.0003  0.1325
32160W        W48294   4.823  15.514   4.440 -0.0364  0.2168  0.2942
32161W        W48295  14.898   4.626   2.528  0.0480 -0.0037 -0.0778
32162W        W48296   5.921   2.930   2.534 -0.0223  0.0018  0.2991
32163W        W48297  10.783   8.176  13.341  0.5235 -0.1581 -0.0667
32164W        W48298  12.015   6.732   0.380  0.1609  0.0906  0.1399
32165W        W48299  14.504   7.490   2.184 -0.0527  0.2602 -0.0370
32166W        W48300  17.479   3.675   3.603 -0.0357 -0.2459 -0.1057
32167W        W48301   9.042   2.454  10.848 -0.1590  0.2729 -0.2898
32168W        W48302  11.720   5.977   1.209  0.1891  0.4133  0.1504
32169W        W48303   3.761  14.973   1.526  0.0542 -0.3342  0.1015
32170W        W48304   3.571   3.030  12.681  0.3089 -0.0453 -0.2697
32171W        W48305   5.589  11.786  11.426  0.0640 -0.2884  0.2421
32172W        W48306   8.439  15.814  12.016  0.1516  0.0496  0.0545
32173W        W48307   1.299  18.180   4.299 -0.0524 -0.3868  0.1204
32174W        W48308   8.823  11.492  14.581 -0.2174 -0.1936  0.1613
32175W        W48309  14.755  18.392  14.625  0.1207 -0.1338  0.3306
32176W        W48310  17.448   3.821   0.575 -0.0829 -0.1579 -0.0263
32177W        W48311  19.107  11.714  14.564 -0.0520 -0.2161 -0.0894
32178W        W48312   6.679  15.437   3.500  0.2418  0.1442  0.2075
32179W        W48313   1.466  12.102   3.255 -0.1624 -0.1872  0.2448
32180W        W48314   8.817   3.596  12.458 -0.0320 -0.0289  0.1749
32181W        W48315  17.049  14.474   3.256  0.1517  0.1122  0.0929
32182W        W48316   0.035  10.639  10.185 -0.0883 -0.2341  0.0184
32183W        W48317  17.350  19.119   5.305 -0.1942  0.2150  0.0189
32184W        W48318   1.757  11.903   2.588  0.3243 -0.2569  0.3652
32185W        W48319   0.352   6.487  13.102  0.0852  0.0650  0.1129
32186W        W48320  16.737   1.240  10.825 -0.0199 -0.0421 -0.1357
32187W        W48321  17.904   2.516   1.744 -0.1826 -0.0340  0.0451
32188W        W48322   9.432  18.427  12.650 -0.1577  0.2769 -0.1038
32189W        W48323  13.927   2.903   1.715  0.0427  0.3506  0.0308
32190W        W48324  14.302  17.423  11.106  0.2354  0.0320 -0.0658
32191W        W48325  12.120   6.834   0.909  0.0361 -0.1142  0.0409
32192W        W48326  13.991   6.731   3.333  0.0052 -0.2618 -0.1723
32193W        W48327  10.037  12.883  13.195  0.1128  0.0528  0.2857
32194W        W48328  16.579   9.150  13.439  0.0149  0.2330  0.0843
32195W        W48329   9.210   6.170  12.055  0.1313  0.2609  0.3078
32196W        W48330  18.714   9.128  12.528  0.1977  0.4368 -0.1022
32197W        W48331  13.550   3.490   2.263 -0.0210 -0.3599 -0.2990
32198W        W48332   3.883  13.138  12.087 -0.2743 -0.1077 -0.2056
32199W        W48333   5.659   2.410   2.543  0.1844 -0.1165  0.0047
32200W        W48334  15.709   7.930   0.211 -0.0212  0.3156 -0.0467
32201W        W48335   6.013  13.039  11.441  0.0189  0.0477  0.3007
32202W        W48336   9.328  12.158   4.829 -0.1633  0.3031 -0.0786
32203W        W48337  13.977   1.846   4.688 -0.0470 -0.0791 -0.0349
32204W        W48338  16.275   4.829   0.391  0.3602 -0.0335 -0.0454
32205W        W48339  13.702   6.424  13.025 -0.4540  0.2074  0.1616
32206W        W48340  12.517  14.734   1.869 -0.2695 -0.0811  0.2240
32207W        W48341  17.429  15.245  12.468 -0.0771  0.0315  0.1177
32208W        W48342   0.163   6.042   4.848  0.0095 -0.3184  0.0012
32209W        W48343   1.644   8.799   3.601  0.1940 -0.1726 -0.1768
32210W        W48344   4.046  18.405   2.934 -0.0016  0.0014  0.1278
32211W        W48345  15.645  18.877   5.624 -0.1746 -0.0394 -0.2690
32212W        W48346   6.558  13.447   6.037  0.2669  0.0910  0.1392
32213W        W48347   7.666  17.735   1.211 -0.0289 -0.0709 -0.0905
32214W        W48348   2.673   4.912  14.133 -0.1668 -0.2660  0.0198
32215W        W48349   2.377   9.890   3.957  0.1085 -0.1785  0.2185
32216W        W48350  18.059  12.511  11.361 -0.0683 -0.1700  0.2068
32217W        W48351   4.496   8.484   3.188  0.0878 -0.0052 -0.2436
32218W        W48352   7.655   3.241  13.442 -0.0952  0.1939 -0.2989
32219W        W48353  17.800   9.982   5.842  0.0107 -0.1654  0.2100
32220W        W48354   0.107   9.658   0.142 -0.2440 -0.0568 -0.1823
32221W        W48355  18.679  18.889  12.908 -0.0905  0.2597 -0.4842
32222W        W48356  11.950   3.877   3.451 -0.2282 -0.1136 -0.1341
32223W        W48357   0.706   9.410   4.168 -0.2134  0.2820  0.0993
32224W        W48358   1.370  12.417   5.066 -0.1445 -0.1068 -0.0041
32225W        W48359  15.410  18.481   2.132 -0.2244 -0.3679 -0.1771
32226W        W48360  10.266  13.105  11.483 -0.0429 -0.0063 -0.1277
32227W        W48361  17.136   3.915   3.911  0.2184 -0.0349  0.2119
32228W        W48362  11.247   4.301   2.971 -0.0753 -0.1853 -0.1198
32229W        W48363  14.495   8.061   0.395 -0.2217 -0.0535 -0.0558
32230W        W48364  14.578  12.501  14.450 -0.0390 -0.1324 -0.0974
32231W        W48365   2.109  11.866   0.784 -0.1007  0.3339  0.1136
32232W        W48366  15.774  19.163  12.965 -0.1492  0.0857  0.1965
32233W        W48367   2.481   8.953  11.268 -0.2326 -0.4160 -0.0815
32234W        W48368  11.348  15.442  11.617  0.1306 -0.3963 -0.0048
32235W        W48369   6.179  18.934   1.998 -0.0645  0.2106 -0.0217
32236W        W48370   0.968   6.004   5.251  0.0870 -0.0491 -0.1304
32237W        W48371   5.890   4.035  14.020 -0.0267  0.1279 -0.1740
32238W        W48372   6.382   9.804  13.385  0.0838 -0.1532  0.1931
32239W        W48373  10.888  13.632   4.899  0.0723 -0.0198 -0.2950
32240W        W48374  15.885   6.727  10.842 -0.1086  0.4092 -0.0926
32241W        W48375   7.096   6.406   9.896 -0.0344  0.4000 -0.0970
32242W        W48376  12.856   1.198   0.660 -0.3072 -0.2351  0.0951
32243W        W48377   4.833  14.293  11.511 -0.0461  0.1201  0.1638
32244W        W48378   5.453  11.543   3.028 -0.0462 -0.2384 -0.0831
32245W        W48379  18.801   5.607   4.376 -0.2770 -0.4547 -0.2767
32246W        W48380   8.932  13.003   4.983  0.1345 -0.0829 -0.2083
32247W        W48381  17.512   6.426   0.921  0.0759 -0.0946 -0.0544
32248W        W48382  12.150  16.585   0.944  0.0362 -0.2606 -0.4138
32249W        W48383   9.536   6.735   3.515  0.2897 -0.0070 -0.1496
32250W        W48384   3.937  11.840   1.378 -0.0085  0.2253 -0.0293
32251W        W48385  17.120   0.052   1.725 -0.0178  0.2062 -0.0584
32252W        W48386   8.784  17.512  14.262 -0.1479 -0.0639 -0.1396
32253W        W48387  13.204  14.173   1.092 -0.1115 -0.2114  0.2749
32254W        W48388  14.334  14.773   4.337  0.1406 -0.3314  0.1257
32255W        W48389   2.939   5.319  14.214  0.0610 -0.2247  0.1152
32256W        W48390   1.643  10.375   5.116  0.1761  0.2523 -0.0243
32257W        W48391   6.574   0.741   5.394  0.1759  0.2270  0.1661
32258W        W48392  12.325  18.797   0.379  0.0360 -0.3714  0.1927
32259W        W48393  17.643  12.557   0.796  0.0085 -0.3546 -0.2633
32260W        W48394  13.144   5.537   2.834  0.2898  0.4213 -0.3128
32261W        W48395  15.387  18.863  12.609  0.0191  0.0230 -0.0969
32262W        W48396   0.848   6.412   4.441 -0.0321  0.1224 -0.2088
32263W        W48397   6.514  10.768   1.974 -0.1784 -0.2611 -0.2941
32264W        W48398   4.685  13.493   0.143  0.3178  0.0067 -0.3284
32265W        W48399  10.528  18.148   1.047 -0.0561  0.4207  0.1342
32266W        W48400   7.386  14.443   1.654 -0.3663 -0.0806 -0.0897
32267W        W48401   4.178   2.560   4.235  0.0584  0.1200 -0.0362
32268W        W48402   3.707  16.016   1.261 -0.2172 -0.0498  0.1436
32269W        W48403   7.979   8.328   3.179 -0.2636  0.0884 -0.0218
32270W        W48404  14.468  14.030   1.683  0.0363  0.2570 -0.0500
32271W        W48405  18.344   1.232  14.780  0.2121 -0.0053 -0.0214
32272W        W48406  13.250  17.931   0.447  0.0635  0.1471  0.0173
32273W        W48407  10.101  10.187  10.949  0.2187  0.0916  0.1649
32274W        W48408   7.372  17.134   9.660 -0.1605  0.0211 -0.0535
32275W        W48409   6.104  11.255  14.904 -0.4329 -0.1019  0.0934
32276W        W48410  13.121  13.964  14.628  0.2050  0.2095  0.1696
32277W        W48411   1.694   1.593  14.907  0.0014 -0.1483 -0.0253
32278W        W48412   2.111  10.482  11.072 -0.1368  0.0794  0.0744
32279W        W48413   0.791  17.337  12.729 -0.1275  0.2244 -0.1885
32280W        W48414   2.070  18.069   1.419  0.1248 -0.0013  0.0586
32281W        W48415   5.131   3.691  14.566  0.1958  0.2228 -0.1385
32282W        W48416   5.310  12.526   3.496  0.1463  0.0409 -0.0675
32283W        W48417   9.538  16.299  11.458 -0.0351 -0.5762 -0.0606
32284W        W48418   4.392   5.011   0.560  0.2541 -0.0377 -0.0770
32285W        W48419  13.214  12.030  14.217  0.1167  0.0710 -0.1348
32286W        W48420   7.560  17.020   0.791  0.0004 -0.3324  0.0717
32287W        W48421  13.235   7.322  13.689  0.1267 -0.1918  0.1908
32288W        W48422   7.346   9.608   0.283 -0.2640  0.0348 -0.2751
32289W        W48423  13.841   8.897  13.706  0.2011 -0.1966  0.0169
32290W        W48424  14.420   1.952  12.147 -0.0366  0.3875  0.1568
32291W        W48425   4.051   2.384   3.344 -0.0867 -0.3374 -0.0688
32292W        W48426   9.837   4.339   0.604 -0.1785  0.1948  0.0033
32293W        W48427   3.590  14.987   4.130  0.1376  0.1314  0.3551
32294W        W48428  12.634  14.058   4.260  0.1109 -0.0508  0.2319
32295W        W48429  19.218   9.072   0.024 -0.3413 -0.0283 -0.1722
32296W        W48430  11.344  16.492   2.565  0.2022 -0.1869 -0.0024
32297W        W48431   0.661   9.384  14.362  0.1547 -0.1537 -0.1343
32298W        W48432   9.150  12.996   4.036 -0.0464  0.0153 -0.2895
32299W        W48433   6.669   2.338  11.208  0.1237 -0.5334  0.0462
32300W        W48434   3.695  14.873   2.973  0.0656  0.0694 -0.0281
32301W        W48435  14.869  14.425   2.994  0.1789  0.1399  0.0742
32302W        W48436   4.168  11.690  11.761 -0.3021 -0.1141  0.0792
32303W        W48437   3.985  19.104   0.250 -0.0230  0.0269 -0.2324
32304W        W48438   0.446   7.965   2.022 -0.1470  0.1219 -0.0345
32305W        W48439  17.898   0.226  12.227 -0.0065  0.0913 -0.0647
32306W        W48440  18.141   0.586  12.474 -0.2316  0.2585  0.0553
32307W        W48441   1.523   4.436  13.848  0.1087  0.0559  0.1018
32308W        W48442  13.495  12.677   3.402  0.0222 -0.0765  0.0425
32309W        W48443   7.008  15.686   0.407  0.3523  0.0045  0.0741
32310W        W48444  12.635  10.500   1.271 -0.1585  0.6461 -0.2286
32311W        W48445   2.436  12.988   3.033 -0.3107  0.0539 -0.2795
32312W        W48446  15.203   2.579  11.391 -0.0624  0.2842 -0.2990
32313W        W48447   6.306   5.754  10.883  0.1166  0.0700 -0.0525
32314W        W48448   2.739  16.706  13.026 -0.1769 -0.3374  0.0219
32315W        W48449   7.008   9.195  14.396 -0.2140 -0.2185 -0.1154
32316W        W48450   0.992  18.613   3.051 -0.1573  0.2444 -0.1948
32317W        W48451  12.562  17.104   1.320 -0.4029 -0.2266 -0.2548
32318W        W48452   5.300   0.023  11.511 -0.2590  0.2744  0.3223
32319W        W48453  10.911  15.572   2.255 -0.0413 -0.1013  0.1641
32320W        W48454   8.140   5.056  13.168  0.1263 -0.2299  0.1590
32321W        W48455   0.391  13.444   2.069 -0.2667 -0.4386  0.0804
32322W        W48456   9.699  11.174   3.953 -0.3139  0.0705  0.1606
32323W        W48457   3.258   5.195   1.951 -0.1765 -0.2499 -0.2181
32324W        W48458   8.163  12.638   4.045  0.0490 -0.2462 -0.0037
32325W        W48459   5.354   8.133  13.262 -0.2573  0.0925 -0.4615
32326W        W48460   0.022  12.955  11.449  0.0077  0.1051 -0.1357
32327W        W48461   3.115   7.752   4.615 -0.0154  0.1314  0.4347
32328W        W48462   4.131  11.154   4.161 -0.0359  0.1110  0.1027
32329W        W48463   6.245  12.604  10.480 -0.0770  0.0445  0.0516
32330W        W48464  17.989  13.613   1.399 -0.5100  0.0056  0.0121
32331W        W48465  13.086   8.414   3.644  0.0695 -0.1646 -0.0615
32332W        W48466   4.182  15.354   1.598  0.0539  0.1952  0.3209
32333W        W48467   0.970   2.369   2.306 -0.1550  0.0729  0.1966
32334W        W48468  16.939   2.133   2.055  0.1560  0.0416 -0.0113
32335W        W48469   5.295  12.939   4.804  0.0556  0.1657  0.0207
32336W        W48470   1.658  11.655   0.891 -0.3002  0.2097  0.0790
32337W        W48471  15.366   3.898   3.539  0.1370 -0.2587 -0.0109
32338W        W48472   0.895  16.839   2.159  0.2411  0.5012  0.0766
32339W        W48473  11.396   8.454   0.022 -0.1350 -0.0454  0.0212
32340W        W48474  15.762  15.778   2.216  0.0185  0.1173  0.1056
32341W        W48475   3.673   8.094  11.015 -0.1280  0.0697 -0.1344
32342W        W48476  16.537   9.534   2.940 -0.1307  0.0412  0.2762
32343W        W48477   2.173   9.210   3.870 -0.0229 -0.0321 -0.1237
32344W        W48478  18.207   8.878   9.346 -0.3610 -0.3053 -0.3497
32345W        W48479   9.334  13.640  11.953 -0.1697  0.3859 -0.1898
32346W        W48480   1.884  17.632   5.479  0.1201 -0.0263  0.0509
32347W        W48481   9.432  14.577   3.833  0.1428  0.1821 -0.0868
32348W        W48482  10.206   6.200   4.481  0.1552 -0.0991  0.3218
32349W        W48483  11.061   2.214   2.795 -0.1094  0.0687 -0.1229
32350W        W48484  15.770  17.632  11.254 -0.0819  0.0757  0.0838
32351W        W48485   4.156   0.573   4.463 -0.0971 -0.1200 -0.2511
32352W        W48486   4.804  16.506  10.918 -0.0596 -0.1963  0.1245
32353W        W48487  10.828   5.583   4.139 -0.1619 -0.0542 -0.3890
32354W        W48488  16.469   8.667   3.110  0.2881 -0.2387 -0.5297
32355W        W48489   8.983  16.996  11.432  0.1557 -0.1964  0.1098
32356W        W48490   3.430   4.665   1.882 -0.1535  0.1481  0.0583
32357W        W48491   6.787  17.255   5.808 -0.2554  0.1042  0.2776
32358W        W48492   9.573  14.108   3.552  0.2352  0.3507  0.0874
32359W        W48493   7.936   7.293   4.298  0.2835 -0.0671  0.2446
32360W        W48494   8.867  12.612   4.614  0.1057 -0.1962 -0.0965
32361W        W48495  13.672  15.090   1.393 -0.1398  0.1076  0.1749
32362W        W48496   9.008   2.706  14.993  0.4892  0.1949  0.0428
32363W        W48497   0.359   0.407  11.853  0.1693 -0.1092 -0.4538
32364W        W48498  13.123  12.636   0.398  0.3847 -0.0673 -0.3888
32365W        W48499   9.350  10.723  12.750  0.1993 -0.0314  0.1071
32366W        W48500  14.464  11.606  11.211 -0.0955  0.0524  0.0269
32367W        W48501   8.095  18.352  12.260 -0.1305  0.2122  0.1084
32368W        W48502  18.457   0.958   2.871 -0.2378  0.2501 -0.3832
32369W        W48503   9.732   6.233   4.693  0.0804  0.0879 -0.0448
32370W        W48504   9.374   8.576  11.226 -0.3158 -0.1719  0.0637
32371W        W48505   0.086  18.330   3.921  0.3491  0.1169 -0.0264
32372W        W48506  14.905   0.007  14.627  0.1905  0.1754 -0.2579
32373W        W48507   1.604   6.017  14.691  0.0195  0.0048 -0.6289
32374W        W48508   7.434   1.156   0.142 -0.2335 -0.0071 -0.2877
32375W        W48509  18.642  19.071   3.566  0.1204  0.0505 -0.0935
32376W        W48510  10.485   5.027  11.476  0.0737 -0.1978 -0.2053
32377W        W48511  14.143  15.838   0.426  0.2282  0.2083 -0.0335
32378W        W48512  18.041   7.940   0.843 -0.0025 -0.1554  0.0418
32379W        W48513  17.084  15.042  12.125  0.2032  0.0077 -0.0410
32380W        W48514   5.614  12.715   5.147 -0.1250 -0.2814  0.2342
32381W        W48515  10.391  13.529   1.117 -0.1664 -0.0167 -0.2547
32382W        W48516  12.450  13.399  13.040 -0.0406 -0.3869  0.0849
32383W        W48517  10.712   8.330  11.903 -0.2261 -0.0366 -0.0845
32384W        W48518   8.595  15.832   3.557 -0.0360  0.3344 -0.1085
32385W        W48519   3.366   5.537   1.551 -0.0401  0.1392 -0.0978
32386W        W48520   3.197   7.592   1.878  0.0306 -0.1414 -0.0508
32387W        W48521   3.534   1.308  10.726 -0.0069  0.1995  0.2779
32388W        W48522  13.620   5.625  13.708  0.0888  0.0548 -0.4204
32389W        W48523  15.745  14.019  12.432  0.3854  0.0575  0.0093
32390W        W48524  18.634  10.783   2.257 -0.2589  0.0147  0.1142
32391W        W48525  18.483  15.809   5.127  0.3667 -0.2224 -0.2945
32392W        W48526  12.049   5.628  11.115 -0.1792  0.1089 -0.0365
32393W        W48527   9.217  10.579  13.791  0.0953  0.3723  0.0040
32394W        W48528  18.973   5.071   4.305 -0.1785 -0.1106  0.1750
32395W        W48529   8.597   2.072  11.496  0.1514 -0.0156 -0.0787
32396W        W48530   5.058   2.296  11.905 -0.1076  0.2424 -0.3166
32397W        W48531  11.734   5.056  13.988 -0.2227  0.2826  0.1005
32398W        W48532  16.809   2.969   4.245 -0.1396 -0.0583  0.0299
32399W        W48533   2.436  12.408  11.662  0.0510  0.3112  0.3071
32400W        W48534  13.735   0.285   3.763  0.0551 -0.2866 -0.3980
32401W        W48535   2.919   4.002  13.928 -0.0443 -0.1411  0.0003
32402W        W48536  13.576  18.337  13.384 -0.1779  0.1443  0.0919
32403W        W48537  16.778  15.244  13.172  0.1957 -0.1827 -0.1035
32404W        W48538   6.203  11.588   1.902  0.4665 -0.0663 -0.0132
32405W        W48539  18.753  18.684   1.979 -0.0635 -0.0800  0.0963
32406W        W48540   3.899   5.665  12.498 -0.2535  0.2295 -0.2683
32407W        W48541   9.216   5.446   1.275  0.0569  0.0836 -0.0620
32408W        W48542   9.676  15.496  14.971 -0.3132  0.0065  0.1553
32409W        W48543  15.060  12.000   1.107 -0.0523 -0.0714  0.3136
32410W        W48544  17.650  16.233   1.888  0.2116 -0.0171  0.0096
32411W        W48545  12.059   5.745  12.259 -0.1178 -0.2739  0.1000
32412W        W48546  11.334   3.043   1.335 -0.1126  0.1064 -0.3778
32413W        W48547  12.408   5.300   4.313 -0.0008  0.1467 -0.1187
32414W        W48548   6.490   4.148   4.632 -0.0044  0.0425 -0.0407
32415W        W48549  17.001   7.988  12.912  0.1190 -0.1805 -0.1629
32416W        W48550   6.007   2.159  13.765 -0.1814 -0.1682  0.0040
32417W        W48551   8.043  12.130  12.040 -0.0670  0.1817 -0.1809
32418W        W48552   1.769  10.542   4.623 -0.0002 -0.4001 -0.0840
32419W        W48553  15.079  17.586   0.024  0.0354 -0.0063  0.1254
32420W        W48554  10.021   4.920  12.363 -0.1545 -0.1034  0.1564
32421W        W48555  10.914  17.996  11.679 -0.1473 -0.0307 -0.0341
32422W        W48556  18.769  13.063  11.311 -0.0205 -0.0535  0.0078
32423W        W48557  10.694  13.963  10.785  0.1783 -0.1252  0.1475
32424W        W48558  13.035  16.869   1.279 -0.1461  0.3053 -0.1368
32425W        W48559  11.546   0.486   3.279  0.0364 -0.0856 -0.0509
32426W        W48560   6.774   5.595   3.162 -0.0102 -0.1034  0.0362
32427W        W48561  17.512   5.709  11.034  0.2913  0.0732 -0.1513
32428W        W48562   4.644   5.854   2.597  0.4519  0.1133 -0.0569
32429W        W48563   9.026   8.521  14.912 -0.3395  0.2172  0.4726
32430W        W48564   5.501   6.153   3.148 -0.0399 -0.1588  0.1452
32431W        W48565  16.085  10.333  13.747 -0.0304  0.1154 -0.2300
32432W        W48566  16.050  12.078  12.606 -0.0291 -0.1886 -0.1249
32433W        W48567  13.059   3.336  10.987 -0.0182  0.1190 -0.2413
32434W        W48568  11.103  18.815  10.540  0.3310 -0.3886 -0.0509
32435W        W48569   3.276  17.104  13.172  0.0549  0.2359  0.2525
32436W        W48570  16.202   7.659  13.147 -0.0273  0.1015 -0.0409
32437W        W48571   8.544   2.267  14.062  0.0365  0.1705 -0.1537
32438W        W48572  12.950   5.708   4.174  0.3048 -0.2399 -0.0369
32439W        W48573  15.076  12.324  13.794  0.0819 -0.0305 -0.2742
32440W        W48574  16.139  12.876  14.643  0.2038 -0.2218 -0.4775
32441W        W48575  13.468  17.660   3.672 -0.0918  0.0899 -0.2717
32442W        W48576   7.006  18.570  10.366 -0.3005  0.0382  0.0411
32443W        W48577   9.880  16.137   4.978  0.0421  0.1021  0.0203
32444W        W48578  16.293   2.497   0.078 -0.0319 -0.4678 -0.0073
32445W        W48579   3.535   6.074   4.029 -0.1076  0.2848  0.1505
32446W        W48580   5.327   5.911   3.527 -0.2126 -0.1095 -0.1084
32447W        W48581   5.059  17.106   5.009 -0.2193 -0.0434 -0.3697
32448W        W48582   8.167  14.157   4.675  0.1157 -0.1604  0.2767
32449W        W48583  18.319   7.616  10.402  0.1368  0.1007 -0.3063
32450W        W48584  13.316  17.323  14.141  0.1523  0.0433 -0.2180
32451W        W48585   9.787   0.346  12.570 -0.0457  0.0154  0.0039
32452W        W48586   6.150  14.322  12.213 -0.3635 -0.2479 -0.2434
32453W        W48587  11.634   9.133   4.200  0.3622  0.4585  0.0864
32454W        W48588   3.421  15.776  13.736 -0.0112  0.1868  0.0054
32455W        W48589  14.905  15.235   3.893 -0.2402 -0.2753  0.0266
32456W        W48590  10.670  18.486  11.816 -0.0774 -0.0300 -0.0869
32457W        W48591   8.502   2.013   0.644 -0.1826  0.1273  0.0616
32458W        W48592   6.206  13.065  10.554  0.1307  0.1718 -0.2605
32459W        W48593  10.992   2.792   4.884  0.6698 -0.1677  0.1063
32460W        W48594   4.986  17.319   3.342 -0.0428  0.3281 -0.0617
32461W        W48595   9.393   2.070  10.868 -0.1074  0.2899 -0.4041
32462W        W48596  15.548   8.624  11.501  0.3067  0.0697  0.2937
32463W        W48597  16.832   7.568  11.838  0.2392  0.2131  0.1915
32464W        W48598   4.534   3.294   2.172 -0.1894  0.0838 -0.3576
32465W        W48599  13.219  12.028   4.776  0.0204  0.1727  0.1210
32466W        W48600   3.893   1.698   1.480  0.0806 -0.0708  0.3148
32467W        W48601  15.476  10.386  14.491 -0.0537 -0.1443 -0.1042
32468W        W48602   1.863   6.065   0.510  0.3657  0.0601 -0.1453
32469W        W48603  15.277   2.725   4.373 -0.1076  0.2788  0.3971
32470W        W48604  12.076  13.189   5.088  0.2417 -0.3096 -0.2475
32471ION     NA48605  12.007   5.728   9.028 -0.0344  0.1687 -0.0382
32472ION     NA48606   6.276  11.887   5.334 -0.0101  0.0046  0.0637
32473ION     NA48607   4.069   1.049   5.361 -0.2602  0.1315  0.0828
32474ION     NA48608   5.745   1.727   1.803  0.1310 -0.0701 -0.2657
32475ION     NA48609  18.486  12.812   5.245  0.1556  0.2989 -0.5669
32476ION     NA48610  18.554   2.017   1.319 -0.0495 -0.1937  0.2626
32477ION     NA48611   1.853   0.194  14.129 -0.4083 -0.0102 -0.3607
32478ION     NA48612  18.081  16.703   4.610  0.1002  0.1382  0.2259
32479ION     NA48613   8.844   5.953  15.001 -0.2057  0.2493  0.3498
32480ION     NA48614   2.187  17.522   9.790 -0.0105  0.0741  0.0286
32481ION     NA48615  14.178   0.294   9.718 -0.0368 -0.0427  0.0992
32482ION     NA48616   5.499  18.910   2.529 -0.0789  0.1295  0.0989
32483ION     NA48617  19.020   8.858   3.250 -0.0508 -0.1424 -0.0356
32484ION     NA48618   5.775   6.763  11.631  0.1857 -0.0852 -0.3208
32485ION     NA48619   0.557   7.455   1.399 -0.0673 -0.0960 -0.0989
32486ION     NA48620  18.728   9.341  11.520 -0.1764  0.0354 -0.2190
32487ION     NA48621  16.666  13.701  12.824 -0.1067 -0.1288  0.1406
32488ION     NA48622  10.377  11.560   4.892  0.1113  0.0341 -0.0116
32489ION     NA48623   6.495  11.150   9.863  0.2990 -0.0524 -0.0943
32490ION     NA48624   2.320   5.734   9.683 -0.1009  0.2278 -0.0755
32491ION     NA48625  11.189  13.567  13.598 -0.2795  0.1904  0.3133
32492ION     NA48626  10.694  11.470   3.995  0.1172  0.3502  0.2323
32493ION     NA48627   0.451   3.251   9.589 -0.0842 -0.2277  0.1456
32494ION     NA48628  17.161   6.587  12.679  0.0599  0.1381 -0.2608
32495ION     NA48629   1.242  18.440   9.904  0.0915 -0.2078  0.0964
32496ION     NA48630   0.808  11.931  11.635  0.1156  0.2468 -0.4400
32497ION     NA48631  10.331   2.682   9.972  0.1367  0.0925 -0.0716
32498ION     NA48632  14.185   4.694  11.406 -0.2229  0.1620  0.2305
32499ION     NA48633  14.779   6.357   9.401 -0.0776 -0.1756  0.1445
32500ION     NA48634   5.792  12.126   9.828  0.1100 -0.1941  0.1932
32501ION     NA48635   2.273   1.749   5.461  0.1063  0.0278 -0.0476
32502ION     NA48636  18.074  12.687   4.700 -0.0003 -0.0515 -0.0932
32503ION     NA48637  16.838  14.591   1.349  0.0740 -0.2524  0.2288
32504ION     NA48638   3.714   8.358   3.602 -0.0396 -0.2053 -0.0831
32505ION     NA48639  10.323   5.990   9.459 -0.4670 -0.1252  0.0792
32506ION     NA48640   7.245  18.250   2.946  0.2661  0.1579 -0.2796
32507ION     NA48641  16.318   6.143   9.464 -0.1087 -0.1187 -0.1460
32508ION     NA48642  13.490  12.945   5.843 -0.0232 -0.0158 -0.1734
32509ION     NA48643   2.716  13.230   9.760  0.6154  0.1565 -0.1666
32510ION     NA48644  17.303   5.440   5.310 -0.0166 -0.0154  0.1436
32511ION     NA48645   2.472   8.939   9.644 -0.0201 -0.2464  0.2445
32512ION     NA48646  16.824   3.923   9.685  0.0395  0.1806 -0.0623
32513ION     NA48647   2.933  11.953   5.297  0.1259 -0.1261 -0.0601
32514ION     NA48648   2.879   9.258   0.337  0.4490  0.3565 -0.2029
32515ION     NA48649  14.951   9.061  14.812  0.2051 -0.2557 -0.0896
32516ION     NA48650   1.541  14.989   9.903  0.3954 -0.0812  0.2886
32517ION     NA48651   6.556  18.675   9.414 -0.2832  0.1133 -0.0848
32518ION     NA48652  18.770  17.737   1.798 -0.0058 -0.0197  0.0471
32519ION     NA48653  12.153  10.543   1.458  0.3441 -0.1165  0.1618
32520ION     NA48654  17.963   3.007   9.791 -0.2567  0.2654  0.0328
32521ION     NA48655  18.643  12.982   9.699  0.1008  0.0645 -0.0036
32522ION     NA48656   0.438  17.048  12.994  0.0386  0.1466  0.1786
32523ION     NA48657   8.048  13.799   5.513 -0.0481  0.4370 -0.4086
32524ION     NA48658  18.066   5.307   9.710 -0.0023 -0.3497 -0.0794
32525ION     NA48659   5.297   3.365   9.893 -0.1418  0.1494  0.0698
32526ION     NA48660   7.794  14.429   4.803 -0.2264  0.2187  0.0268
32527ION     NA48661  14.455  12.694   2.388 -0.1950  0.0079 -0.0214
32528ION     NA48662   0.628  16.185  10.026 -0.0212 -0.2081 -0.0868
32529ION     NA48663   0.175   2.091   5.511 -0.3974 -0.0974  0.1091
32530ION     NA48664  14.705   4.249  14.758 -0.3507  0.2210  0.2039
32531ION     NA48665   0.668  14.142  12.288 -0.1753  0.0026  0.1815
32532ION     NA48666  17.932   0.345   9.923  0.0375  0.3213  0.0982
32533ION     NA48667  12.636   8.258   3.380  0.2776  0.2327  0.3567
32534ION     NA48668  10.709  10.539   9.804  0.2510 -0.2067 -0.0068
32535ION     NA48669  10.562   7.316   9.343  0.1781  0.0529 -0.1007
32536ION     NA48670   2.957   5.357   3.201  0.0245 -0.1999  0.2550
32537ION     NA48671   1.233  19.035   3.138  0.1660 -0.0187 -0.0439
32538ION     NA48672   2.798   7.968   9.479 -0.0794 -0.2399 -0.0818
32539ION     NA48673   1.916  10.023   4.769 -0.1167 -0.3011  0.2123
32540ION     NA48674  17.519   3.860   0.035  0.0289  0.1151 -0.0680
32541ION     NA48675  17.163   1.627   5.106 -0.1529 -0.0875 -0.2554
32542ION     NA48676   9.684   4.242  14.470  0.0351  0.3733 -0.0272
32543ION     NA48677  13.453   2.941   3.042 -0.1735 -0.1732 -0.2687
32544ION     NA48678   2.330   1.867   9.998  0.0116 -0.1797  0.0858
32545ION     NA48679   2.355   4.941   4.462  0.0971 -0.1690 -0.4219
32546ION     NA48680   8.541   0.892   1.841 -0.1360 -0.2449 -0.0976
32547ION     NA48681   7.392   5.452  11.777 -0.1596 -0.3768  0.2353
32548ION     NA48682   9.093   6.046   2.399 -0.0487  0.0244  0.3460
32549ION     NA48683  12.688  11.860   2.604  0.0547 -0.0371 -0.2705
32550ION     NA48684   7.533   0.851   5.226  0.1521  0.1607 -0.4727
32551ION     NA48685   2.741   7.665   5.870 -0.2743 -0.0508 -0.0419
32552ION     NA48686   2.001  15.933   1.280 -0.1045 -0.1895  0.0859
32553ION     NA48687   5.190  16.686   1.500  0.1502 -0.1587 -0.0798
32554ION     NA48688  18.324   5.833  11.036 -0.1681 -0.1056  0.0443
32555ION     NA48689  17.811  10.195  11.870  0.1190  0.1119  0.1660
32556ION     NA48690  19.149  16.372  12.308 -0.2215 -0.0093 -0.1553
32557ION     NA48691  12.751  13.161   3.117 -0.0116 -0.3824  0.1009
32558ION     NA48692  10.257   7.103  14.579  0.1486 -0.3019  0.1026
32559ION     NA48693  13.249   7.688   9.699 -0.1216 -0.1987 -0.3635
32560ION     NA48694  14.748   5.771   2.589 -0.2517  0.1652  0.1100
32561ION     NA48695   7.204  16.629   0.730 -0.1166 -0.2419 -0.2155
32562ION     NA48696  10.154   6.911   1.365  0.1068 -0.2577 -0.3895
32563ION     NA48697   0.769   4.506  10.037  0.2357  0.2853 -0.1061
32564ION     NA48698  13.528  10.780  10.290  0.2962  0.0942  0.1332
32565ION     NA48699  12.422   9.190   4.522 -0.2776  0.2473 -0.1907
32566ION     NA48700   1.871   1.267   1.565 -0.1955 -0.3396  0.0999
32567ION     NA48701   3.168  11.172   1.728  0.3419  0.0644 -0.0243
32568ION     NA48702   3.223  12.334   9.801 -0.2238 -0.0323 -0.0889
32569ION     NA48703   6.771  10.415   5.060 -0.0909 -0.0763 -0.0193
32570ION     NA48704   9.256  12.731  10.008 -0.1316  0.0116 -0.1558
32571ION     NA48705   8.292  13.619   4.815  0.2097 -0.0873  0.0516
32572ION     NA48706  16.084   6.486  14.439 -0.0900 -0.4456 -0.1165
32573ION     NA48707   9.914  17.483   0.454  0.5887  0.3143 -0.1396
32574ION     NA48708   7.387  10.908   9.595 -0.1144 -0.0955  0.2623
32575ION     NA48709  16.533   3.013  11.073 -0.0095  0.1267  0.1203
32576ION     NA48710  12.449  15.759   0.951  0.0267 -0.1576 -0.0050
32577ION     NA48711   2.721   2.839   3.491  0.1358 -0.1070  0.1794
32578ION     NA48712  12.953   2.086   3.690  0.1264 -0.0167 -0.4354
32579ION     NA48713   8.486   0.444  14.766  0.0253  0.0512 -0.3123
32580ION     NA48714   7.249   7.433  10.997  0.0824 -0.3583  0.0516
32581ION     NA48715  17.490  18.307  11.811  0.0569  0.1360 -0.0759
32582ION     NA48716  16.724   0.111   9.645 -0.0499 -0.2098  0.1507
32583ION     NA48717  14.502  14.485   1.383 -0.2030 -0.0418 -0.1931
32584ION     NA48718   1.852  17.389   5.051  0.1280 -0.2117  0.1229
32585ION     NA48719  16.530  16.134  14.329 -0.1461 -0.2692  0.1269
32586ION     NA48720  18.025  12.314   9.580  0.4912  0.0125  0.0868
32587ION     NA48721   1.655  18.954   1.364  0.1580 -0.0463 -0.1834
32588ION     NA48722   3.244  12.497   2.878 -0.1580  0.0673  0.1664
32589ION     NA48723  18.642   8.210   4.028  0.1580 -0.0939 -0.1199
32590ION     NA48724  11.902  16.463  13.987  0.0735 -0.0438  0.0018
32591ION     NA48725  18.597   0.341   9.623  0.2078 -0.2387  0.0922
32592ION     NA48726  10.623   1.236  11.101 -0.2321  0.0174  0.0355
32593ION     NA48727  18.769   8.375  12.089 -0.2853  0.2238  0.0067
32594ION     NA48728   4.763  16.591   2.798 -0.0930  0.0439 -0.2820
32595ION     NA48729   7.140   5.894   1.522 -0.1630  0.2257  0.2718
32596ION     NA48730   2.852  19.226   1.039  0.3483 -0.1994  0.0626
32597ION     NA48731   3.416   1.517   1.444 -0.4979 -0.1355 -0.0938
32598ION     NA48732  10.914  10.326   5.065  0.2441 -0.1524  0.1173
32599ION     NA48733  16.515  17.321   0.212 -0.0247 -0.2432 -0.2956
32600ION     NA48734  11.216  15.618   5.258 -0.1079  0.0769  0.0659
32601ION     NA48735   5.100   7.638   9.474 -0.2364 -0.0224  0.2229
32602ION     NA48736  18.318  14.365   9.757  0.3096 -0.0076  0.1641
32603ION     NA48737   5.078  10.749   0.817  0.1531 -0.2296 -0.0469
32604ION     NA48738   2.400  15.469   9.651  0.2172 -0.1812  0.1925
32605ION     NA48739  14.423   2.061   4.385  0.0165 -0.3550  0.3475
32606ION     NA48740   9.442  14.887   9.442 -0.0512  0.0465 -0.3487
32607ION     NA48741   2.627  14.011   3.752 -0.3802 -0.1068 -0.2524
32608ION     NA48742   6.914   2.885   0.376 -0.0525 -0.3544 -0.2367
32609ION     NA48743  10.412   3.277   5.326 -0.1220  0.0735  0.1191
32610ION     NA48744  11.345   6.698   4.950  0.2159 -0.0438  0.2524
32611ION     NA48745  16.206  17.394  10.004  0.2463  0.1621  0.4063
32612ION     NA48746  18.112   0.622   2.973  0.1529  0.1331  0.0981
32613ION     NA48747   7.530   8.099  13.991  0.0111  0.1031 -0.2691
32614ION     NA48748   8.730   2.930   3.301 -0.3646 -0.0787 -0.1095
32615ION     NA48749   6.801   9.556   9.519  0.0061  0.0852  0.0896
32616ION     NA48750  15.189  12.091   5.954 -0.0002 -0.0950  0.0505
32617ION     NA48751   5.983   9.458   9.654 -0.1514  0.1231 -0.3328
32618ION     NA48752  16.681   2.373   2.436 -0.4137 -0.1419 -0.0239
32619ION     NA48753   2.915   6.587   5.279  0.1171 -0.0296 -0.0749
32620ION     NA48754  16.176  15.690   5.624  0.0342  0.1452  0.2757
32621ION     NA48755  15.093   0.596   4.874 -0.0587 -0.1278  0.0998
32622ION     NA48756   9.067  15.028   3.549 -0.1353 -0.2270  0.3110
32623ION     NA48757  15.586   5.705   3.137  0.0816  0.1678 -0.1317
32624ION     NA48758   7.058   1.203   9.794  0.2342 -0.1835  0.0211
32625ION     NA48759  11.938  14.927   5.188  0.2491 -0.0871  0.2784
32626ION     NA48760   8.970  16.750   2.518 -0.0234  0.5280 -0.2092
32627ION     NA48761  16.709  12.424   2.459 -0.2310 -0.1479  0.1719
32628ION     NA48762   0.082  13.832   3.184  0.1037 -0.5728 -0.0694
32629ION     NA48763   3.010   1.389   2.421 -0.3393  0.1599  0.0127
32630ION     NA48764  14.228  16.394  10.744  0.0193 -0.5308 -0.0164
32631ION     NA48765  18.149   0.945  14.207 -0.0704  0.1642 -0.2107
32632ION     NA48766   9.633  13.536  14.814  0.1153  0.0013  0.4584
32633ION     NA48767   1.597   3.521   3.808 -0.0582  0.0150 -0.0448
32634ION     NA48768   3.404   0.519  11.879 -0.1300  0.0357 -0.1779
32635ION     NA48769  13.797  11.180   0.662 -0.3664 -0.3764  0.0877
32636ION     NA48770  16.590  12.474   4.771 -0.0360  0.1073 -0.0098
32637ION     NA48771  11.702  17.974   5.378 -0.3836 -0.2470  0.0462
32638ION     NA48772  18.717   5.956   9.852 -0.1594  0.1858  0.0806
32639ION     NA48773  16.999   9.727   2.181 -0.0621  0.6661  0.2755
32640ION     NA48774  18.011  16.926  10.285  0.1231 -0.1378 -0.1699
32641ION     NA48775   4.210   7.243   5.245  0.3525 -0.1709 -0.0291
32642ION     NA48776   0.136  19.209   9.976  0.0215  0.0028 -0.0468
32643ION     NA48777  12.918   6.752  14.727 -0.2868 -0.0837  0.0424
32644ION     NA48778  12.254   6.073   1.415  0.2791 -0.2464  0.0921
32645ION     NA48779  16.139   5.336   0.592 -0.0599  0.2020 -0.0070
32646ION     NA48780  13.295  11.080   2.840  0.2212  0.0565 -0.1213
32647ION     NA48781  11.760   1.612   9.757  0.2051  0.0067  0.0391
32648ION     NA48782  18.291   0.089   2.213 -0.1732  0.0440 -0.3517
32649ION     NA48783  15.848  15.524   1.534 -0.3343 -0.2249 -0.1420
32650ION     NA48784   8.848  15.788   9.872  0.1165 -0.0724  0.1847
32651ION     NA48785  14.933  12.006   2.884  0.1596  0.1762 -0.1504
32652ION     NA48786  19.033  17.023   4.947 -0.0383  0.1507  0.0394
32653ION     NA48787  16.099  18.453   9.986  0.0677  0.0136  0.4068
32654ION     NA48788   1.893   7.533   9.705 -0.0447 -0.0275  0.2616
32655ION     NA48789  15.423  18.704  14.056  0.0621  0.0279 -0.3745
32656ION     NA48790  16.755  12.935   5.503  0.1001  0.4574 -0.0858
32657ION     NA48791  16.657  18.913   2.855 -0.0327  0.2078 -0.0936
32658ION     NA48792   5.051  11.205   0.613 -0.0079  0.2307  0.2336
32659ION     NA48793  12.621   6.078   9.309  0.1326  0.3159 -0.0982
32660ION     NA48794   4.639   6.418   9.841 -0.1120 -0.1202  0.1964
32661ION     NA48795  16.231  13.238   3.208  0.2913 -0.0600  0.3608
32662ION     NA48796  19.066  15.575  10.260  0.0944 -0.0222 -0.1424
32663ION     NA48797  13.954   0.827   0.586  0.2154  0.2202  0.0624
32664ION     NA48798  16.981   7.408   9.458  0.4084  0.1316 -0.1204
32665ION     NA48799  13.293   9.179   9.579  0.0924 -0.1410  0.2380
32666ION     NA48800  13.886  18.498   1.454 -0.1748  0.1299  0.1178
32667ION     NA48801   9.478   4.401   9.523 -0.0706  0.0186  0.1182
32668ION     NA48802   8.407   1.984   4.824  0.0896  0.0408  0.1525
32669ION     NA48803   0.596   9.741  13.872 -0.0366  0.1764 -0.2046
32670ION     NA48804  17.805   1.385   5.484 -0.2374 -0.2227  0.2024
32671ION     NA48805  11.982   2.082   2.008  0.5659 -0.0660  0.0623
32672ION     NA48806   5.656  14.619  13.696  0.4848 -0.0131 -0.1892
32673ION     NA48807  16.076   6.841   1.353 -0.1039  0.0582 -0.0866
32674ION     NA48808   9.903  11.662   1.749 -0.2783 -0.1063  0.1242
32675ION     NA48809   3.599   7.363  13.619  0.2093 -0.1338  0.1709
32676ION     NA48810  14.305  13.208   5.035  0.2881 -0.0307 -0.2806
32677ION     NA48811   3.867  13.457  14.245  0.1545 -0.0975  0.1044
32678ION     NA48812  17.609   1.802   4.940  0.0229  0.1209 -0.0261
32679ION     NA48813   5.245  12.281  10.123  0.1170 -0.2319  0.0657
32680ION     NA48814  17.104   3.148   2.813 -0.2820 -0.1037 -0.1514
32681ION     NA48815  14.051  15.522  15.037  0.2205 -0.2356  0.4609
32682ION     NA48816  17.992  15.444  12.978 -0.1841  0.2499  0.4316
32683ION     NA48817  12.893  17.752  13.584 -0.0902  0.4249  0.0774
32684ION     NA48818   2.143   5.995  11.699 -0.1346  0.4275  0.2660
32685ION     NA48819  13.301   0.268  10.285  0.1754 -0.0257  0.0283
32686ION     NA48820  11.847  16.405   9.709  0.1649 -0.2354 -0.0191
32687ION     NA48821   6.882   1.611   4.923 -0.0021 -0.1464  0.1237
32688ION     NA48822  10.782   4.402  11.231 -0.4747 -0.1160 -0.3304
32689ION     NA48823  16.079   2.147  12.585  0.0710 -0.0057  0.0775
32690ION     NA48824   9.683  12.308   0.533  0.1672 -0.0843 -0.1824
32691ION     NA48825  10.594   2.667   1.981  0.1562 -0.1003 -0.0611
32692ION     NA48826   5.847   0.837   9.629  0.1491  0.0498  0.0108
32693ION     NA48827  16.934   2.835  13.819 -0.0282  0.1320  0.0217
32694ION     NA48828   4.216  17.438   5.345 -0.3335  0.0461 -0.2084
32695ION     NA48829   1.225   8.853  13.918  0.2110 -0.0325  0.0274
32696ION     NA48830   1.485  10.241   9.634  0.2457 -0.2477  0.0141
32697ION     NA48831   3.400  13.086  10.736 -0.2761 -0.1875  0.1317
32698ION     NA48832   3.067  15.153   5.894 -0.2725  0.2734  0.0520
32699ION     NA48833  14.263   9.873  13.357  0.1869  0.0617  0.0932
32700ION     NA48834   4.621   8.068  14.481  0.0322  0.0979 -0.2799
32701ION     NA48835   6.850  12.714  14.525  0.1429 -0.1808  0.0417
32702ION     NA48836  13.934  13.779   5.781  0.0221  0.1688 -0.0404
32703ION     NA48837  14.497  19.091  13.002 -0.1021  0.0230  0.1170
32704ION     NA48838  18.550  14.997   9.869 -0.1646 -0.0140  0.0101
32705ION     NA48839   6.037  15.417   3.190 -0.0640 -0.1629 -0.0017
32706ION     NA48840   6.019  10.917  12.804 -0.0926 -0.0616  0.0014
32707ION     NA48841   8.476   8.113   4.818 -0.4285  0.0065 -0.1899
32708ION     NA48842   1.834   5.740   3.782 -0.0075  0.4087  0.0258
32709ION     NA48843   9.266  17.868   9.728  0.2733  0.1398 -0.2143
32710ION     NA48844  11.276  14.676   5.830 -0.2333  0.1522 -0.1977
32711ION     NA48845  13.343  11.600  13.062  0.2136 -0.0951 -0.3469
32712ION     NA48846   2.390   2.768   9.808  0.2148 -0.4142  0.4833
32713ION     NA48847   0.098   3.765  13.975  0.0669 -0.1346  0.1343
32714ION     NA48848   1.680   3.760   0.699 -0.0699 -0.2465 -0.1018
32715ION     NA48849   6.898  16.422   0.060 -0.0808  0.0292  0.0676
32716ION     NA48850   0.207   6.266   5.715 -0.1277 -0.0738 -0.1641
32717ION     NA48851   6.813  11.372   1.296  0.0929 -0.5130 -0.0049
32718ION     NA48852  15.188  14.801   5.530  0.0708  0.2402 -0.1744
32719ION     NA48853  17.493  17.141   5.620  0.3806  0.1161 -0.1683
32720ION     NA48854   1.769  13.567  14.474 -0.1787 -0.0985  0.3283
32721ION     NA48855  10.566  17.704   5.454 -0.1525 -0.2234 -0.1357
32722ION     NA48856   2.071   6.630   5.635 -0.1597  0.4324  0.0146
32723ION     NA48857   7.617   6.199   9.866 -0.1183 -0.2658 -0.2223
32724ION     NA48858   8.493   0.301   0.665 -0.1235 -0.0637 -0.0705
32725ION     NA48859  11.607   9.703   4.166 -0.0960 -0.0038  0.0029
32726ION     NA48860   2.452  10.099   4.424  0.1115 -0.0792 -0.3260
32727ION     NA48861   7.091  14.693   1.281 -0.1369 -0.2237  0.1853
32728ION     NA48862   4.780  12.824   1.977 -0.0555 -0.1931  0.1746
32729ION     NA48863   0.354  12.358  12.668  0.1899  0.0040  0.4602
32730ION     NA48864   8.001  16.053  13.698  0.0005 -0.2327 -0.0276
32731ION     NA48865  18.915   3.820  12.240  0.1873  0.0142 -0.0289
32732ION     NA48866  13.832  17.849   5.425  0.0574 -0.1734 -0.2306
32733ION     NA48867   8.623  18.687   9.596  0.0051  0.1257 -0.1487
32734ION     NA48868  18.081   7.968  11.961 -0.1395  0.2444  0.1479
32735ION     NA48869   4.980   8.057   1.596  0.3040 -0.0595 -0.0327
32736ION     NA48870  10.148  14.308   3.641  0.0055 -0.0710 -0.0129
32737ION     NA48871   2.458   0.543   4.090 -0.2202  0.0892 -0.2164
32738ION     NA48872   3.811   1.438   9.971  0.2036  0.0069  0.4599
32739ION     NA48873   9.400   8.320   9.392  0.0547  0.0059 -0.3399
32740ION     NA48874   7.805   4.235   4.663 -0.1680 -0.1865 -0.1034
32741ION     NA48875   1.965  14.208  10.072  0.1277  0.2916 -0.1387
32742ION     NA48876   5.698   6.111   0.022  0.0987  0.1907  0.0985
32743ION     NA48877  15.993  12.692   3.869 -0.1475  0.1348  0.2515
32744ION     NA48878  16.812  10.404   0.864  0.0739 -0.1384 -0.1601
32745ION     NA48879   1.201  17.729   1.159 -0.0751  0.0042  0.1849
32746ION     NA48880   2.389  11.916   9.842 -0.0363 -0.2544  0.0905
32747ION     NA48881   3.407  13.080   9.689 -0.2794 -0.0393 -0.0146
32748ION     NA48882  15.212   4.502   9.488  0.2878 -0.2603 -0.0883
32749ION     NA48883   5.109  16.141  11.075  0.1979 -0.1957 -0.1165
32750ION     NA48884   4.598   8.692   5.112 -0.3075  0.2578 -0.0165
32751ION     NA48885   6.898   1.906   3.469 -0.0011  0.5370 -0.2349
32752ION     NA48886  16.565  19.162   5.614 -0.0467  0.0320  0.1414
32753ION     NA48887   2.346   2.856   0.691 -0.0868  0.0644  0.1381
32754ION     NA48888   4.685   5.482   9.559  0.1854 -0.3117 -0.1365
32755ION     NA48889  11.785  14.916   1.470  0.1991  0.0844 -0.0610
32756ION     NA48890   1.202  14.627   5.332  0.1323 -0.3933 -0.4614
32757ION     NA48891   6.514   3.917  13.193 -0.2293 -0.0548 -0.0571
32758ION     NA48892   8.588  12.460   5.481 -0.1521 -0.0505 -0.1434
32759ION     NA48893   7.274   1.989  14.232  0.3269 -0.0811  0.0193
32760ION     NA48894  18.744  18.673   3.295  0.0213 -0.8363  0.1251
32761ION     NA48895   6.581  17.111   2.334  0.1013  0.2396 -0.0199
32762ION     NA48896  13.716   1.537   9.648  0.2024  0.0933  0.0965
32763ION     NA48897   7.980  17.034  13.616 -0.4714  0.2420  0.3676
32764ION     NA48898   2.873  18.323   1.885  0.0928 -0.0559  0.1656
32765ION     NA48899   5.549  11.207   9.725 -0.0658  0.1443  0.0145
32766ION     NA48900  18.949   7.902   9.647  0.0335 -0.0108  0.0704
32767ION     NA48901  16.786   7.508   5.385  0.3809  0.2601 -0.1236
32768ION     NA48902   2.506   5.365   5.107  0.3349 -0.0860 -0.3533
32769ION     NA48903  12.976   6.825  13.693 -0.0916  0.2329 -0.2599
32770ION     NA48904   7.100  18.392   5.310  0.2517 -0.0573 -0.3715
32771ION     NA48905  17.235   4.750   9.824 -0.1694 -0.1286  0.1186
32772ION     NA48906   7.163  14.564   9.843  0.0197  0.1577 -0.0861
32773ION     NA48907  11.030  19.105   9.549  0.0654 -0.0445  0.0151
32774ION     NA48908   1.682  12.623   9.852 -0.1384 -0.1253  0.1161
32775ION     NA48909  15.393   7.828   3.037  0.1699 -0.0706  0.0178
32776ION     NA48910   3.390   9.475   2.575  0.4026  0.0413  0.3501
32777ION     NA48911   1.991   8.234   9.517 -0.1557 -0.1497 -0.0723
32778ION     NA48912   3.914   2.148  13.364  0.2368 -0.0663 -0.2974
32779ION     NA48913   8.442   8.657   9.418  0.0437 -0.2253  0.3182
32780ION     NA48914  13.388  10.815   1.347  0.0156  0.2496  0.1758
32781ION     NA48915  17.455  14.497   9.950 -0.0410  0.1477  0.3175
32782ION     NA48916   0.999  13.286  10.101 -0.2201 -0.3162  0.3392
32783ION     NA48917  12.623   7.019  10.747  0.0627  0.1961  0.1732
32784ION     NA48918  17.536  12.039   0.670  0.1026  0.1671 -0.0063
32785ION     NA48919   8.620  18.554   2.027 -0.0498  0.0654  0.1650
32786ION     NA48920  11.289   2.758   5.281 -0.1717 -0.0293 -0.7186
32787ION     NA48921  16.650  14.653   4.983  0.1745  0.2115  0.4239
32788ION     NA48922   2.719   1.682   4.873 -0.1658  0.0413 -0.0766
32789ION     NA48923   3.562  14.966  14.188  0.1729 -0.0028 -0.1879
32790ION     NA48924  16.523  10.718   4.199  0.1320 -0.0232 -0.0745
32791ION     NA48925   0.502  17.291  10.034  0.1528 -0.1274  0.1450
32792ION     NA48926  15.371  18.089   9.740 -0.0141  0.0644  0.0222
32793ION     NA48927   9.692   9.260   9.688  0.0557  0.2633 -0.0403
32794ION     NA48928   5.383  18.497  14.870  0.3144  0.1424 -0.1525
32795ION     NA48929  12.355  17.985  10.280  0.0018 -0.1681 -0.0494
32796ION     NA48930  13.117   0.435   2.104  0.0294  0.1254 -0.3383
32797ION     NA48931   8.229   3.897   1.691 -0.1807  0.0845  0.0974
32798ION     NA48932   9.829   3.587   2.758 -0.0414  0.0933  0.1709
32799ION     NA48933  12.364   7.350   9.581  0.2718 -0.0863 -0.1631
32800ION     NA48934   2.630  17.400  14.030 -0.2138 -0.0452  0.1209
32801ION     NA48935  18.120  18.127   5.408 -0.5051 -0.0465  0.1927
32802ION     NA48936  18.995  16.600  10.341  0.1154  0.0089 -0.3688
32803ION     NA48937   3.142   3.815   9.796  0.0749 -0.4349  0.1440
32804ION     NA48938  13.538  15.696  13.108 -0.1368  0.0614  0.1712
32805ION     NA48939   3.338  18.361   9.496  0.3445 -0.0277 -0.0156
32806ION     NA48940   8.645   9.762   5.224 -0.0608  0.1038 -0.2860
32807ION     NA48941  12.608   1.989   4.545  0.2470 -0.0277 -0.2632
32808ION     NA48942  15.411  13.909   5.698  0.4115  0.1384  0.0484
32809ION     NA48943   1.276   2.619   3.743  0.2381  0.2845  0.1120
32810ION     NA48944   6.308   8.658  14.838 -0.0204 -0.0749  0.0673
32811ION     NA48945   9.833  14.772   5.618 -0.0912 -0.1763 -0.2240
32812ION     NA48946   5.837  11.382   3.564  0.3612 -0.1637 -0.4503
32813ION     NA48947   4.183  18.201   9.440 -0.1528  0.0386  0.0662
32814ION     NA48948  12.991   9.923   9.897 -0.2242 -0.0670 -0.0043
32815ION     NA48949  11.362  17.107   0.885 -0.0497  0.3528  0.0347
32816ION     NA48950  17.274   2.992   1.336  0.2970 -0.1185 -0.2229
32817ION     NA48951   3.473   3.136  12.170 -0.0568  0.3028  0.2399
32818ION     NA48952   2.935   1.779   3.889  0.0833  0.1070  0.1382
32819ION     NA48953  17.823   7.083   9.889 -0.1725  0.0963 -0.2359
32820ION     NA48954   5.000  18.097  14.148  0.1575  0.2695 -0.1358
32821ION     NA48955   4.934  16.553   9.788 -0.1648 -0.0880 -0.1520
32822ION     NA48956   4.231   7.270   9.552 -0.0529 -0.1900  0.0884
32823ION     NA48957   0.905   5.407   9.743 -0.4078  0.1401 -0.1244
32824ION     NA48958  18.629  17.583   0.491 -0.0534 -0.3097  0.0181
32825ION     NA48959   2.676  13.398  11.846  0.4868  0.0389 -0.1666
32826ION     NA48960   4.505   8.363   0.003  0.3379 -0.0458 -0.1844
32827ION     NA48961  18.843   1.280   9.870 -0.1067 -0.2235  0.3056
32828ION     NA48962  13.693   4.183   5.150 -0.1745  0.0167  0.0810
32829ION     NA48963   9.110   2.604   9.283 -0.1999 -0.1213  0.1342
32830ION     NA48964   5.039   5.124  12.748  0.2015  0.0170  0.0177
32831ION     NA48965  18.372  10.774   5.342 -0.2029 -0.0990 -0.2398
32832ION     NA48966  18.879  12.132   3.347  0.1417  0.0072  0.0576
32833ION     NA48967  17.626  14.629   0.757 -0.1594 -0.1322  0.3688
32834ION     NA48968   5.836   0.166   0.231  0.0853  0.0415 -0.3120
32835ION     NA48969   3.142   5.127   9.899  0.2317 -0.4096  0.0059
32836ION     NA48970   2.644   7.061  13.989  0.1269  0.0730 -0.2444
32837ION     NA48971   4.154  17.621   4.087 -0.0798  0.0077  0.3552
32838ION     NA48972   5.924   5.051   9.075 -0.3835 -0.2023  0.1366
32839ION     NA48973   0.275  12.600  10.184 -0.4325 -0.0761 -0.1434
32840ION     NA48974   4.363   3.536  11.968  0.0481 -0.2441  0.0777
32841ION     NA48975  14.514  10.257   4.025  0.1214  0.0144 -0.2493
32842ION     NA48976   4.195   9.332   0.630  0.0035  0.2474 -0.2082
32843ION     NA48977  10.943   3.193   0.373 -0.1825  0.0050 -0.2021
32844ION     NA48978   7.962  19.073   1.400  0.0010 -0.0098 -0.1305
32845ION     NA48979   6.510  15.918   9.885 -0.0098 -0.1674  0.1744
32846ION     NA48980  15.386   5.208   9.270  0.0610 -0.0537 -0.0540
32847ION     NA48981   0.756  10.480   5.493  0.2906 -0.1804  0.1040
32848ION     NA48982  10.501  11.370  12.462 -0.1933  0.3190 -0.0310
32849ION     NA48983   6.261   1.685  10.146 -0.0475  0.2275 -0.0948
32850ION     NA48984   9.344   4.897  11.685  0.1288 -0.1707  0.1458
32851ION     NA48985  11.360   4.310   4.326 -0.2660  0.0879  0.1905
32852ION     NA48986   6.324  15.852  13.595 -0.0239  0.2446 -0.0997
32853ION     NA48987  14.943  10.025  10.063 -0.2050 -0.2115  0.1488
32854ION     NA48988   4.694   7.138   4.867  0.0910  0.1286 -0.0745
32855ION     NA48989  16.764  11.755   9.687  0.0902  0.0862 -0.3659
32856ION     NA48990  12.614   4.057   9.540  0.1016  0.0204  0.2173
32857ION     NA48991  11.585   9.679   0.097  0.1421  0.2612  0.0694
32858ION     NA48992  16.693   6.432   9.675  0.0023  0.3748 -0.0787
32859ION     NA48993   6.397  17.932   2.803  0.1796 -0.0569 -0.0397
32860ION     NA48994   8.128   3.557   9.669 -0.0270  0.0570 -0.1398
32861ION     NA48995   8.140   0.069   4.600 -0.1631  0.1391  0.1299
32862ION     NA48996  13.676  13.397  14.344 -0.0576 -0.0925  0.1470
32863ION     NA48997   7.561   6.329   8.993  0.2819 -0.0286  0.0986
32864ION     NA48998   2.175   8.685   4.589 -0.1361  0.1212  0.2211
32865ION     NA48999   4.107  10.637  10.144  0.0327 -0.3255 -0.1984
32866ION     NA49000   1.404   2.918   9.972 -0.2357 -0.5129  0.3147
32867ION     NA49001   1.841   6.564   9.993  0.1952  0.2874 -0.0488
32868ION     NA49002   3.453   7.049   2.461  0.1650 -0.3841 -0.0740
32869ION     NA49003   4.596  14.573  12.226  0.0045  0.3854 -0.2421
32870ION     NA49004   6.373  14.899  10.044  0.0792  0.2950  0.0786
32871ION     NA49005   5.737   8.400   9.232 -0.1467  0.0462  0.0009
32872ION     NA49006  16.271   3.330   5.625 -0.2445 -0.2208  0.0273
32873ION     NA49007   2.330  11.461   4.035  0.2254 -0.1392  0.2820
32874ION     NA49008  18.240   4.045   1.340  0.0633 -0.1529  0.1938
32875ION     NA49009  13.486   5.290  13.226 -0.1280  0.2206 -0.0854
32876ION     NA49010   7.486   2.836   9.511 -0.3627 -0.0081 -0.2160
32877ION     NA49011   3.923   0.486   9.709  0.0463  0.1509  0.1767
32878ION     NA49012   8.698   5.885   5.022  0.1039  0.0307  0.0641
32879ION     NA49013   3.221  17.599   3.057  0.1609  0.1625  0.1297
32880ION     NA49014  14.611  11.605   5.786 -0.1991 -0.1860 -0.3584
32881ION     NA49015   1.804  12.054   5.595  0.0556  0.1329  0.1462
32882ION     NA49016  17.880  10.053  14.736 -0.0155 -0.3561 -0.0606
32883ION     NA49017   9.547  11.688   4.889 -0.2632 -0.2700  0.0714
32884ION     NA49018   2.026   1.295   2.358 -0.1255  0.0155  0.1447
32885ION     NA49019   5.509  11.511   2.526 -0.1557  0.0731 -0.1823
32886ION     NA49020  10.647  17.201   1.585 -0.0338 -0.2094 -0.1325
32887ION     NA49021  16.638   1.027   9.564  0.0234 -0.0311  0.2003
32888ION     NA49022   8.206  17.858  14.066  0.0383  0.4192  0.0646
32889ION     NA49023   4.319  11.238   2.451 -0.1394 -0.1523  0.0681
32890ION     NA49024  18.755   9.909   3.499 -0.2334 -0.0172 -0.1202
32891ION     NA49025   9.632   5.853   9.351 -0.1959  0.0505 -0.0925
32892ION     NA49026   1.849  18.430  14.176 -0.0794  0.1904 -0.1901
32893ION     NA49027  12.501   0.984   3.549 -0.1295 -0.3526 -0.0336
32894ION     NA49028   9.094  16.982   9.546  0.2382 -0.1025  0.0334
32895ION     NA49029   0.207   5.021   3.743 -0.3353  0.0660 -0.3636
32896ION     NA49030   0.348   6.397   2.553 -0.0912  0.0754 -0.1067
32897ION     NA49031  16.078   8.088  14.863 -0.1482  0.5037 -0.0276
32898ION     NA49032   5.093   0.765   0.901  0.1249  0.1423  0.0720
32899ION     NA49033   5.975   9.973   0.354  0.0881 -0.0771 -0.2112
32900ION     NA49034   7.735   9.243   9.476  0.0936 -0.1552  0.0524
32901ION     NA49035  10.696   1.188   3.138  0.2634 -0.2329  0.1225
32902ION     NA49036   5.669   9.684   5.134 -0.1171  0.2660  0.1856
32903ION     NA49037   2.831   3.594   5.380 -0.1707  0.1200 -0.1052
32904ION     NA49038   8.808   4.619   5.324  0.0354 -0.0663 -0.1415
32905ION     NA49039   3.711   7.639   4.680  0.1070  0.4613  0.2061
32906ION     NA49040  15.794  14.387  10.056  0.2219  0.1842 -0.1172
32907ION     NA49041   3.840   2.775   0.400 -0.1060 -0.0673 -0.0335
32908ION     NA49042   5.024  13.262   5.501  0.0691  0.0935  0.0024
32909ION     NA49043  11.090   6.506   2.934 -0.1008  0.0330  0.0765
32910ION     NA49044   4.186   3.606   9.401  0.2358 -0.2912  0.0603
32911ION     NA49045  15.037  13.875  10.033 -0.0711  0.2044  0.3721
32912ION     NA49046  11.681  15.624   2.957  0.2532  0.1194  0.3889
32913ION     NA49047  18.005  18.735  10.166  0.1443 -0.1128  0.0063
32914ION     NA49048  11.709  15.628   0.162  0.2229  0.0394  0.0125
32915ION     NA49049   7.728  18.500   3.930 -0.1818  0.0463 -0.2721
32916ION     NA49050   8.741   4.302   9.233  0.0465  0.0554  0.2413
32917ION     NA49051   8.122  15.311   9.657  0.0567  0.3229 -0.0639
32918ION     NA49052   9.404  10.274  14.865  0.0681  0.2511  0.0622
32919ION     NA49053   8.440   3.463   9.219 -0.1427 -0.2097 -0.0932
32920ION     NA49054  17.264   9.047   9.696 -0.0616  0.2438  0.2672
32921ION     NA49055  18.386  18.655   0.099 -0.0632 -0.3316 -0.1678
32922ION     NA49056   8.538  17.272   0.753 -0.1857  0.0250 -0.0100
32923ION     NA49057   9.310   3.012  13.201  0.0758  0.1798  0.0677
32924ION     NA49058   4.951  11.615   5.584  0.1720 -0.1560 -0.3724
32925ION     NA49059  13.606   4.122   3.792  0.1744 -0.2221  0.2036
32926ION     NA49060  11.001  15.283  11.957 -0.3124 -0.1985 -0.0880
32927ION     NA49061  15.077  11.136  10.430  0.1210 -0.0122 -0.4464
32928ION     NA49062  18.821  12.996   1.756  0.0147  0.1395 -0.0478
32929ION     NA49063  13.911  14.380   5.168  0.1766  0.2853  0.1747
32930ION     NA49064  10.849  17.781   9.632 -0.0352  0.1345  0.2260
32931ION     NA49065  13.197  18.091   9.728 -0.6836 -0.0825  0.0764
32932ION     NA49066  14.736  15.804  13.828 -0.0869 -0.0027 -0.1191
32933ION     NA49067  14.165  13.844  10.323 -0.0120  0.0173 -0.0551
32934ION     NA49068   3.317   0.517   5.307 -0.2851 -0.3551  0.0694
32935ION     NA49069   8.198  18.187   5.026  0.2419 -0.0332  0.0450
32936ION     NA49070  13.165  13.967   2.270 -0.1229 -0.2243 -0.2495
32937ION     NA49071   2.159   9.671  13.259  0.1634 -0.2424  0.0692
32938ION     NA49072   4.790  11.837   3.981 -0.2296  0.0021 -0.0587
32939ION     NA49073  18.848  18.785   5.740  0.0191 -0.0431  0.1148
32940ION     NA49074   0.676   5.196   5.716 -0.0400  0.0026 -0.1216
32941ION     NA49075  18.330  18.404   4.050  0.2341  0.1465 -0.0583
32942ION     NA49076   3.809  14.541   4.064  0.0073  0.1389  0.0327
32943ION     NA49077   2.583   6.248  14.545  0.3038  0.0045  0.3486
32944ION     NA49078  14.457  15.432   5.629  0.2266  0.2333 -0.1309
32945ION     NA49079   7.236  15.394   9.871 -0.2091 -0.2843 -0.0042
32946ION     NA49080   3.309  10.701   1.463 -0.1125  0.0059  0.1389
32947ION     NA49081  13.653  12.280   3.603 -0.0816 -0.1021 -0.3447
32948ION     NA49082   7.722  17.316  14.530 -0.0742 -0.2577  0.0438
32949ION     NA49083   3.084  17.204   9.388  0.1501  0.1458  0.0748
32950ION     NA49084   3.126   0.151   9.457  0.1519  0.0943 -0.2182
32951ION     NA49085   0.226  18.193   9.874  0.3295 -0.0854 -0.1735
32952ION     NA49086  14.598   2.383   9.296  0.0869 -0.2312 -0.1527
32953ION     NA49087  10.354  13.527   4.399 -0.1298  0.2148 -0.1655
32954ION     NA49088   0.149   5.507   4.955 -0.0316 -0.3141 -0.0318
32955ION     NA49089   1.432   1.798   9.914 -0.1591 -0.0500  0.4450
32956ION     NA49090  16.787  16.382   5.312 -0.0384 -0.0256  0.1080
32957ION     NA49091   6.218   5.553  13.507  0.1387  0.0873 -0.1011
32958ION     NA49092   5.808   1.323   5.249 -0.1360 -0.0004 -0.0095
32959ION     NA49093   6.950   7.582  13.758 -0.1487  0.2693  0.3143
32960ION     NA49094  17.956   3.079   5.576 -0.0204  0.2452 -0.1422
32961ION     NA49095  18.160  16.731  11.256 -0.2505  0.1760  0.0572
32962ION     NA49096  13.275   1.108   5.393  0.1083 -0.1021 -0.1792
32963ION     NA49097  10.354   4.013  11.138 -0.0711  0.2502 -0.4198
32964ION     NA49098   5.538  19.028   9.430 -0.1141  0.1335  0.0862
32965ION     NA49099   4.604   9.823   9.824  0.1369 -0.0130  0.0377
32966ION     NA49100  13.761  12.904   9.908  0.0480 -0.1121  0.1124
32967ION     NA49101   4.763   6.438   2.111 -0.1269 -0.1226  0.2279
32968ION     NA49102   3.807   3.121   9.516 -0.0327  0.0361 -0.3285
32969ION     NA49103   4.223  18.511  10.190 -0.0815  0.0098  0.3132
32970ION     NA49104   2.618  17.396   3.481 -0.0524 -0.0096  0.3141
32971ION     NA49105   2.233  16.215  10.301 -0.1216  0.0634 -0.0089
32972ION     NA49106  13.208   8.388  12.699  0.1722  0.1817  0.1973
32973ION     NA49107   9.118   0.869   2.738 -0.1103 -0.0527  0.0542
32974ION     NA49108   2.071  15.900  10.878 -0.1754  0.0326  0.2920
32975ION     NA49109   9.219  14.599  11.605  0.2504 -0.2440  0.3350
32976ION     NA49110   3.609  16.448   3.843  0.0392 -0.2126 -0.0487
32977ION     NA49111   5.879   3.411  14.747  0.4296 -0.0712 -0.0759
32978ION     NA49112   2.970  14.537  13.227  0.0090  0.0521  0.0348
32979ION     NA49113  10.945  16.017   9.663 -0.1182  0.3561  0.1248
32980ION     NA49114   2.235   2.315   0.124  0.0730 -0.2585  0.2343
32981ION     NA49115  13.773  11.785   9.915 -0.1856 -0.0023  0.1132
32982ION     NA49116  10.993   8.660   3.196  0.1908 -0.0175  0.0222
32983ION     NA49117  16.650  13.761   9.953  0.0352  0.1070  0.4595
32984ION     NA49118  11.038  18.325   5.357  0.1391 -0.4759  0.0952
32985ION     NA49119  15.969   7.072   9.290  0.0107  0.4463 -0.2076
32986ION     NA49120   8.785  19.229   2.744 -0.0647 -0.2468  0.4089
32987ION     NA49121  13.999   8.145   5.182 -0.2870  0.1948 -0.2299
32988ION     NA49122   0.275   7.045   5.118 -0.0639 -0.2257  0.0382
32989ION     NA49123   6.658  13.009  10.170 -0.3181  0.2194 -0.0080
32990ION     NA49124  18.713   7.057   5.488 -0.0279 -0.1874  0.3727
32991ION     NA49125   0.993   4.011  12.709  0.1593 -0.1309 -0.3063
32992ION     NA49126   7.039   0.245   9.538 -0.0761  0.2540  0.0890
32993ION     NA49127   9.392   8.747  14.111 -0.0489 -0.3083 -0.1022
32994ION     NA49128   4.969  10.488   9.885  0.0259 -0.0064 -0.0475
32995ION     NA49129   6.404   4.256   9.215  0.0357  0.0724  0.2129
32996ION     NA49130  18.911  18.492  11.219 -0.4497 -0.1713 -0.5706
32997ION     NA49131   7.349  18.885  12.947  0.0176  0.0050  0.2075
32998ION     NA49132   4.244  12.405   9.778 -0.2010  0.2495 -0.1594
32999ION     NA49133  14.615   9.544   4.497  0.3211  0.2861 -0.0903
33000ION     NA49134  13.902  10.266   1.997  0.1088 -0.0943  0.2115
33001ION     NA49135  10.145  19.083  14.734  0.0219 -0.1481  0.3226
33002ION     NA49136  10.372  13.909   9.926 -0.1530 -0.3516  0.0513
33003ION     NA49137  11.548   7.279   2.404  0.1642 -0.2471 -0.1181
33004ION     NA49138   8.926   1.665   9.264  0.0821  0.2451 -0.2153
33005ION     NA49139   6.991   5.044   9.287 -0.1986 -0.0574  0.0525
33006ION     NA49140   6.666   5.945   9.150 -0.2467 -0.0737 -0.0011
33007ION     NA49141   2.309   3.531   9.479 -0.0466  0.1044 -0.1501
33008ION     NA49142   5.975   5.692   5.113  0.0145  0.0902  0.1992
33009ION     NA49143   0.585   9.129   9.715  0.2363 -0.1749 -0.5552
33010ION     NA49144   4.170  12.059  12.803  0.3058 -0.1049  0.2364
33011ION     NA49145   8.227   5.385   0.164 -0.2380 -0.1561  0.0906
33012ION     NA49146   8.902  10.700  12.265  0.1893  0.0581 -0.2120
33013ION     NA49147  15.838  12.505   1.945 -0.0038 -0.0914  0.3793
33014ION     NA49148  10.456   7.640  11.618  0.2294  0.0734 -0.0923
33015ION     NA49149  13.118   0.949   9.872  0.0803  0.2514  0.1093
33016ION     NA49150  10.438   8.444  13.151  0.3487 -0.2418  0.2604
33017ION     NA49151   4.642  15.573  14.645  0.1645 -0.1310 -0.0849
33018ION     NA49152  10.020   4.518   5.218 -0.1205  0.0408 -0.1023
33019ION     NA49153   4.527   8.225   9.820 -0.0323 -0.1235 -0.3541
33020ION     NA49154   0.472  14.939   5.807 -0.1196 -0.2182  0.0523
33021ION     NA49155  16.447  15.068  10.106 -0.2040  0.3100 -0.1132
33022ION     NA49156   2.119   6.691   9.555  0.1691 -0.0026 -0.1350
33023ION     NA49157   5.236  13.862   5.273 -0.0962 -0.0366  0.0475
33024ION     NA49158  14.853  10.674   5.361 -0.2478  0.1190  0.3524
33025ION     NA49159  16.230   7.841   9.537  0.2999 -0.3010 -0.0181
33026ION     NA49160  16.614   7.447  12.935  0.0146  0.0737  0.1698
33027ION     NA49161  16.686  16.530   9.896  0.2632 -0.0056 -0.2712
33028ION     NA49162  10.006   2.721   4.981 -0.5606 -0.3131 -0.0434
33029ION     NA49163   2.240   7.267   2.894 -0.3149  0.3749 -0.2651
33030ION     NA49164  15.979   4.021   0.677 -0.0205  0.2956 -0.0773
33031ION     NA49165  10.315  16.501   4.059  0.1174 -0.2979  0.3323
33032ION     NA49166   5.119   9.487   9.662  0.0647 -0.1664  0.3782
33033ION     NA49167  12.575  14.062  10.074 -0.2445  0.2018 -0.0465
33034ION     NA49168   6.499  14.155   0.123 -0.0636  0.1958 -0.1249
33035ION     NA49169   9.546   8.854   2.644 -0.3222  0.3234  0.1250
33036ION     NA49170  15.139  16.218  10.268 -0.1964  0.1356  0.0780
33037ION     NA49171  13.938  10.407  14.111  0.0704  0.0152 -0.0583
33038ION     NA49172   8.274   3.517   5.208 -0.3439  0.0686  0.2049
33039ION     NA49173  18.638  12.587  10.056  0.2228 -0.2393  0.0753
33040ION     NA49174  11.269   5.456   9.475 -0.0222 -0.2111  0.0922
33041ION     NA49175  10.692   2.227   9.626 -0.0600 -0.0658  0.0602
33042ION     NA49176   7.029  18.739   1.183 -0.1794 -0.2444 -0.0480
33043ION     NA49177   4.705  15.119   4.150 -0.1829  0.1827  0.3637
33044ION     NA49178   3.671  14.008  11.129  0.1186  0.1245  0.0863
33045ION     NA49179   2.559   0.298   9.779 -0.1296 -0.3973  0.0938
33046ION     NA49180  14.131   2.352   2.840 -0.1710 -0.3543 -0.0952
33047ION     NA49181   6.932   7.175   2.703 -0.2836 -0.1567  0.1279
33048ION     NA49182  10.369   8.640   1.999  0.0098  0.2488  0.3397
33049ION     NA49183   1.405  11.630   1.872  0.3866 -0.0248  0.1761
33050ION     NA49184  18.004   5.463   4.664 -0.0405  0.1675 -0.0293
33051ION     NA49185  11.414   8.490   1.685  0.1516  0.2134 -0.0394
33052ION     NA49186   3.682   8.083   9.866  0.2016 -0.1408  0.1118
33053ION     NA49187  10.875   8.180   9.374 -0.1648 -0.0408 -0.0417
33054ION     NA49188  16.524  14.562   1.997  0.0318 -0.1666 -0.0910
33055ION     NA49189   6.551   1.623   0.456 -0.2545 -0.3676 -0.1757
33056ION     NA49190  12.269  17.860   9.491  0.0327 -0.0721  0.2960
33057ION     NA49191  17.308  13.000   3.489 -0.2953 -0.1467 -0.0777
33058ION     NA49192   3.520  16.039  12.426 -0.1204 -0.1880 -0.1556
33059ION     NA49193  15.400   5.295  11.805  0.0244  0.1284  0.1254
33060ION     NA49194   0.465   0.689   9.789 -0.2522 -0.0636 -0.3947
33061ION     NA49195  19.092   3.664   1.026  0.1786  0.1387  0.1666
33062ION     NA49196  14.099   2.784  11.322 -0.1311  0.0758 -0.0135
33063ION     NA49197   4.239   1.354   2.645  0.0579 -0.2620 -0.0096
33064ION     NA49198   7.388  12.330   1.836  0.1261  0.1953 -0.1886
33065ION     NA49199  10.624   6.795   3.837 -0.3138  0.0165 -0.0707
33066ION     NA49200   7.249   0.142  14.701  0.0418  0.1418  0.2094
33067ION     NA49201  14.357  11.209   4.954  0.0716 -0.1693 -0.2510
33068ION     NA49202   4.665  12.425   5.758 -0.0131  0.1468 -0.0775
33069ION     NA49203  13.868   7.919  14.132 -0.1301 -0.0827  0.0865
33070ION     NA49204  10.167   4.915  10.182 -0.1720 -0.0874 -0.1523
33071ION     NA49205   9.535   2.978   1.516 -0.1710  0.0292 -0.0500
33072ION     NA49206   4.312   4.775  14.063 -0.3209 -0.0106 -0.2501
33073ION     NA49207   5.589   2.591   9.661 -0.1558 -0.1909  0.0122
33074ION     NA49208   7.040   0.013   5.303  0.0692 -0.4962  0.4376
33075ION     NA49209  17.894   4.730   5.558 -0.0496 -0.2182  0.0064
33076ION     NA49210  11.252  10.126   0.561  0.0155 -0.4213 -0.2351
33077ION     NA49211   7.618   0.543   3.386 -0.4038  0.0867  0.2788
33078ION     NA49212  12.121   1.013   1.171 -0.0092  0.1991 -0.0832
33079ION     NA49213   8.390  16.429   5.492 -0.0853  0.3388 -0.3072
33080ION     NA49214   1.551   8.858   5.203  0.2032  0.1095  0.1447
33081ION     NA49215   1.404  10.590   3.201  0.3835  0.4283 -0.0681
33082ION     NA49216   7.221  10.086   4.524 -0.2414  0.1345  0.1201
33083ION     NA49217   0.516   7.527   9.440  0.1169  0.2093 -0.1298
33084ION     NA49218   2.479  12.518   4.510  0.2882 -0.3023  0.2476
33085ION     NA49219   9.657  16.054  11.908  0.0336 -0.0792 -0.0558
33086ION     NA49220   8.171  10.330   9.592 -0.0333  0.1237  0.2849
33087ION     NA49221  14.500   3.882   2.162  0.0325 -0.3960 -0.3313
33088ION     NA49222  15.546  12.720   9.947  0.3846 -0.0753  0.1906
33089ION     NA49223  14.766   8.442   1.093  0.2801 -0.0109 -0.1523
33090ION     NA49224  14.189   3.137   9.528 -0.1081  0.0123  0.2146
33091ION     NA49225   6.828  14.278   4.960 -0.2810 -0.2075  0.5594
33092ION     NA49226  18.587  10.060   9.617  0.0557  0.0006 -0.0145
33093ION     NA49227  19.017  11.769  12.081  0.1447  0.3348 -0.0836
33094ION     NA49228  15.955  12.989   5.730  0.2455 -0.2415 -0.1013
33095ION     NA49229  17.758  16.832  13.001 -0.1946  0.0902  0.1376
33096ION     NA49230  18.694   3.002  11.852 -0.0137 -0.0398  0.2399
33097ION     NA49231  10.646  16.458   5.344  0.0883 -0.1122 -0.0610
33098ION     NA49232   4.849  16.689   5.406  0.3925 -0.4484 -0.0321
33099ION     NA49233   5.413  13.573  10.048 -0.1855  0.1498 -0.4262
33100ION     NA49234   5.249  14.014   9.770 -0.1936  0.0710 -0.4273
33101ION     NA49235   6.548  13.927  10.062  0.2524  0.3113 -0.0269
33102ION     NA49236  18.699   3.507   9.885 -0.1871  0.0390 -0.0321
33103ION     NA49237  16.261   9.839   3.266  0.2922 -0.0390 -0.0002
33104ION     NA49238   7.670   1.239   4.897  0.0932 -0.3248  0.1753
33105ION     NA49239  12.060   9.837   9.739  0.2656  0.2486  0.1198
33106ION     NA49240  17.660   0.867   1.019  0.3189  0.0877  0.4313
33107ION     NA49241  11.454  18.360   9.382  0.0728 -0.1250 -0.0267
33108ION     NA49242   9.317  16.203   5.213 -0.1188 -0.0476  0.1149
33109ION     NA49243   6.581   3.436   9.412  0.0742 -0.0401 -0.3004
33110ION     NA49244  11.778  11.475   9.927  0.1109  0.1991  0.2198
33111ION     NA49245  15.841   9.938   9.881  0.0517 -0.2631 -0.2092
33112ION     NA49246  10.785   6.056   4.978 -0.4532 -0.2338 -0.1528
33113ION     NA49247  13.013   1.532  14.587 -0.1531 -0.1978 -0.1924
33114ION     NA49248  16.826   3.651  12.250 -0.0587 -0.0641 -0.3712
33115ION     NA49249   8.597   9.462   9.436 -0.2658  0.1253 -0.3107
33116ION     NA49250   0.866   4.460   5.529  0.1176 -0.3510  0.2667
33117ION     NA49251  11.993  18.804   5.326 -0.2958 -0.3436  0.0611
33118ION     NA49252  17.173  12.439   9.619 -0.0823 -0.0196 -0.0286
33119ION     NA49253  13.058   4.900   9.489  0.0673 -0.2409 -0.0265
33120ION     NA49254   8.324   5.851  14.140  0.1798 -0.0154 -0.2243
33121ION     NA49255  12.899  17.362   9.809 -0.1995  0.2369 -0.2051
33122ION     NA49256   8.597  14.519   9.547  0.3590 -0.0055  0.3277
33123ION     NA49257   0.588   1.229   9.922 -0.0309  0.3475  0.5251
33124ION     NA49258   9.317  18.204   5.560  0.1886  0.0762 -0.1483
33125ION     NA49259  13.523   2.406   9.505 -0.0630  0.0522 -0.0993
33126ION     NA49260   6.776   4.368   2.840  0.0351  0.4253 -0.5624
33127ION     NA49261  14.975  10.145   0.824 -0.0369  0.1175  0.0548
33128ION     NA49262  19.160  18.449  13.005 -0.1602  0.0164  0.1361
33129ION     NA49263   6.468  17.124  13.817 -0.2188 -0.1461 -0.0789
33130ION     NA49264  17.622  16.649   5.552 -0.2354 -0.1333 -0.0048
33131ION     NA49265   8.058   6.885   5.064 -0.2467 -0.1248 -0.0283
33132ION     NA49266  16.967   0.851  13.613 -0.2832 -0.1649 -0.4649
33133ION     NA49267  11.529   9.014   9.558 -0.0828  0.0406  0.0832
33134ION     NA49268   2.442   8.038   0.358  0.2343 -0.0643 -0.2928
33135ION     NA49269  16.310  10.443   2.154 -0.1388  0.2175  0.1670
33136ION     NA49270   4.929   1.038   5.514 -0.1486  0.0321 -0.0444
33137ION     NA49271   1.013   0.668  10.587 -0.0146 -0.0153  0.1995
33138ION     NA49272  18.769   4.848   5.787  0.2314 -0.4408  0.2129
33139ION     NA49273   7.157  16.104   2.119  0.1262  0.1067  0.0116
33140ION     NA49274  15.245  13.043  10.747  0.1116 -0.0527  0.0485
33141ION     NA49275   9.910   6.701   9.146 -0.0981  0.3054  0.3201
33142ION     NA49276  16.677   0.869   2.021 -0.3630 -0.0823  0.2361
33143ION     NA49277  15.987  15.560  14.944 -0.1535 -0.1317  0.2591
33144ION     NA49278   3.051  18.476   0.577  0.2483 -0.1685  0.2204
33145ION     NA49279  16.504   9.012  14.832 -0.1362  0.2383 -0.1510
33146ION     NA49280   2.225  10.692  10.037  0.1776  0.1457 -0.4447
33147ION     NA49281  13.958   9.177   0.994 -0.1258 -0.3928  0.0968
33148ION     NA49282   5.074  17.679   9.061 -0.0802 -0.0620  0.2133
33149ION     NA49283   6.539  12.704   0.799 -0.1783  0.1331  0.0422
33150ION     NA49284  16.136  11.446   5.611  0.2018 -0.0269  0.0144
33151ION     NA49285   6.066   4.013   3.881 -0.1493  0.0356 -0.0400
33152ION     NA49286   4.497  13.733   9.725 -0.2913 -0.1384 -0.3129
33153ION     NA49287  12.797   3.282   9.578 -0.3699  0.2739  0.1224
33154ION     NA49288   9.485  18.699   0.310  0.0312  0.1589 -0.0220
33155ION     NA49289  18.459   7.602   2.674 -0.0545 -0.0309  0.0610
33156ION     NA49290   6.576   9.923  13.919  0.1799 -0.0199 -0.1114
33157ION     NA49291  15.565   7.541   0.526 -0.3724 -0.0709  0.0551
33158ION     NA49292   2.073   8.824  10.954  0.1829 -0.0222 -0.2116
33159ION     NA49293  15.739   5.743   5.098 -0.0576  0.2225 -0.1237
33160ION     NA49294   3.312  10.786   5.427 -0.3216  0.1530  0.0356
33161ION     NA49295   3.936  15.079   4.473 -0.0797 -0.4841  0.2604
33162ION     NA49296  14.718  16.348   4.864  0.0105 -0.1722  0.0435
33163ION     NA49297   5.204  17.115  12.894  0.0310 -0.4364 -0.3082
33164ION     NA49298   1.906   9.273   0.876  0.2960 -0.2698 -0.3749
33165ION     NA49299   2.321  16.114   5.057  0.1753 -0.0095  0.0669
33166ION     NA49300   7.144  12.363  10.003  0.0862  0.0713 -0.3381
33167ION     NA49301  16.552   5.817   4.870 -0.2033 -0.0284 -0.2918
33168ION     NA49302  14.631  13.183   5.882  0.3665  0.0365  0.2238
33169ION     NA49303  15.041   7.378   9.537 -0.1185 -0.0492 -0.2388
33170ION     NA49304  16.849   7.674   2.966  0.2427 -0.0557  0.2197
33171ION     NA49305  14.041   5.921   4.365  0.0973  0.0418  0.0904
33172ION     NA49306   3.168  18.304   5.404  0.1018  0.2080 -0.2078
33173ION     NA49307  12.783  10.637   2.213 -0.0096 -0.5847  0.1333
33174ION     NA49308  14.914   7.312  12.897 -0.1519  0.0318  0.1586
33175ION     NA49309   5.461  10.637  13.716  0.0825 -0.1212  0.0605
33176ION     NA49310  19.240   2.984   0.442 -0.0321  0.0410 -0.0913
33177ION     NA49311   9.601   9.919   2.634 -0.0838  0.1569  0.0021
33178ION     NA49312   3.485  14.539  10.010 -0.0949 -0.2757 -0.0966
33179ION     NA49313  12.053  14.635   0.239 -0.1502 -0.3173  0.0342
33180ION     NA49314  17.432   5.958   3.590 -0.0849 -0.2494  0.3065
33181ION     NA49315   1.156  10.860  12.671 -0.1199 -0.2100 -0.0250
33182ION     NA49316   2.917  18.198  12.120 -0.0315 -0.1369  0.1249
33183ION     NA49317  12.998   5.678  12.591 -0.0238 -0.0102  0.0049
33184ION     NA49318   3.103   4.247   1.861  0.2262 -0.3668 -0.0745
33185ION     NA49319   5.186   2.405   0.954  0.0688  0.2337  0.1962
33186ION     NA49320  16.040   4.596   5.611 -0.0200  0.3097  0.2234
33187ION     NA49321  18.070  15.283   4.748  0.0763 -0.1562 -0.0058
33188ION     NA49322   7.723  19.046   9.460 -0.0867  0.4565  0.3180
33189ION     NA49323   5.033   5.516   4.075  0.0512  0.1753  0.0080
33190ION     NA49324   1.867  13.718  13.442 -0.1680  0.2816 -0.2660
33191ION     NA49325   5.531   0.767   5.023 -0.0671  0.0534  0.3628
33192ION     NA49326   8.609  12.083   9.567  0.1875 -0.0710  0.0706
33193ION     NA49327  18.084  17.648   5.629 -0.2384  0.3281 -0.0871
33194ION     NA49328   7.430   2.155   1.027 -0.0284  0.1182 -0.1596
33195ION     NA49329  18.778   7.490   3.324 -0.1628  0.0563  0.0292
33196ION     NA49330   5.562  12.777  14.195 -0.0957  0.1162  0.0424
33197ION     NA49331   4.539  13.850  13.700 -0.4181 -0.3534 -0.1075
33198ION     NA49332   7.977   1.099   9.781 -0.1516  0.0361 -0.1210
33199ION     NA49333   9.811   5.893  10.671 -0.0072 -0.2660  0.2813
33200ION     NA49334  13.297   6.767   5.236 -0.1627 -0.2837 -0.1191
33201ION     NA49335   7.851   0.446   5.260  0.0113 -0.1531  0.1583
33202ION     NA49336   6.939  18.029   3.796 -0.1607  0.1006 -0.2231
33203ION     NA49337  17.518  11.637   2.094  0.1605 -0.0207  0.0494
33204ION     NA49338  11.439   8.377   5.376  0.2479 -0.0073  0.0794
33205ION     NA49339   9.944   5.063   9.596  0.0365  0.0668 -0.0264
33206ION     NA49340  14.525   4.901  13.153 -0.0462 -0.0148 -0.1041
33207ION     NA49341  14.818  16.899   3.921  0.0630 -0.0195  0.1743
33208ION     NA49342  17.165   1.846   9.611  0.0164 -0.2349  0.0034
33209ION     NA49343  16.003   3.292   9.470 -0.0939  0.3339 -0.2203
33210ION     NA49344  19.147   8.780   5.319 -0.0443  0.1881 -0.0078
33211ION     NA49345  14.604  12.009   1.365 -0.0204 -0.1858 -0.2242
33212ION     NA49346   4.557  15.590  10.062 -0.1395  0.0419  0.3360
33213ION     NA49347  19.141   9.226   3.995  0.2342  0.0341 -0.1885
33214ION     NA49348  16.842   2.135   1.348 -0.0972  0.1810  0.1862
33215ION     NA49349  10.059  14.962   2.130 -0.1635 -0.0488  0.0607
33216ION     NA49350  12.503  11.678   9.800  0.2867 -0.0696  0.1208
33217ION     NA49351   1.369  13.646  10.250  0.4544 -0.2064  0.2288
33218ION     NA49352   9.750   4.915   4.588  0.4154  0.1926 -0.1381
33219ION     NA49353  17.143   8.583   0.443  0.0831  0.2200  0.1333
33220ION     NA49354   8.516   4.722  14.037 -0.2196 -0.1318  0.0824
33221ION     NA49355  18.984  17.488   5.770  0.3300 -0.0969 -0.0640
33222ION     NA49356   9.564  13.546   9.766  0.1454 -0.2249  0.3591
33223ION     NA49357  11.326  17.905  14.447 -0.0382  0.2385 -0.2566
33224ION     NA49358  11.009  14.666   9.996  0.0765 -0.0063  0.0940
33225ION     NA49359  15.287  11.807  10.132  0.1436 -0.1129  0.0486
33226ION     NA49360   3.994  18.872  11.118 -0.3609 -0.0961  0.3383
33227ION     NA49361   0.379  15.553  13.801  0.1521 -0.5305 -0.1349
33228ION     NA49362  18.224  14.489   5.725 -0.0128  0.0603 -0.1796
33229ION     NA49363   5.814  12.814   2.390 -0.2457 -0.1826 -0.1628
33230ION     NA49364  16.065  18.649   2.031 -0.2350  0.2680 -0.0035
33231ION     NA49365  15.788  14.505   3.837 -0.1723 -0.0199 -0.2853
33232ION     NA49366   1.914  15.600   0.478  0.2008  0.3262  0.0720
33233ION     NA49367   9.242  10.137   9.512 -0.1006 -0.1594 -0.1306
33234ION     NA49368   4.054   3.672   1.835  0.1526 -0.0462  0.4250
33235ION     NA49369  19.043  19.168   4.605 -0.1670 -0.0415  0.0366
33236ION     NA49370  10.780   3.556   4.579  0.0150 -0.3162  0.1795
33237ION     NA49371  17.454   8.150   5.539  0.2465 -0.2017 -0.0324
33238ION     NA49372   7.555   2.820   5.463  0.2597 -0.5277  0.0260
33239ION     NA49373  12.920   3.266   0.173  0.2801 -0.1515 -0.0358
33240ION     NA49374  17.854   4.156   9.730 -0.3778 -0.0419 -0.0565
33241ION     NA49375  18.663   8.793   9.646  0.2052 -0.1005 -0.1204
33242ION     NA49376   6.540   8.900   9.634 -0.1770 -0.1417 -0.1948
33243ION     NA49377  10.785   1.242   5.178 -0.0689  0.0745 -0.0036
  19.24075  19.24075  15.04159
